0.4709558481 	2.257709562e-07 	-1.814542353e-09 	1.424408974e-14 	2.253574541e-07 	-1.31531495e-12 	4.295939424e-10
0.4720092239 	1.851893898e-05 	-1.320195493e-06 	1.063569168e-11 	1.861477002e-05 	-1.09185811e-10 	3.548492537e-08
0.4730625996 	0.0002109500104 	-4.537891723e-05 	3.476016429e-10 	0.0002246223366 	-1.337646746e-09 	4.281926041e-07
0.4741159754 	0.000897809948 	-0.0003138275212 	2.022084315e-09 	0.001045621183 	-5.764809471e-09 	1.99324459e-06
0.4751693511 	0.002088870851 	-0.0008976514152 	4.682326669e-09 	0.002573955565 	-1.204691393e-08 	4.9066747e-06
0.4762227269 	0.003521990969 	-0.001629101859 	6.454989529e-09 	0.004440796249 	-1.671726998e-08 	8.465391906e-06
0.4778443634 	0.004882894459 	-0.002289566748 	7.243741003e-09 	0.006186084264 	-1.902215168e-08 	1.179239594e-05
0.4796765386 	0.005874531946 	-0.002757200895 	7.306457022e-09 	0.007451040984 	-1.890421606e-08 	1.420375502e-05
0.4817465869 	0.006491369873 	-0.003045832798 	6.456882863e-09 	0.00823467432 	-1.642878729e-08 	1.569757796e-05
0.4840853915 	0.006850580648 	-0.003213497385 	4.913459212e-09 	0.00868736768 	-1.187760181e-08 	1.656053733e-05
0.4867278453 	0.007034896134 	-0.003299415435 	2.596260797e-09 	0.008918432775 	-5.170428597e-09 	1.700101162e-05
0.4897133715 	0.007096554303 	-0.003328027113 	-5.457520447e-10 	0.008994305825 	3.793909385e-09 	1.714564674e-05
0.4930865115 	0.007066301145 	-0.003313606632 	-4.598443703e-09 	0.008953520182 	1.522929671e-08 	1.706789797e-05
0.4968975894 	0.006961282882 	-0.003264161627 	-9.721053366e-09 	0.008817686273 	2.956078004e-08 	1.680896078e-05
0.5012034633 	0.006790141753 	-0.003183684841 	-1.618551071e-08 	0.00859756655 	4.752358246e-08 	1.638935141e-05
0.506068373 	0.006530697237 	-0.003061688612 	-2.527707768e-08 	0.008264542001 	7.262400458e-08 	1.575451407e-05
0.5134203412 	0.006139799969 	-0.002878045115 	-3.902499145e-08 	0.007764051407 	1.103695636e-07 	1.480043989e-05
0.5212948542 	0.005631987851 	-0.002639651582 	-5.759072082e-08 	0.007115345701 	1.610862126e-07 	1.356382651e-05
0.529729052 	0.005043617845 	-0.002363576504 	-7.949524633e-08 	0.006365398948 	2.205326205e-07 	1.213421957e-05
0.5387627144 	0.004388855741 	-0.002056816011 	-1.002833218e-07 	0.005533964701 	2.765516476e-07 	1.054927481e-05
0.5484384488 	0.003708876404 	-0.001738237782 	-1.106900871e-07 	0.004672459374 	3.039437051e-07 	8.907006209e-06
0.5588018907 	0.00307211987 	-0.001429423071 	-1.266884795e-07 	0.0038571036 	3.076642519e-07 	7.352711488e-06
0.5699019192 	0.002532768986 	-0.001115280081 	-1.355092561e-07 	0.003122087785 	2.904584718e-07 	5.951567058e-06
0.5817908876 	0.0021090548 	-0.0008109290171 	-1.199762912e-07 	0.002497496169 	2.361289391e-07 	4.760921841e-06
0.5945248701 	0.001812981705 	-0.0005518561571 	-9.800850249e-08 	0.002033853743 	1.523980572e-07 	3.877090514e-06
0.6081639266 	0.001643683727 	-0.0003347408612 	-7.512677019e-08 	0.00174622739 	6.073309766e-08 	3.328794745e-06
0.6227723857 	0.001572611002 	-0.0001477169662 	-5.468158431e-08 	0.001614738567 	-1.361875309e-08 	3.078140502e-06
0.638419148 	0.001564578011 	2.181585886e-05 	-3.262721201e-08 	0.001599094063 	-5.511030212e-08 	3.04831773e-06
0.6551780116 	0.001591501504 	0.000176537871 	-9.122791188e-09 	0.001660891631 	-6.242334497e-08 	3.16612107e-06
0.6731280194 	0.001639806755 	0.0003197303622 	1.103139319e-08 	0.0017727674 	-4.612447472e-08 	3.379387379e-06
0.6923538328 	0.001705024027 	0.0004550653033 	2.376530135e-08 	0.001918868313 	-1.961200518e-08 	3.657896327e-06
0.7129461301 	0.001787607889 	0.0005853998442 	2.619046266e-08 	0.002091612985 	5.700727894e-09 	3.987195683e-06
0.7350020349 	0.001889848986 	0.000711499263 	1.920167138e-08 	0.002286678584 	2.422157023e-08 	4.35904493e-06
0.7570579485 	0.002012209556 	0.0008307879201 	8.490379408e-09 	0.002496599756 	3.693155465e-08 	4.759213028e-06
0.7776502527 	0.002153968752 	0.0009444468699 	1.618218348e-09 	0.00271716969 	4.891739869e-08 	5.179680628e-06
0.7968760713 	0.002320621802 	0.001054261028 	4.03796095e-09 	0.002952080398 	6.66635413e-08 	5.627485728e-06
0.814826083 	0.002521455477 	0.001166958342 	1.692933993e-08 	0.003214690191 	9.52351394e-08 	6.12809298e-06
0.831584949 	0.002763958771 	0.001292440838 	4.480582715e-08 	0.003521505638 	1.384549067e-07 	6.712968498e-06
0.8472317127 	0.003054034798 	0.001432368946 	7.09788436e-08 	0.003881868911 	1.84363075e-07 	7.399921055e-06
0.8618401721 	0.003391734234 	0.001590112185 	8.50478501e-08 	0.00430042078 	2.240561011e-07 	8.197797247e-06
0.8754792281 	0.003769125821 	0.001766572132 	9.6274399e-08 	0.004771264399 	2.562156402e-07 	9.095356049e-06
0.8882132094 	0.004170346787 	0.001954378459 	1.010905089e-07 	0.005274755667 	2.705903635e-07 	1.005515034e-05
0.9001021759 	0.00457463778 	0.002143849703 	9.855884409e-08 	0.005784791033 	2.647942754e-07 	1.102741951e-05
0.9112022019 	0.004963382525 	0.002326224428 	9.056913912e-08 	0.006277462447 	2.4397034e-07 	1.196658815e-05
0.9215656407 	0.005323300185 	0.002495220774 	7.962085953e-08 	0.006735395975 	2.148716789e-07 	1.283953674e-05
0.9312413717 	0.00564590033 	0.002646806817 	6.764851336e-08 	0.007147232266 	1.827412988e-07 	1.362461117e-05
0.9402750304 	0.005926156889 	0.002778574376 	5.60233402e-08 	0.007505995719 	1.513332566e-07 	1.430851402e-05
0.9487092242 	0.006160499987 	0.002888741007 	4.557792645e-08 	0.007806416057 	1.229711931e-07 	1.488119869e-05
0.9565837329 	0.006343823857 	0.002974904372 	3.673222921e-08 	0.008041663576 	9.88703549e-08 	1.532964584e-05
0.9639356968 	0.006460291746 	0.003029746577 	3.007023491e-08 	0.008191691257 	8.068546296e-08 	1.56156403e-05
0.9688006083 	0.006512655333 	0.003054499062 	2.569214655e-08 	0.008259703724 	6.87386395e-08 	1.574529096e-05
0.9731064834 	0.006521007667 	0.003058506571 	2.269900435e-08 	0.008271134374 	6.060032886e-08 	1.576708096e-05
0.976917562 	0.006486217862 	0.003042251534 	2.045568477e-08 	0.008227488718 	5.453831998e-08 	1.568388021e-05
0.9802907021 	0.006397544119 	0.003000755286 	1.876218724e-08 	0.008115401962 	5.000632468e-08 	1.54702117e-05
0.9832762282 	0.006236477851 	0.002925374044 	1.744724082e-08 	0.007911579973 	4.653331147e-08 	1.508167034e-05
0.9859186816 	0.005972331084 	0.002801834004 	1.635982749e-08 	0.007577500039 	4.370333783e-08 	1.444482113e-05
0.9882574856 	0.005555965282 	0.00260715185 	1.533756425e-08 	0.007050626419 	4.108326231e-08 	1.344045358e-05
0.990327533 	0.004914803564 	0.002305784805 	1.418279866e-08 	0.006234165624 	3.806266036e-08 	1.188405238e-05
0.9921597073 	0.003959548947 	0.001855531773 	1.247604241e-08 	0.005015946039 	3.352792896e-08 	9.561787261e-06
0.9937813429 	0.002737629506 	0.001251630562 	9.806649764e-09 	0.003439502297 	2.635336544e-08 	6.556647338e-06
0.9948347186 	0.001541196027 	0.0006352767222 	6.078301969e-09 	0.001875662344 	1.682863026e-08 	3.575533742e-06
0.9958880943 	0.0006301461395 	0.0002039209419 	2.313925547e-09 	0.0007204164128 	7.288522577e-09 	1.373313912e-06
0.9969414701 	0.0001430239978 	2.704348415e-05 	3.490832564e-10 	0.0001501478871 	1.594329217e-09 	2.862236042e-07
0.9979948458 	1.242203713e-05 	7.539845746e-07 	1.010432327e-11 	1.246171764e-05 	1.312210897e-10 	2.375549737e-08
0.9990482216 	1.65878025e-07 	1.127564131e-09 	1.492963326e-14 	1.655710997e-07 	1.739067124e-12 	3.156245342e-10
0.9990482216 	1.65878025e-07 	1.127564131e-09 	1.492963326e-14 	1.655710997e-07 	1.739067124e-12 	3.156245342e-10
