0.2971421875 	2.93022685e-07 	-3.498952405e-09 	-3.223118106e-13 	2.89252504e-07 	3.136888528e-10 	5.513956661e-10
0.2971421875 	2.93022685e-07 	-3.498952405e-09 	-3.223118106e-13 	2.89252504e-07 	3.136888528e-10 	5.513956661e-10
0.2984004715 	2.988038128e-05 	-3.077443965e-06 	3.016488467e-09 	2.701827478e-05 	9.417442975e-09 	5.150434106e-08
0.2996588726 	0.0003831038462 	-9.642161583e-05 	6.62810766e-08 	0.0002945476029 	1.088427764e-07 	5.614895964e-07
0.3009171386 	0.001518085273 	-0.0005106410941 	-1.231539302e-07 	0.001049778768 	8.899954009e-07 	2.001170102e-06
0.3021750194 	0.002978451744 	-0.001100189465 	-1.182805698e-06 	0.001971265932 	2.833556203e-06 	3.757780751e-06
0.3034322672 	0.003976097084 	-0.001516732214 	-3.227833343e-06 	0.002600504186 	5.20565428e-06 	4.957283751e-06
0.3053659544 	0.004144659628 	-0.001576108454 	-4.161537999e-06 	0.002747904439 	5.627366303e-06 	5.238269601e-06
0.3075470768 	0.003675002269 	-0.001340242833 	-3.262905362e-06 	0.002555705107 	2.645542447e-06 	4.871884255e-06
0.3100052365 	0.003162835852 	-0.001032797084 	-2.588624715e-06 	0.002432896097 	-2.048529475e-06 	4.63777615e-06
0.3127725449 	0.002815150303 	-0.0007379067724 	-2.05115257e-06 	0.002518140707 	-5.622522927e-06 	4.800276069e-06
0.3159581696 	0.002629444995 	-0.0005162979211 	-1.213505053e-06 	0.002735249841 	-7.035622447e-06 	5.21414642e-06
0.3195728889 	0.002533600968 	-0.0003671466468 	-5.649011415e-07 	0.002983641121 	-7.060568012e-06 	5.687649237e-06
0.3236393977 	0.002467520026 	-0.0002657953751 	-2.219600655e-07 	0.003209094285 	-6.406178094e-06 	6.117425628e-06
0.3282122583 	0.002399836855 	-0.0001855106073 	-1.264984324e-07 	0.003392536103 	-5.337286718e-06 	6.467116718e-06
0.3334593818 	0.002317264994 	-0.0001080419415 	-1.748915094e-07 	0.003522801032 	-3.77151289e-06 	6.715437878e-06
0.3394059475 	0.002206280113 	-1.81381958e-05 	-1.642392981e-07 	0.003582539652 	-1.939317086e-06 	6.829316291e-06
0.3483965305 	0.002069704099 	8.102463968e-05 	6.496049459e-09 	0.003535123507 	-6.305823364e-07 	6.738927941e-06
0.3581269251 	0.00194131839 	0.0001584465607 	8.528228084e-08 	0.00341081457 	-1.512578085e-07 	6.501960557e-06
0.3666486922 	0.001867064479 	0.0001911110947 	2.670812324e-07 	0.003317484155 	-1.697607759e-06 	6.324046847e-06
0.3686062448 	0.001849584278 	0.0001986799481 	1.740664098e-08 	0.003295557873 	-2.398151564e-08 	6.282249259e-06
0.379768926 	0.001795860545 	0.000215351865 	1.893382731e-07 	0.003227044403 	-1.290092493e-07 	6.151643543e-06
0.3918314255 	0.001764271266 	0.0002261289887 	4.052268331e-07 	0.003194509561 	-2.567219991e-07 	6.089623091e-06
0.4049179264 	0.001737162893 	0.0002380409326 	6.156991659e-07 	0.003171085419 	-3.68903686e-07 	6.044970167e-06
0.4190519956 	0.001710306951 	0.000252853044 	8.256749404e-07 	0.003148599894 	-4.863463542e-07 	6.002106507e-06
0.434325357 	0.001677771202 	0.000269059662 	1.047200723e-06 	0.003115696143 	-5.234152611e-07 	5.939382812e-06
0.450827461 	0.001648308288 	0.0002872862939 	1.263398037e-06 	0.003087942536 	-5.737829376e-07 	5.886476722e-06
0.4686904931 	0.001623417327 	0.0003068266597 	1.467281224e-06 	0.00306794216 	-6.487788881e-07 	5.848350448e-06
0.4879732028 	0.001602193473 	0.0003279776925 	1.500838068e-06 	0.003054535679 	-6.258617283e-07 	5.822793968e-06
0.5087551152 	0.001587054392 	0.0003516737425 	1.306831695e-06 	0.003051743868 	-5.936802617e-07 	5.817472e-06
0.5311953169 	0.001573469922 	0.0003774018475 	1.125608431e-06 	0.003050734479 	-5.25508106e-07 	5.815547824e-06
0.5553404792 	0.001563506451 	0.0004071517532 	9.505689299e-07 	0.00305341126 	-5.032158666e-07 	5.820650513e-06
0.5813069819 	0.001554855887 	0.0004415830103 	7.873963261e-07 	0.003052578478 	-4.740123812e-07 	5.819062999e-06
0.6092019685 	0.001547679869 	0.0004816118624 	6.367307134e-07 	0.003044456199 	-4.563782275e-07 	5.803579678e-06
0.6391328417 	0.001541328466 	0.0005264935238 	5.019001097e-07 	0.003022715234 	-4.380153645e-07 	5.762135355e-06
0.6690889292 	0.001536176503 	0.0005724653142 	3.911116511e-07 	0.002985191018 	-4.210940729e-07 	5.690603771e-06
0.6970675957 	0.001533116483 	0.0006160161046 	3.020388354e-07 	0.002934256636 	-4.023284357e-07 	5.593508683e-06
0.7231945774 	0.001533168484 	0.0006559993928 	2.302120503e-07 	0.00287396521 	-3.772007649e-07 	5.478576468e-06
0.7475921406 	0.001537461808 	0.0006926933857 	1.726355818e-07 	0.002807923689 	-3.427742829e-07 	5.352682974e-06
0.7703766453 	0.001547537128 	0.0007263815744 	1.395160277e-07 	0.002740042467 	-2.860839788e-07 	5.223282497e-06
0.7916578666 	0.001565098922 	0.000757687776 	1.390219137e-07 	0.002674810451 	-2.013412624e-07 	5.098932145e-06
0.8115364187 	0.001591574743 	0.00078840795 	1.421885485e-07 	0.002617618052 	-1.142284711e-07 	4.989907537e-06
0.8301065661 	0.001628841494 	0.0008206465729 	1.215832588e-07 	0.002573466489 	-4.203616105e-08 	4.905742386e-06
0.8474552181 	0.001679641898 	0.0008558080715 	9.114961293e-08 	0.002546144481 	2.753862843e-08 	4.853659045e-06
0.8636633531 	0.001747294679 	0.0008949362852 	8.904799784e-08 	0.002538632979 	1.136844208e-07 	4.839340034e-06
0.8788061369 	0.001835257191 	0.0009400196561 	1.172653612e-07 	0.002553871006 	2.14942548e-07 	4.868387949e-06
0.8929535143 	0.001947056004 	0.0009935166919 	1.52381618e-07 	0.002594793871 	3.188644744e-07 	4.946398303e-06
0.906170736 	0.002085560479 	0.00105692505 	1.876343468e-07 	0.002663898686 	4.181298365e-07 	5.078131289e-06
0.9185186828 	0.002250663197 	0.001130500767 	2.120169244e-07 	0.002762317269 	4.925834239e-07 	5.26574446e-06
0.930054209 	0.002436690349 	0.00121216805 	2.115813239e-07 	0.002886480118 	5.100958336e-07 	5.50243336e-06
0.9408304396 	0.00263030268 	0.001296329358 	1.753271657e-07 	0.003024225404 	4.408974685e-07 	5.76501416e-06
0.9508970316 	0.002798597466 	0.001368586604 	1.117940451e-07 	0.003145519586 	2.994724953e-07 	5.996234582e-06
0.9575611767 	0.002918022121 	0.001418478483 	4.659323555e-08 	0.003226858198 	1.431312107e-07 	6.151288584e-06
0.9634614836 	0.003000283981 	0.001450799639 	-9.31341123e-10 	0.003273212201 	1.739805022e-08 	6.239652198e-06
0.9686853062 	0.003056682136 	0.0014702474 	-2.576601405e-08 	0.003291504481 	-6.470087438e-08 	6.274522368e-06
0.9733100526 	0.003087758683 	0.001477055001 	-2.166827095e-08 	0.00328209939 	-8.406032686e-08 	6.256593649e-06
0.9774043036 	0.003090510484 	0.00147009776 	1.142388024e-08 	0.003243365332 	-3.348208945e-08 	6.182755769e-06
0.981028816 	0.003053593073 	0.001444679324 	6.545237604e-08 	0.003166591377 	7.407126088e-08 	6.036403272e-06
0.9842374086 	0.002950591823 	0.001389398111 	1.225629082e-07 	0.00302789133 	1.957015087e-07 	5.772002433e-06
0.9870777503 	0.002731289073 	0.001281802236 	1.465769151e-07 	0.002778099315 	2.582523587e-07 	5.295829428e-06
0.989592059 	0.002317657112 	0.001084041992 	1.061020795e-07 	0.002339698629 	1.944159884e-07 	4.460115872e-06
0.9918177227 	0.001690748481 	0.0007857458029 	3.65563425e-08 	0.001698102373 	5.060669198e-08 	3.237055085e-06
0.9932636011 	0.0009945280811 	0.0004314780463 	-1.407631748e-08 	0.0009970965804 	-4.571856413e-08 	1.900743211e-06
0.9947095902 	0.0004118831036 	0.0001423846322 	-1.873736949e-08 	0.0004127114178 	-3.862885666e-08 	7.867426696e-07
0.99615569 	8.939044032e-05 	1.871080479e-05 	-2.123152033e-09 	8.939505718e-05 	-3.599227217e-09 	1.704118251e-07
0.9976019004 	6.736713735e-06 	4.583550996e-07 	9.485494472e-11 	6.725755691e-06 	1.395692103e-09 	1.282115967e-08
0.9990482216 	6.447489965e-08 	4.550075861e-10 	4.632550491e-13 	6.435161674e-08 	5.000402518e-11 	1.226720671e-10
0.9990482216 	6.447489965e-08 	4.550075861e-10 	4.632550491e-13 	6.435161674e-08 	5.000402518e-11 	1.226720671e-10
