0.2971421875 	0.2366783176 	0.05288385207 	-0.0002688100056
0.2971421875 	0.2366783176 	0.05288385207 	-0.0002688100056
0.2984004715 	0.8996626048 	0.1978764133 	-0.0009850035822
0.2996588726 	1.617482119 	0.3533297947 	-0.001681647506
0.3009171386 	2.061458028 	0.4490844172 	-0.002028033904
0.3021750194 	2.320010589 	0.5036851561 	-0.002153037814
0.3034322672 	2.5040837 	0.5414981396 	-0.002153826272
0.3053659544 	2.64252999 	0.5680585511 	-0.002029914844
0.3075470768 	2.723664661 	0.5808022009 	-0.001857129345
0.3100052365 	2.763286146 	0.5836910188 	-0.001699802833
0.3127725449 	2.782515934 	0.5814672206 	-0.001559298352
0.3159581696 	2.792807055 	0.5764938125 	-0.001418650237
0.3195728889 	2.798884733 	0.5697145656 	-0.001272200177
0.3236393977 	2.802503171 	0.5615417181 	-0.001118155222
0.3282122583 	2.80429332 	0.5520697828 	-0.0009544277522
0.3334593818 	2.804366932 	0.5411285128 	-0.0007804312452
0.3394059475 	2.802380279 	0.527483558 	-0.0006002904785
0.3483965305 	2.798125971 	0.5100226339 	-0.0003685135163
0.3581269251 	2.791949141 	0.4906624144 	-0.0001555478876
0.3666486922 	2.786122834 	0.4745691635 	-0.0002395420917
0.3686062448 	2.784679763 	0.4708895476 	-3.046015666e-05
0.379768926 	2.776253252 	0.450815548 	-0.0001811094298
0.3918314255 	2.766995203 	0.4302868804 	-0.0003097558788
0.4049179264 	2.756837237 	0.4093369606 	-0.0004152019601
0.4190519956 	2.745713626 	0.3880597106 	-0.0004955780733
0.434325357 	2.733544291 	0.3665425544 	-0.0005505897757
0.450827461 	2.720226006 	0.3448431007 	-0.0005806072528
0.4686904931 	2.705657932 	0.3230229369 	-0.000587059445
0.4879732028 	2.689760688 	0.3011797574 	-0.0005192270781
0.5087551152 	2.672446974 	0.2793983403 	-0.000391403541
0.5311953169 	2.653597269 	0.2577316902 	-0.0002892782477
0.5553404792 	2.633063029 	0.2362539318 	-0.0002103829625
0.5813069819 	2.610616902 	0.2150215723 	-0.0001513708574
0.6092019685 	2.585933287 	0.194049119 	-0.0001085986216
0.6391328417 	2.559085949 	0.1736824748 	-7.870783922e-05
0.6690889292 	2.531185684 	0.1548822839 	-5.915441258e-05
0.6970675957 	2.503489816 	0.1382858802 	-4.666626331e-05
0.7231945774 	2.476326224 	0.1237174338 	-3.832495517e-05
0.7475921406 	2.449591773 	0.1108145632 	-3.245352242e-05
0.7703766453 	2.423195716 	0.09930418411 	-2.812974309e-05
0.7916578666 	2.397032533 	0.08896860319 	-2.481625525e-05
0.8115364187 	2.370997413 	0.07963234028 	-2.218119023e-05
0.8301065661 	2.345003637 	0.07115561225 	-2.002879835e-05
0.8474552181 	2.318968876 	0.06342568144 	-1.824329967e-05
0.8636633531 	2.292790696 	0.056346985 	-1.674386751e-05
0.8788061369 	2.266325746 	0.04984096944 	-1.542119386e-05
0.8929535143 	2.239321098 	0.04383598603 	-1.41957421e-05
0.906170736 	2.211401287 	0.03826455581 	-1.31194246e-05
0.9185186828 	2.182148775 	0.03308221001 	-1.222505558e-05
0.930054209 	2.151043874 	0.02825641464 	-1.145589607e-05
0.9408304396 	2.117294417 	0.02375391461 	-1.076968064e-05
0.9508970316 	2.082393161 	0.01982491161 	-1.016891529e-05
0.9575611767 	2.049904285 	0.01674818922 	-9.63432802e-06
0.9634614836 	2.018488778 	0.0142442338 	-9.154045789e-06
0.9686853062 	1.98496691 	0.01201483758 	-8.665252415e-06
0.9733100526 	1.948517159 	0.01002879279 	-8.147145697e-06
0.9774043036 	1.907997851 	0.00826110836 	-7.581325502e-06
0.981028816 	1.861763511 	0.006690646243 	-6.952501302e-06
0.9842374086 	1.807350445 	0.00530042742 	-6.235088847e-06
0.9870777503 	1.740688083 	0.004079831208 	-5.423511825e-06
0.989592059 	1.65420016 	0.003014902344 	-4.530570988e-06
0.9918177227 	1.542691725 	0.002150460259 	-3.593252868e-06
0.9932636011 	1.408355804 	0.001510147555 	-2.717871765e-06
0.9947095902 	1.220072884 	0.0009832969548 	-1.883838374e-06
0.99615569 	0.9191677905 	0.0004692562842 	-1.013042113e-06
0.9976019004 	0.4975406115 	-0.00016815704 	-2.27364805e-07
0.9990482216 	0.1457426399 	-0.0003052645343 	6.643114063e-08
0.9990482216 	0.1457426399 	-0.0003052645343 	6.643114063e-08
