0.3176601022 	0.2246538747 	0.04467812524 	-0.0002188769236
0.3188608126 	0.8554221556 	0.1672060694 	-0.0008067389003
0.3200616632 	1.548331988 	0.3004332792 	-0.001386173931
0.3212624417 	1.987411978 	0.3847037861 	-0.001687648442
0.3224629377 	2.250043276 	0.4343282424 	-0.001824400001
0.3236629424 	2.447003612 	0.4709226829 	-0.001883811068
0.3255088723 	2.609887416 	0.500060055 	-0.001845827534
0.327591533 	2.719060672 	0.5176781783 	-0.00172901582
0.3299395659 	2.779278597 	0.5248889036 	-0.001591531738
0.3325842128 	2.809818096 	0.5256439981 	-0.001466840049
0.3356287836 	2.825260128 	0.5228204393 	-0.001350477656
0.3390846671 	2.833645808 	0.5179036949 	-0.001232768976
0.3429748198 	2.838494802 	0.5115345517 	-0.001110646879
0.3473522547 	2.841166089 	0.5039579983 	-0.0009825252715
0.3523763078 	2.842085572 	0.4951907463 	-0.000843222153
0.3580735657 	2.841020051 	0.484171943 	-0.0006934196768
0.3666947432 	2.837347942 	0.469724236 	-0.0004991442901
0.3760330498 	2.831115402 	0.4533579545 	-0.0003166889362
0.3861248366 	2.823429704 	0.4364207425 	-0.0001497172198
0.3969939915 	2.814753852 	0.4190205764 	-6.128688911e-07
0.3970449088 	2.814712453 	0.4189426295 	-5.13673021e-06
0.40862673 	2.804916036 	0.4012717654 	-0.0001207498376
0.4212554461 	2.794130088 	0.383034205 	-0.0002257398138
0.4349065359 	2.782336733 	0.3643767426 	-0.0003123829813
0.4496703284 	2.769464909 	0.3453656545 	-0.0003798296126
0.465635286 	2.755422234 	0.3260444685 	-0.000427638989
0.4829304922 	2.740120277 	0.3064620964 	-0.000456130245
0.5016158678 	2.72349318 	0.2867015942 	-0.0004660261969
0.5217709233 	2.705464136 	0.266839551 	-0.0004590010998
0.5435505126 	2.685922764 	0.2469265457 	-0.000396012177
0.5670029 	2.664730259 	0.2270343778 	-0.0003090821252
0.592242101 	2.641674597 	0.207221591 	-0.000240058007
0.6193729967 	2.616451077 	0.1875094711 	-0.0001864651651
0.6485002409 	2.589160709 	0.1682347038 	-0.0001460323644
0.6776651358 	2.560941789 	0.1503308409 	-0.0001173133229
0.7049135212 	2.533059001 	0.1344412292 	-9.743590536e-05
0.7303637708 	2.505827888 	0.1204317798 	-8.318386889e-05
0.7541322613 	2.479123223 	0.1079774742 	-7.250190505e-05
0.7763305871 	2.452835069 	0.09683135289 	-6.417015233e-05
0.7970645851 	2.426849566 	0.08679544434 	-5.743081131e-05
0.8164316561 	2.401057659 	0.07770950621 	-5.179381542e-05
0.8345233061 	2.375364348 	0.06944458396 	-4.695111918e-05
0.8514240754 	2.349680113 	0.0618951927 	-4.271573564e-05
0.8672128418 	2.323907709 	0.05497111455 	-3.897358125e-05
0.8819628947 	2.297921424 	0.04860134718 	-3.557758666e-05
0.8957424737 	2.271464239 	0.04271958328 	-3.242563547e-05
0.9086152595 	2.244120032 	0.03725747696 	-2.952469638e-05
0.9206406786 	2.21544229 	0.0321719688 	-2.682091114e-05
0.9318742292 	2.184912859 	0.02743357309 	-2.426969909e-05
0.942367767 	2.151747695 	0.02301044633 	-2.187203365e-05
0.952169758 	2.117395985 	0.01915099012 	-1.973637744e-05
0.9586584556 	2.085350289 	0.01613074536 	-1.794971681e-05
0.9644032374 	2.05427432 	0.0136754701 	-1.627766999e-05
0.9694892196 	2.020989839 	0.01149259042 	-1.456470883e-05
0.9739918181 	1.984621589 	0.009552229911 	-1.296104033e-05
0.9779778424 	1.943951511 	0.007830480059 	-1.142751427e-05
0.9815064743 	1.897228941 	0.00630696195 	-9.938363408e-06
0.9846301336 	1.841851192 	0.004966196845 	-8.447585914e-06
0.9873952463 	1.773453555 	0.003797573415 	-6.955680825e-06
0.9898429272 	1.684002438 	0.002786121874 	-5.490421528e-06
0.9920095855 	1.568409388 	0.001974142152 	-4.122429692e-06
0.9934171184 	1.429534522 	0.001379728828 	-2.986103459e-06
0.9948247484 	1.236031222 	0.0008945344517 	-1.996368338e-06
0.9962324756 	0.9292479799 	0.0004226407535 	-1.023737088e-06
0.9976403 	0.5021486382 	-0.000174872327 	-6.553960577e-08
0.9990482216 	0.1469160637 	-0.0002985078916 	2.285702468e-07
0.9990482216 	0.1469160637 	-0.0002985078916 	2.285702468e-07
