0 	0.03437621114 	-2.334657231e-15 	-8.485861102e-22 	1.58558032e-28 	5.763164796e-35 	2.094757865e-41
0 	0.03437621114 	-2.334657231e-15 	-8.485861102e-22 	1.58558032e-28 	5.763164796e-35 	2.094757865e-41
0.001889880757 	0.03433341806 	-0.0002606427382 	-3.598551176e-07 	0.04338442063 	-3.845811905e-05 	8.270276379e-05
0.003779741465 	0.03433366299 	-0.0008295544194 	5.718867123e-07 	0.04375300088 	-3.899001284e-05 	8.34053802e-05
0.005669582045 	0.03438667652 	-0.001258771467 	9.363420379e-07 	0.04381905333 	-3.850098039e-05 	8.353129453e-05
0.007559402482 	0.03441956041 	-0.001679696768 	1.252485585e-06 	0.04388902904 	-3.799202206e-05 	8.366468767e-05
0.009449202822 	0.03448085657 	-0.002156770629 	1.586686896e-06 	0.04394596531 	-3.739526731e-05 	8.377322402e-05
0.0123584479 	0.03458294148 	-0.002766936929 	1.986143648e-06 	0.04403408126 	-3.646892018e-05 	8.394119753e-05
0.01564534699 	0.0347370525 	-0.00349604194 	2.443559197e-06 	0.04417259158 	-3.546433158e-05 	8.420523668e-05
0.01935891766 	0.03495269238 	-0.004319192403 	2.926691828e-06 	0.04436470804 	-3.436238306e-05 	8.457146406e-05
0.02357816231 	0.03524823852 	-0.005246551821 	3.423032621e-06 	0.0446268269 	-3.314095226e-05 	8.507113546e-05
0.02835083071 	0.0356455556 	-0.006287666756 	3.921259222e-06 	0.04497726817 	-3.180153135e-05 	8.573917391e-05
0.0337430193 	0.03616954335 	-0.007453029631 	4.409670372e-06 	0.04543694833 	-3.033436527e-05 	8.661545206e-05
0.03983513139 	0.03684971293 	-0.008754029685 	4.868417064e-06 	0.04602953761 	-2.872005932e-05 	8.774509193e-05
0.04675897752 	0.03771782359 	-0.01020173263 	5.268001982e-06 	0.04677849526 	-2.691067489e-05 	8.917281337e-05
0.05458402359 	0.03880121538 	-0.01179788357 	5.569902589e-06 	0.04770150599 	-2.489387283e-05 	9.093232836e-05
0.06344293631 	0.04025391058 	-0.01370137653 	5.79229358e-06 	0.04891057657 	-2.262008072e-05 	9.323715293e-05
0.07687936455 	0.04219154374 	-0.01600713874 	5.605607719e-06 	0.05046067224 	-1.90685953e-05 	9.619206611e-05
0.09132747402 	0.04434928741 	-0.0184103501 	5.056791504e-06 	0.05206812771 	-1.518778392e-05 	9.9256323e-05
0.1068517842 	0.04635430729 	-0.02061073625 	4.079286887e-06 	0.05335051868 	-1.102305904e-05 	0.0001017009166
0.1235382128 	0.04786286216 	-0.02242481818 	2.753352071e-06 	0.05394873745 	-6.809574692e-06 	0.0001028412879
0.1414763202 	0.04843351908 	-0.02360207563 	1.296420726e-06 	0.05343401354 	-3.000045112e-06 	0.000101860081
0.1607597829 	0.04756701526 	-0.02383803403 	9.505007799e-08 	0.05136980451 	-2.153099899e-07 	9.79251249e-05
0.1630177224 	0.04727062264 	-0.02373067899 	1.940196e-05 	0.05094473863 	-5.027895075e-05 	9.711483118e-05
0.1814869171 	0.04483086255 	-0.02284421902 	4.118887733e-07 	0.04745269369 	-1.095075029e-06 	9.045802297e-05
0.203761246 	0.04013071782 	-0.02051443667 	7.88922422e-08 	0.0417420298 	-9.910067089e-07 	7.957191039e-05
0.22769211 	0.03399680381 	-0.01714238997 	-4.46760228e-07 	0.03488645343 	-5.686190279e-07 	6.650327643e-05
0.2533953163 	0.02756924746 	-0.01342792013 	-4.146390632e-07 	0.02802710887 	-7.637623922e-07 	5.342745923e-05
0.2809948866 	0.02204987585 	-0.01012345579 	2.035700468e-07 	0.02227258332 	-1.440011213e-06 	4.245773416e-05
0.3106333302 	0.01805574971 	-0.007627520521 	9.989006336e-07 	0.01814199555 	-2.02915804e-06 	3.458368583e-05
0.3424387954 	0.01545169867 	-0.005898761504 	1.757177991e-06 	0.01543467498 	-2.305530498e-06 	2.942278035e-05
0.3765679891 	0.01372355454 	-0.004652648504 	2.427864335e-06 	0.01359230471 	-2.180867537e-06 	2.591071056e-05
0.4131763284 	0.01248286512 	-0.003585264789 	2.960798421e-06 	0.01220272197 	-1.603721839e-06 	2.326177964e-05
0.4524319133 	0.01164872072 	-0.002486164433 	3.332645763e-06 	0.01118131666 	-7.277570029e-07 	2.131469725e-05
0.4945150618 	0.01129368394 	-0.001270255547 	3.533414593e-06 	0.0106130084 	1.802136406e-07 	2.023134375e-05
0.5366248026 	0.0114237039 	8.766783732e-06 	3.533616941e-06 	0.01053405278 	9.385787142e-07 	2.008083238e-05
0.5759561429 	0.01191882647 	0.001247725579 	3.365675357e-06 	0.01085611581 	1.491085699e-06 	2.069477403e-05
0.6126864062 	0.01264855787 	0.002400638402 	3.123043392e-06 	0.01146217407 	1.855742245e-06 	2.185008952e-05
0.6469841783 	0.0135312916 	0.003466218691 	2.898813058e-06 	0.01226668763 	2.093716833e-06 	2.338371598e-05
0.6790086872 	0.0145277335 	0.004465346145 	2.743223985e-06 	0.01321779855 	2.283204931e-06 	2.519679774e-05
0.7089097018 	0.01562556451 	0.005427164188 	2.658109693e-06 	0.01429197005 	2.484941081e-06 	2.724446717e-05
0.7368272602 	0.01682517019 	0.006377248613 	2.618615604e-06 	0.01548324643 	2.73188974e-06 	2.951537103e-05
0.7628926911 	0.01812994214 	0.007331072446 	2.579867057e-06 	0.01679308944 	3.032840641e-06 	3.201229587e-05
0.7872286785 	0.0195385512 	0.008289016418 	2.463025556e-06 	0.01822264225 	3.386571758e-06 	3.473742085e-05
0.8099498676 	0.02104046045 	0.009241509592 	2.348642446e-06 	0.01976556191 	3.740107623e-06 	3.767865456e-05
0.8311633612 	0.02262072939 	0.01016494579 	1.718055717e-06 	0.02140569887 	4.055335991e-06 	4.080521146e-05
0.8509691787 	0.02426664586 	0.01101288226 	1.197877611e-06 	0.0231232435 	4.319052897e-06 	4.407932888e-05
0.8694607163 	0.02596061553 	0.01181733095 	1.326047412e-06 	0.02489222648 	4.455489773e-06 	4.74515021e-05
0.8867251805 	0.02762840858 	0.01261212859 	1.245365528e-06 	0.02664443831 	4.181747303e-06 	5.079170485e-05
0.9028439947 	0.02909532972 	0.01332118093 	7.373022375e-07 	0.02822575727 	3.051583894e-06 	5.38061383e-05
0.9178931816 	0.03010256103 	0.01382900742 	-2.749621025e-07 	0.02939878645 	8.716947504e-07 	5.604225795e-05
0.9319437194 	0.03039474138 	0.01401395541 	-1.490626318e-06 	0.0298960246 	-1.76752354e-06 	5.699013205e-05
0.9412411842 	0.03007058596 	0.01383624002 	-3.161536926e-06 	0.02976144545 	-4.021114037e-06 	5.673358679e-05
0.9494702593 	0.02937248609 	0.01336643882 	-4.406075506e-06 	0.02921399413 	-5.731487884e-06 	5.568999243e-05
0.9567537154 	0.02837325369 	0.01273493226 	-4.751923478e-06 	0.02833339312 	-6.997830364e-06 	5.401132215e-05
0.9632002153 	0.02713902956 	0.01202074182 	-4.966041681e-06 	0.02718665997 	-7.820434975e-06 	5.182533005e-05
0.9689059355 	0.02572256832 	0.01124586464 	-4.890595577e-06 	0.02582643594 	-8.212743228e-06 	4.923236499e-05
0.9739560002 	0.02416144895 	0.01044380107 	-4.579330876e-06 	0.02429140722 	-8.218325779e-06 	4.630617362e-05
0.9784257521 	0.02247190993 	0.009638000292 	-4.085695477e-06 	0.02260190837 	-7.882450345e-06 	4.308551923e-05
0.9823818762 	0.02064083456 	0.008837831989 	-3.461194922e-06 	0.02075086199 	-7.235532746e-06 	3.955691036e-05
0.9858833943 	0.01860335056 	0.008066799337 	-2.757820948e-06 	0.01868092734 	-6.285642151e-06 	3.56110396e-05
0.9889825462 	0.0162581342 	0.007128328113 	-2.063731337e-06 	0.01630076742 	-5.113218806e-06 	3.107379326e-05
0.9909956813 	0.01359107371 	0.006041499823 	-1.473711839e-06 	0.013606464 	-3.867160878e-06 	2.593770211e-05
0.9930088164 	0.009637496555 	0.004252875583 	-8.958462263e-07 	0.00963710059 	-2.487945515e-06 	1.837099222e-05
0.9950219514 	0.003910077539 	0.001569066589 	-3.028741945e-07 	0.003906699552 	-9.712128563e-07 	7.447255157e-06
0.9970350865 	0.0003679936778 	7.650223791e-05 	-1.351408855e-08 	0.0003673981243 	-1.05020254e-07 	7.00362938e-07
0.9990482216 	2.644095033e-06 	5.443522096e-08 	-4.234614848e-12 	2.639093339e-06 	-7.613861833e-10 	5.030845402e-09
0.9990482216 	2.644095033e-06 	5.443522096e-08 	-4.234614848e-12 	2.639093339e-06 	-7.613861833e-10 	5.030845402e-09
