/*--------------------------------*- C++ -*----------------------------------*\
  =========                 |
  \\      /  F ield         | OpenFOAM: The Open Source CFD Toolbox
   \\    /   O peration     | Website:  https://openfoam.org
    \\  /    A nd           | Version:  7
     \\/     M anipulation  |
\*---------------------------------------------------------------------------*/
FoamFile
{
    version     2.0;
    format      ascii;
    class       volSymmTensorField;
    location    "2000";
    object      R;
}
// * * * * * * * * * * * * * * * * * * * * * * * * * * * * * * * * * * * * * //

dimensions      [0 2 -2 0 0 0 0];

internalField   nonuniform List<symmTensor> 
15296
(
(0.0011696831 8.9951885e-06 6.2733214e-15 0.0011145594 1.0768763e-16 0.0011033906)
(0.0011272673 3.9108443e-06 3.1784677e-15 0.0011250268 2.177714e-16 0.0011245433)
(0.0011187187 3.4775448e-06 2.8935921e-20 0.0011234862 -2.709048e-17 0.0011242184)
(0.0011115759 3.1748171e-06 3.262298e-15 0.0011215809 1.4766708e-16 0.0011231827)
(0.0011049699 2.8958932e-06 -6.08792e-19 0.0011196121 1.7433321e-17 0.0011219582)
(0.0011003545 2.6502033e-06 6.7019364e-15 0.0011170017 1.9100456e-16 0.0011196415)
(0.001097068 2.5324675e-06 3.3978531e-15 0.0011139909 2.5638227e-17 0.0011166335)
(0.0010944508 2.3776914e-06 1.9403193e-18 0.0011108253 3.6594428e-18 0.0011133335)
(0.0010922754 2.2624139e-06 1.0712571e-19 0.0011075856 -1.0095018e-16 0.0011098764)
(0.0010903793 2.2627147e-06 3.5398306e-15 0.0011043288 1.4956957e-16 0.0011063575)
(0.0010886075 2.1304338e-06 1.2796473e-19 0.0011011106 -3.8089957e-17 0.0011028665)
(0.0010868662 2.1763736e-06 -1.2281316e-19 0.0010979636 -2.4741603e-17 0.0010994564)
(0.0010851159 2.0732431e-06 -3.6947025e-15 0.0010948994 -2.469111e-16 0.0010961475)
(0.0010833416 2.0593356e-06 3.7468279e-15 0.0010919212 2.5190901e-16 0.0010929446)
(0.001081552 2.0533492e-06 5.1191523e-19 0.0010890223 -8.4817131e-17 0.0010898391)
(0.0010797693 2.0571718e-06 3.8560454e-15 0.0010861918 1.9567168e-16 0.0010868141)
(0.0010780298 2.0768386e-06 3.9145846e-15 0.0010834115 8.0622163e-17 0.0010838432)
(0.0010763814 2.0371783e-06 3.9722681e-15 0.0010806613 1.7223097e-16 0.0010808953)
(0.0010748897 2.1227786e-06 5.5265951e-19 0.0010779126 -3.392872e-17 0.0010779279)
(0.0010736442 2.1027394e-06 1.0390956e-18 0.0010751274 -5.5427647e-17 0.0010748844)
(0.0010727646 2.2691187e-06 -1.2340548e-18 0.0010722562 -2.8553424e-16 0.0010716903)
(0.001072424 2.3315736e-06 -2.3698271e-18 0.0010692271 1.2390554e-17 0.0010682391)
(0.0010728635 2.5430115e-06 4.2851482e-15 0.0010659423 2.1703792e-16 0.0010643838)
(0.0010744386 2.8526604e-06 -4.3483623e-15 0.0010622577 -2.4837913e-16 0.0010599092)
(0.001077677 3.4529973e-06 9.1644739e-20 0.0010579611 -6.1531703e-17 0.0010544977)
(0.0010833509 4.1885061e-06 -8.9762157e-15 0.0010527451 -1.9749578e-16 0.0010476851)
(0.0010926509 5.3388331e-06 -4.5609508e-15 0.0010461418 -2.3048384e-16 0.0010387581)
(0.0011073821 7.1736052e-06 -6.9095314e-19 0.001037451 -2.1910465e-17 0.0010266372)
(0.0011304942 9.7960277e-06 6.8143016e-19 0.0010255636 -2.0595437e-18 0.0010095581)
(0.0011665216 1.3727164e-05 -4.785255e-15 0.0010088067 -8.1642814e-17 0.00098477666)
(0.0012239278 1.9541074e-05 -7.8703185e-19 0.00098430456 8.9890109e-17 0.00094713807)
(0.0013159182 2.7982638e-05 -1.9219896e-18 0.00094816735 2.4650346e-17 0.00088852988)
(0.0014736541 4.0221799e-05 -1.0074849e-14 0.00089366178 8.6630977e-16 0.00078892112)
(0.0016190129 5.035164e-05 -4.1842832e-15 0.0008508202 9.46934e-16 0.0007081029)
(0.0016491112 5.3058507e-05 1.2320339e-18 0.00084411525 -1.0278947e-16 0.00073899658)
(0.0016741989 5.8065633e-05 -6.0887541e-18 0.00081596301 -6.4896201e-17 0.00078804905)
(0.0019402098 6.1005019e-05 7.7583685e-16 0.00087954768 8.584507e-16 0.00098787274)
(0.001474525 -0.00010534574 -2.6075714e-16 0.00059908177 -1.9022318e-15 0.00090847943)
(0.0011672613 2.0087378e-05 6.0834193e-19 0.0011121193 5.5745967e-17 0.0011083723)
(0.0011271866 9.4185029e-06 -1.0597898e-15 0.0011249729 -1.2038717e-17 0.0011247933)
(0.0011186764 8.0967089e-06 1.0728113e-15 0.0011238854 7.1639641e-17 0.001123984)
(0.0011114776 7.5804012e-06 -5.4987278e-19 0.0011223682 7.8928842e-17 0.0011226198)
(0.001104814 7.1115272e-06 -1.7058976e-18 0.0011207364 -7.0755774e-18 0.0011211188)
(0.0011001688 6.7340892e-06 -1.1406932e-18 0.0011182633 1.4385516e-16 0.0011186971)
(0.0010968709 6.4516484e-06 1.121501e-18 0.0011152604 1.2034234e-16 0.0011156947)
(0.001094251 6.2303492e-06 5.5124599e-18 0.0011120416 6.9985062e-18 0.0011124528)
(0.0010920822 6.1129158e-06 -1.1620914e-15 0.0011087095 -9.0303152e-17 0.0011090833)
(0.0010901942 5.9476665e-06 -1.181473e-15 0.0011053409 -5.309764e-17 0.0011056696)
(0.0010884338 5.8491351e-06 -1.1990035e-15 0.0011020048 -1.8494498e-16 0.0011022866)
(0.0010867041 5.7274013e-06 2.4254349e-15 0.0010987436 6.0864259e-17 0.0010989803)
(0.0010849634 5.6578485e-06 1.2301333e-15 0.0010955739 5.1002214e-18 0.0010957686)
(0.0010832004 5.509669e-06 1.2520262e-15 0.0010924974 1.2154367e-16 0.0010926536)
(0.0010814201 5.5005545e-06 -1.2664775e-15 0.0010895087 -1.4359411e-16 0.0010896296)
(0.0010796462 5.3665737e-06 1.2852561e-15 0.0010865935 1.4131345e-16 0.0010866811)
(0.0010779147 5.3813576e-06 1.3077548e-15 0.0010837307 1.0147603e-16 0.0010837857)
(0.0010762766 5.2378778e-06 -3.0983896e-19 0.0010808935 1.1532146e-16 0.0010809148)
(0.0010747966 5.2483653e-06 -1.3450779e-15 0.0010780483 -1.0407371e-17 0.0010780324)
(0.0010735676 5.1587489e-06 1.365579e-15 0.0010751478 9.9458235e-17 0.0010750882)
(0.0010727104 5.1451802e-06 -3.7334666e-18 0.0010721312 -5.6199557e-17 0.0010720173)
(0.0010724008 5.0693009e-06 -2.80317e-18 0.001068911 7.0287795e-17 0.0010687265)
(0.0010728882 4.9653804e-06 3.3752119e-18 0.0010653646 5.2471305e-17 0.0010650852)
(0.0010745335 4.9994027e-06 2.9766917e-18 0.0010613154 -6.9265547e-17 0.0010609052)
(0.0010778721 5.0014066e-06 -1.4724212e-15 0.0010565028 -1.1361104e-16 0.0010559093)
(0.001083691 4.9336699e-06 -1.4990562e-15 0.0010505464 -6.9222131e-17 0.0010496921)
(0.0010932061 4.9303096e-06 1.5171287e-15 0.0010428614 9.2597385e-17 0.0010416309)
(0.0011082463 4.9293592e-06 1.5449381e-15 0.0010325747 6.4977378e-17 0.0010307958)
(0.0011318007 4.8285978e-06 1.8590062e-18 0.0010182771 1.6058867e-17 0.0010156826)
(0.0011684464 4.5980884e-06 1.5949786e-15 0.00099780778 -9.5518742e-17 0.00099398977)
(0.0012266727 3.9510879e-06 1.6204795e-15 0.00096727106 1.131693e-16 0.00096155144)
(0.0013195521 2.3712919e-06 1.6512404e-15 0.00092089688 1.3554339e-16 0.00091224564)
(0.00147754 -9.1191455e-07 7.0542527e-18 0.00084598072 1.5961556e-16 0.00083265227)
(0.0016278191 -5.3747456e-06 -1.4060046e-15 0.00078290126 -3.0025079e-17 0.00076687041)
(0.0016554812 -8.3769854e-06 -2.4555437e-18 0.00079380805 1.6019022e-17 0.00078239536)
(0.0016777407 -7.7111899e-06 -5.6807516e-18 0.00080021465 -9.02974e-17 0.00079724028)
(0.0019507379 -2.9052862e-05 1.6439282e-17 0.00092330833 5.1191254e-17 0.00093612058)
(0.0012795205 -0.00023634092 -7.0599168e-17 0.00055187081 -6.6627334e-16 0.0009849361)
(0.0011638717 3.0937759e-05 8.965606e-19 0.0011139092 3.0078486e-17 0.001110224)
(0.0011269717 1.575489e-05 6.3653811e-16 0.0011252553 1.3071065e-17 0.0011249766)
(0.0011187581 1.3255675e-05 -1.2886071e-15 0.0011240129 3.6790383e-17 0.0011240347)
(0.0011116197 1.230968e-05 -1.3083488e-15 0.0011224982 -2.0880404e-17 0.0011226117)
(0.0011049959 1.1574673e-05 6.5999528e-16 0.0011208771 5.0388233e-17 0.0011210633)
(0.0011003692 1.102482e-05 -6.7058533e-16 0.0011184055 3.6771314e-17 0.0011186239)
(0.0010970769 1.0586386e-05 5.9249879e-20 0.0011153982 1.124961e-16 0.0011156221)
(0.001094458 1.0235192e-05 -6.8349969e-16 0.0011121716 9.8083477e-18 0.0011123885)
(0.0010922822 9.9687536e-06 -1.3955388e-15 0.0011088323 -1.2854362e-16 0.0011090345)
(0.0010903862 9.765155e-06 -7.1171365e-16 0.0011054551 -9.9565259e-17 0.0011056381)
(0.0010886171 9.5602912e-06 -7.5544764e-19 0.0011021106 -1.8244743e-16 0.0011022729)
(0.0010868786 9.3387448e-06 -7.3017656e-16 0.0010988415 -1.2554053e-17 0.0010989837)
(0.0010851298 9.2829257e-06 -2.1160482e-18 0.0010956642 -3.3555873e-17 0.0010957876)
(0.0010833593 9.0785322e-06 -7.4832662e-16 0.0010925809 6.3998652e-17 0.001092687)
(0.001081572 8.9748656e-06 7.6294074e-16 0.0010895859 -1.1325017e-16 0.0010896761)
(0.0010797913 8.84525e-06 1.9480017e-18 0.0010866648 1.1916003e-16 0.0010867399)
(0.0010780528 8.7630703e-06 -7.7953194e-16 0.0010837963 5.4351571e-17 0.0010838564)
(0.0010764058 8.6058329e-06 -7.9696222e-16 0.0010809544 1.4442491e-17 0.0010809988)
(0.0010749167 8.5358428e-06 -8.0790936e-16 0.0010781038 -6.2850577e-17 0.0010781303)
(0.0010736732 8.4134947e-06 -8.178159e-16 0.0010751991 -2.2062886e-17 0.0010752038)
(0.0010727973 8.2724766e-06 -6.5754282e-18 0.0010721779 -9.2165321e-17 0.0010721547)
(0.0010724605 8.2308597e-06 1.6847416e-15 0.0010689543 1.2780604e-16 0.0010688937)
(0.0010729113 8.0707218e-06 8.6137904e-16 0.0010654037 9.7107251e-17 0.0010652917)
(0.0010745025 8.0123802e-06 -8.6775781e-16 0.0010613515 -9.7499389e-17 0.0010611673)
(0.001077759 7.849191e-06 8.8586785e-16 0.001056539 -2.5407049e-17 0.0010562521)
(0.001083461 7.7449801e-06 -8.9902408e-16 0.0010505835 -6.7517183e-17 0.0010501491)
(0.0010928022 7.652443e-06 -9.1657691e-16 0.0010429033 1.2899883e-17 0.0010422551)
(0.0011075825 7.4876763e-06 9.2591078e-16 0.0010326268 1.3109643e-16 0.0010316669)
(0.0011307496 7.3159216e-06 9.085572e-19 0.0010183426 -1.3652667e-17 0.0010169234)
(0.0011668122 6.9881641e-06 1.0181367e-19 0.00099788763 -6.8085728e-17 0.00099579218)
(0.0012241699 6.6127012e-06 -9.7356965e-16 0.00096732881 5.3987695e-18 0.00096422693)
(0.0013157966 5.978682e-06 9.9139957e-16 0.0009208055 1.2513732e-16 0.00091627149)
(0.001472301 5.2583488e-06 -1.0015436e-15 0.00084513684 -1.590762e-16 0.00083875058)
(0.0016277581 3.378618e-06 2.3652311e-18 0.00077870597 -3.3592486e-16 0.00077083776)
(0.0016553112 -5.7012179e-07 -4.5501261e-18 0.00079240029 -2.649848e-17 0.0007834023)
(0.0016763142 1.371715e-06 5.2997911e-16 0.00080370988 8.0737106e-17 0.00079213174)
(0.001951016 -2.7689576e-05 1.5440254e-16 0.00093982066 1.8726335e-16 0.00091911195)
(0.0011843413 -0.00018701493 -2.3698149e-18 0.00048519707 -3.0106251e-16 0.00090411686)
(0.0011613932 4.0581972e-05 2.0760446e-18 0.0011153499 1.7129103e-17 0.0011116333)
(0.0011267097 2.2318434e-05 -4.5405668e-16 0.001125659 1.405426e-17 0.0011252157)
(0.00111881 1.8504583e-05 -9.7842867e-19 0.0011242217 -2.3368149e-17 0.0011241642)
(0.0011117004 1.704926e-05 -2.3655307e-18 0.0011227116 -2.3539804e-17 0.0011227121)
(0.0011050765 1.6096283e-05 -1.9806202e-18 0.0011211146 5.5789499e-17 0.0011211422)
(0.0011004509 1.5311833e-05 4.7962194e-16 0.0011186524 2.6665542e-17 0.0011186943)
(0.0010971607 1.4740804e-05 4.5009844e-19 0.0011156448 6.2392307e-17 0.0011156924)
(0.001094544 1.4326168e-05 4.9815353e-16 0.0011124132 5.4285528e-17 0.001112462)
(0.0010923741 1.3893275e-05 5.012344e-16 0.0011090646 -1.2575684e-16 0.0011091119)
(0.0010904819 1.3590153e-05 -5.1085353e-16 0.0011056777 -8.7050824e-17 0.0011057217)
(0.0010887151 1.3273931e-05 5.1287949e-16 0.0011023234 -7.5524202e-17 0.0011023634)
(0.0010869829 1.308125e-05 -1.079467e-18 0.0010990428 -5.4699632e-17 0.0010990786)
(0.0010852373 1.2828873e-05 -5.3020174e-16 0.0010958562 -6.3251579e-17 0.0010958879)
(0.0010834683 1.2651968e-05 5.3818934e-16 0.0010927647 1.0946219e-17 0.0010927926)
(0.0010816847 1.24806e-05 -5.400895e-16 0.001089761 -3.0779354e-17 0.0010897853)
(0.0010799063 1.2305527e-05 -1.0995252e-15 0.0010868322 3.7713308e-17 0.0010868531)
(0.0010781683 1.2152762e-05 3.9907189e-18 0.0010839568 1.6620245e-17 0.0010839741)
(0.0010765231 1.2022366e-05 -3.8526301e-18 0.0010811069 8.9819466e-18 0.0010811205)
(0.0010750346 1.1805027e-05 5.7466618e-16 0.0010782482 -1.8964736e-17 0.0010782575)
(0.0010737906 1.1720317e-05 -1.1692651e-15 0.0010753343 -1.0309886e-16 0.0010753383)
(0.0010729162 1.1491319e-05 -6.7584177e-18 0.0010723008 -1.6030179e-16 0.0010722978)
(0.0010725789 1.1409455e-05 -3.0699038e-18 0.0010690621 6.6286885e-17 0.0010690497)
(0.0010730265 1.127062e-05 -6.0989974e-16 0.0010654926 1.0075811e-16 0.0010654671)
(0.0010746136 1.106392e-05 1.2477979e-15 0.0010614142 -4.2041691e-17 0.0010613703)
(0.0010778645 1.0929639e-05 -1.2614811e-15 0.0010565647 -2.3827688e-17 0.0010564944)
(0.0010835564 1.0704383e-05 -1.8570151e-18 0.0010505581 -6.9094108e-17 0.0010504496)
(0.0010928774 1.0492803e-05 6.4897876e-16 0.0010428072 -2.1085298e-17 0.0010426428)
(0.001107623 1.0193099e-05 6.6103247e-16 0.0010324313 1.2455367e-16 0.0010321843)
(0.0011307274 9.8601037e-06 -6.6120717e-19 0.0010180079 -1.2099463e-17 0.001017637)
(0.0011666728 9.3538519e-06 -1.2276828e-19 0.00099736288 -5.1834258e-17 0.0009968039)
(0.0012238083 8.5883735e-06 1.5984942e-18 0.0009665512 -6.2118096e-17 0.00096569453)
(0.001314934 7.1637728e-06 7.0726547e-16 0.00091977555 6.5124561e-17 0.00091843986)
(0.0014702563 4.9045787e-06 7.2463735e-16 0.00084412548 -1.1957718e-16 0.00084191347)
(0.0016276886 6.0579519e-07 -6.1109311e-16 0.0007762908 -3.3833756e-16 0.00077312819)
(0.0016550369 -5.1166504e-06 -3.6049464e-16 0.00078927355 -1.0114078e-16 0.00078628014)
(0.0016750416 -2.8316183e-06 1.8497177e-16 0.00079925469 1.6171308e-16 0.0007953071)
(0.0019472219 -3.8813153e-05 1.105868e-16 0.00093496042 4.0912592e-16 0.00092164168)
(0.0012184591 -0.00017200625 -4.8407008e-19 0.00048855256 -9.9175203e-17 0.0009058257)
(0.0011590762 4.9167965e-05 2.75576e-18 0.0011170606 1.556581e-17 0.0011127258)
(0.0011264171 2.8966175e-05 -3.5373402e-16 0.0011261482 -4.2261498e-17 0.0011255299)
(0.0011188788 2.3753945e-05 -1.1228051e-18 0.0011244803 -2.9287818e-17 0.0011243562)
(0.0011118347 2.187698e-05 3.610232e-16 0.0011229241 5.7099174e-17 0.0011228885)
(0.0011052272 2.0629819e-05 3.660395e-16 0.0011213181 6.8097218e-17 0.0011213141)
(0.0011006078 1.9614389e-05 -3.7250211e-16 0.0011188524 4.851353e-17 0.001118865)
(0.0010973243 1.8877986e-05 -3.772453e-16 0.0011158404 4.1569478e-17 0.0011158613)
(0.0010947099 1.8323649e-05 3.8872199e-16 0.0011126063 1.1715114e-16 0.0011126317)
(0.001092539 1.7846308e-05 3.8919767e-16 0.0011092563 -1.0713047e-16 0.0011092833)
(0.0010906482 1.7403091e-05 3.8930134e-16 0.0011058667 -2.9495965e-17 0.0011058935)
(0.001088884 1.707807e-05 3.9913053e-16 0.001102509 -3.6197919e-18 0.0011025346)
(0.0010871503 1.6773498e-05 -1.6328613e-18 0.0010992271 -3.8934672e-17 0.0010992511)
(0.0010854043 1.6467251e-05 -1.995381e-18 0.0010960384 -5.4397713e-17 0.0010960607)
(0.0010836374 1.6221989e-05 4.2046826e-16 0.0010929437 7.5923769e-18 0.0010929642)
(0.0010818518 1.5980303e-05 -4.1841898e-16 0.0010899387 -3.8461253e-17 0.0010899575)
(0.0010800724 1.5785379e-05 -4.2427649e-16 0.0010870081 -4.2020158e-17 0.0010870251)
(0.0010783348 1.5560851e-05 -1.3014252e-15 0.0010841303 -9.9743646e-17 0.0010841453)
(0.0010766857 1.5403118e-05 -8.8901441e-16 0.0010812799 1.5372325e-17 0.0010812928)
(0.0010751954 1.5130223e-05 -4.5275345e-16 0.0010784194 -2.7212103e-17 0.0010784296)
(0.0010739481 1.5020919e-05 -4.5561266e-16 0.0010755044 -1.0647235e-16 0.0010755111)
(0.001073067 1.4798766e-05 4.5503639e-16 0.0010724712 -1.1015209e-16 0.0010724732)
(0.0010727235 1.4626555e-05 -1.386381e-18 0.0010692322 1.7185082e-17 0.0010692275)
(0.0010731583 1.4425423e-05 -1.4269535e-15 0.0010656652 1.461644e-17 0.001065651)
(0.0010747294 1.420594e-05 2.8047696e-18 0.0010615902 8.5441222e-18 0.0010615624)
(0.0010779548 1.4006096e-05 4.9442314e-16 0.0010567481 -6.8155455e-17 0.0010567003)
(0.0010836073 1.372357e-05 -1.7179776e-18 0.0010507543 -5.6131875e-17 0.0010506772)
(0.0010928712 1.3442704e-05 1.0126247e-15 0.0010430231 4.5927955e-17 0.0010429027)
(0.0011075269 1.3050022e-05 -2.2236439e-18 0.0010326803 1.0281947e-16 0.0010324952)
(0.0011304904 1.2569291e-05 -2.4071482e-18 0.0010183111 -1.6176051e-17 0.0010180271)
(0.0011662015 1.186149e-05 5.3190644e-16 0.00099775981 -1.0185603e-17 0.00099732387)
(0.0012229431 1.076834e-05 2.9755947e-18 0.00096710893 -4.3461201e-17 0.00096642673)
(0.0013133677 8.8569726e-06 -1.1021132e-15 0.00092061456 -8.6063321e-18 0.00091953856)
(0.0014674052 6.1541031e-06 -5.5907472e-16 0.00084543836 -3.0800499e-17 0.00084365004)
(0.0016276404 8.7688274e-07 4.0492192e-18 0.00077603541 -2.6791178e-16 0.00077333556)
(0.0016547745 -6.5393397e-06 2.8112051e-18 0.00078909657 -1.1499176e-16 0.00078624478)
(0.0016739946 -3.9277719e-06 -1.6000583e-16 0.00079939732 4.5651652e-17 0.00079419406)
(0.0019400551 -4.4484718e-05 -7.5956911e-17 0.00093426192 3.1329086e-16 0.00091650962)
(0.0013075001 -0.00017180967 5.7800421e-19 0.00051981376 -7.1550278e-17 0.00094976153)
(0.0011564896 5.8515867e-05 2.8491829e-18 0.0011191837 1.6397647e-17 0.0011139643)
(0.0011260419 3.7453256e-05 -6.0098579e-19 0.0011268707 -3.551113e-17 0.001126008)
(0.0011189688 3.0598784e-05 7.8382575e-19 0.0011249133 -3.2186333e-17 0.0011246683)
(0.0011120367 2.8114268e-05 -7.3742889e-16 0.0011232663 2.2961629e-17 0.0011231852)
(0.0011054577 2.6428148e-05 -3.2741001e-18 0.0011216328 -1.5229498e-18 0.001121613)
(0.0011008515 2.5196868e-05 -9.5957247e-20 0.0011191556 3.6299049e-17 0.0011191637)
(0.0010975752 2.4232447e-05 2.3776723e-18 0.0011161374 3.1462366e-17 0.0011161591)
(0.0010949662 2.3484367e-05 -3.8342958e-16 0.0011128987 4.7607696e-17 0.0011129279)
(0.0010927988 2.288184e-05 -3.9506971e-16 0.0011095456 -1.2025205e-16 0.0011095777)
(0.0010909095 2.2347601e-05 -4.0404089e-16 0.001106154 -5.4279716e-18 0.0011061859)
(0.0010891453 2.1909729e-05 4.0406342e-16 0.0011027951 3.2832059e-17 0.0011028254)
(0.0010874125 2.1519478e-05 -3.0214605e-18 0.0010995113 -4.5196308e-17 0.0010995392)
(0.0010856672 2.1177254e-05 4.1479809e-16 0.0010963207 -6.6299791e-17 0.0010963459)
(0.0010838981 2.0836763e-05 4.2715931e-16 0.0010932254 6.1021237e-17 0.0010932478)
(0.001082114 2.0535599e-05 4.8780682e-18 0.0010902176 -4.2776112e-17 0.0010902373)
(0.0010803332 2.0280016e-05 5.011534e-18 0.0010872855 -5.8059066e-17 0.0010873024)
(0.0010785925 1.9955796e-05 7.9265929e-18 0.0010844069 -1.5812949e-16 0.0010844208)
(0.0010769412 1.9726796e-05 -9.0123929e-16 0.0010815553 -1.2950613e-16 0.0010815657)
(0.0010754473 1.949328e-05 9.0338821e-16 0.0010786943 -1.4361424e-17 0.0010787004)
(0.0010741956 1.9241456e-05 -4.6191459e-16 0.0010757792 -8.6904177e-17 0.0010757798)
(0.0010733069 1.904062e-05 -8.0180387e-18 0.0010727479 -8.7857227e-17 0.0010727408)
(0.001072952 1.8748864e-05 4.7462675e-16 0.0010695129 6.4990864e-17 0.0010694952)
(0.0010733729 1.8516386e-05 4.3188736e-18 0.0010659522 -2.809437e-17 0.0010659193)
(0.0010749226 1.8267667e-05 3.128742e-18 0.0010618882 1.1757292e-18 0.0010618336)
(0.0010781167 1.797472e-05 5.0140321e-16 0.0010570637 3.014042e-17 0.0010569775)
(0.0010837236 1.7673781e-05 -3.8146043e-19 0.0010510971 -3.3977345e-18 0.0010509647)
(0.0010929153 1.7265863e-05 -1.3784661e-18 0.0010434102 1.1130513e-16 0.0010432095)
(0.0011074592 1.6801964e-05 -4.0585966e-18 0.0010331369 6.6245427e-17 0.0010328343)
(0.0011302455 1.6165868e-05 5.2734614e-16 0.0010188784 2.864471e-17 0.0010184209)
(0.0011656677 1.5229785e-05 5.3910654e-16 0.00099850604 7.8328262e-17 0.0009978121)
(0.0012219278 1.390124e-05 3.0823996e-18 0.00096815041 -1.2263223e-17 0.00096707222)
(0.0013114897 1.1550607e-05 5.5784689e-16 0.00092215659 -4.7558419e-17 0.00092047627)
(0.0014639224 8.0908736e-06 -5.6904203e-16 0.00084786543 -1.9669588e-17 0.00084508074)
(0.0016276383 1.368656e-06 4.9849708e-16 0.00077685329 -9.8774922e-17 0.00077252362)
(0.0016544609 -8.1508377e-06 4.7413706e-18 0.00078998834 -5.1667792e-17 0.00078512016)
(0.0016729866 -5.4218493e-06 -2.3118191e-18 0.00080078394 -8.6724824e-17 0.00079192011)
(0.001927917 -4.8369385e-05 4.6207934e-18 0.00093236068 1.0496949e-16 0.00090775069)
(0.0014114782 -0.00018008387 -1.5848144e-17 0.00056094243 -1.1894831e-16 0.0010108829)
(0.0011539479 6.867952e-05 3.7132307e-18 0.0011213678 3.6270419e-17 0.0011156085)
(0.0011255869 4.777718e-05 -1.809338e-18 0.0011279587 -2.6719705e-17 0.0011267498)
(0.0011191115 3.9223692e-05 2.5152042e-16 0.0011256263 4.3886075e-18 0.0011251996)
(0.001112363 3.5942225e-05 -1.8903185e-18 0.0011238465 -3.6061106e-17 0.0011236735)
(0.0011058367 3.3826704e-05 2.5407686e-16 0.0011221749 -1.8712266e-17 0.0011220906)
(0.0011012527 3.2261654e-05 -2.5946573e-16 0.0011196811 -1.8376653e-17 0.0011196365)
(0.0010979887 3.1018829e-05 2.2418383e-18 0.0011166524 2.0083016e-17 0.0011166291)
(0.0010953882 3.0085456e-05 3.7513275e-18 0.0011134048 -6.9313146e-18 0.0011133953)
(0.0010932242 2.930828e-05 -1.415689e-18 0.0011100455 -1.0072445e-16 0.001110044)
(0.0010913374 2.8654263e-05 -2.6709049e-18 0.0011066479 2.7106625e-17 0.0011066503)
(0.0010895765 2.8084022e-05 -2.0482294e-18 0.0011032826 4.6742956e-17 0.0011032867)
(0.0010878439 2.7586589e-05 5.6098207e-16 0.0010999936 2.0080868e-17 0.0010999983)
(0.0010860969 2.7127497e-05 2.8737426e-16 0.0010967985 -2.4545042e-17 0.001096803)
(0.0010843285 2.6733584e-05 -2.8527809e-16 0.0010936974 4.9757862e-17 0.0010937011)
(0.001082542 2.6339997e-05 3.8972365e-18 0.0010906853 -1.8186573e-17 0.0010906881)
(0.001080757 2.5949564e-05 4.4771159e-18 0.0010877495 -3.6112885e-17 0.0010877511)
(0.0010790145 2.5632352e-05 -2.9710975e-16 0.0010848658 -1.4281289e-16 0.0010848659)
(0.001077361 2.5299259e-05 -3.125899e-16 0.001082009 -1.8861692e-16 0.0010820071)
(0.0010758602 2.4998152e-05 -6.0835861e-18 0.0010791449 1.498005e-17 0.0010791403)
(0.0010746011 2.4655063e-05 -3.2063147e-16 0.0010762267 -5.5858366e-17 0.0010762183)
(0.0010737016 2.436634e-05 3.1589671e-16 0.0010731936 -5.9671933e-17 0.0010731798)
(0.0010733335 2.4054607e-05 -6.0383585e-19 0.0010699574 7.5595373e-17 0.001069936)
(0.001073737 2.375774e-05 3.9043171e-18 0.0010663969 1.6481684e-18 0.0010663644)
(0.0010752589 2.3425562e-05 5.9677157e-18 0.0010623374 1.1608342e-17 0.0010622888)
(0.0010784137 2.3028562e-05 -6.8400016e-16 0.0010575217 -2.3634532e-17 0.0010574496)
(0.0010839597 2.2633485e-05 -3.492886e-16 0.0010515726 2.4125821e-17 0.0010514659)
(0.0010930632 2.2118058e-05 -7.1148243e-16 0.0010439139 -8.590567e-19 0.0010437557)
(0.0011074711 2.1479953e-05 7.1507308e-16 0.0010336877 3.7434473e-17 0.001033453)
(0.0011300413 2.0638264e-05 3.6247275e-16 0.001019509 1.1039744e-16 0.0010191564)
(0.001165112 1.9445603e-05 3.7028677e-16 0.00099927198 9.1075365e-17 0.00099874002)
(0.0012207788 1.771588e-05 1.4909235e-18 0.00096915028 6.2703525e-18 0.00096831831)
(0.0013092784 1.46722e-05 -9.7535028e-19 0.00092357105 -4.3931658e-17 0.00092227938)
(0.0014597474 1.0123498e-05 3.9186212e-16 0.0008500045 5.7267818e-17 0.00084782868)
(0.0016277737 1.4078453e-06 4.2772267e-18 0.0007765243 2.0859517e-17 0.00077297241)
(0.0016541174 -1.0724006e-05 2.0586808e-16 0.00078931363 1.705242e-17 0.00078557396)
(0.00167238 -8.6358025e-06 -1.9902613e-18 0.00080033381 -9.413929e-17 0.00079189116)
(0.0019106232 -5.1519666e-05 -5.6488955e-17 0.00092544006 3.0204777e-17 0.00089892252)
(0.0015042472 -0.00019342937 -8.5177267e-19 0.00060312793 -9.4218968e-17 0.0010605862)
(0.0011518326 7.8209084e-05 -3.4103196e-16 0.0011235674 1.6154836e-17 0.0011174059)
(0.0011251637 5.8684849e-05 1.7266288e-16 0.0011293428 -1.8059725e-17 0.0011277415)
(0.0011193308 4.8804568e-05 1.0131014e-18 0.0011266177 4.4210195e-17 0.0011259658)
(0.0011128302 4.4676112e-05 -2.9093468e-18 0.0011246633 -3.0713858e-17 0.0011243779)
(0.0011063786 4.210875e-05 1.7823618e-16 0.0011229364 4.2290505e-17 0.0011227796)
(0.0011018249 4.0145607e-05 1.8667555e-16 0.0011204185 -9.5301947e-18 0.001120319)
(0.0010985797 3.8683413e-05 3.8141789e-18 0.0011173733 2.6882157e-17 0.001117306)
(0.0010959919 3.7500063e-05 2.8699157e-18 0.0011141129 9.6640962e-19 0.001114067)
(0.0010938349 3.6536004e-05 -6.3521466e-19 0.0011107437 -6.8265472e-17 0.0011107113)
(0.0010919513 3.5736359e-05 -1.9611613e-16 0.0011073379 4.3575112e-17 0.0011073138)
(0.00109019 3.5039261e-05 -2.003471e-16 0.0011039657 -2.0981516e-18 0.0011039468)
(0.0010884577 3.4408485e-05 1.9278986e-16 0.0011006695 5.9051272e-17 0.0011006538)
(0.0010867119 3.3863902e-05 6.1022878e-16 0.0010974664 6.7243701e-17 0.0010974528)
(0.0010849399 3.3347444e-05 7.58328e-18 0.0010943592 3.0860872e-17 0.0010943468)
(0.0010831493 3.2858981e-05 3.9920422e-18 0.0010913409 1.1140396e-17 0.0010913292)
(0.0010813639 3.2427829e-05 3.1843123e-18 0.0010883969 -2.3956204e-17 0.0010883854)
(0.0010796166 3.2030366e-05 -4.2510446e-16 0.0010855071 -1.5169912e-16 0.0010854953)
(0.0010779548 3.1591829e-05 -2.2047163e-16 0.0010826454 -1.7457845e-16 0.0010826329)
(0.0010764467 3.1211985e-05 -5.1828391e-18 0.0010797757 1.9971145e-17 0.0010797618)
(0.0010751782 3.0797503e-05 -3.3420538e-18 0.0010768526 -5.9329434e-17 0.0010768364)
(0.0010742683 3.0438994e-05 4.5098598e-16 0.0010738144 1.6976654e-17 0.0010737946)
(0.0010738834 3.0068023e-05 2.3282576e-16 0.0010705764 7.8058532e-17 0.001070551)
(0.0010742627 2.9641529e-05 -2.322564e-16 0.0010670169 5.233317e-18 0.0010669832)
(0.0010757512 2.9210262e-05 -2.3474874e-16 0.0010629623 2.3331594e-17 0.0010629163)
(0.0010788605 2.8738385e-05 4.9597762e-18 0.0010581566 -8.5325971e-17 0.0010580921)
(0.0010843415 2.821416e-05 4.9080116e-19 0.001052226 1.3901348e-17 0.0010521341)
(0.0010933417 2.7595841e-05 -1.772216e-18 0.0010446031 -8.6806727e-17 0.0010444694)
(0.0011075924 2.6789546e-05 -3.9071897e-18 0.0010344368 5.7294176e-18 0.0010342403)
(0.0011299176 2.5754461e-05 -2.6424153e-16 0.0010203571 6.010261e-17 0.001020062)
(0.0011645884 2.425006e-05 -5.145813e-18 0.00100029 5.9811581e-17 0.00099984373)
(0.0012195867 2.2042936e-05 -1.026773e-19 0.00097045858 1.2379215e-17 0.00096974914)
(0.001306893 1.8321153e-05 3.4575132e-19 0.00092539195 -2.0985473e-17 0.00092428544)
(0.0014551758 1.2728701e-05 1.1489962e-18 0.00085270202 7.0613455e-17 0.00085080821)
(0.0016280858 1.7498507e-06 5.0380382e-18 0.00077656254 4.1773353e-17 0.00077322809)
(0.0016538158 -1.3171467e-05 1.4924693e-18 0.00078896861 4.4204628e-17 0.00078576276)
(0.0016722699 -1.2801498e-05 -2.0128396e-18 0.00080060681 -1.2953445e-17 0.00079171912)
(0.0018919004 -5.1884658e-05 -4.1582919e-17 0.00091904104 -1.4121263e-17 0.00088778714)
(0.0015727784 -0.00020851638 1.5200501e-19 0.00063975498 -4.1956472e-17 0.0010904279)
(0.001150064 8.682683e-05 -2.4434611e-16 0.0011259622 -4.2651781e-17 0.0011194764)
(0.0011248927 6.9994338e-05 -1.8435326e-18 0.0011310122 -3.9168544e-18 0.0011290509)
(0.0011196764 5.9262465e-05 -2.5571878e-16 0.0011279596 2.3391063e-17 0.0011270338)
(0.0011134801 5.4411813e-05 -3.2585061e-18 0.0011257975 -2.802828e-17 0.0011253656)
(0.0011071351 5.1311867e-05 -4.099991e-18 0.0011239901 6.0813362e-17 0.0011237452)
(0.0011026281 4.9004649e-05 1.5497454e-18 0.0011214342 2.8326557e-17 0.0011212741)
(0.0010994091 4.7262695e-05 -2.6652073e-16 0.0011183647 2.1020622e-17 0.0011182534)
(0.0010968347 4.5843084e-05 1.4343451e-18 0.0011150872 1.4319349e-17 0.0011150091)
(0.0010946873 4.4690531e-05 2.7835388e-16 0.001111703 -2.1095086e-17 0.0011116469)
(0.001092809 4.3709067e-05 -4.7307849e-19 0.0011082846 1.4298768e-17 0.0011082431)
(0.0010910503 4.2866902e-05 2.8374027e-16 0.0011049009 -4.037373e-17 0.0011048693)
(0.0010893182 4.2130833e-05 -6.7981585e-18 0.0011015939 3.9025913e-17 0.0011015691)
(0.0010875691 4.1445901e-05 -1.5603866e-18 0.0010983816 1.3516012e-16 0.0010983616)
(0.0010857944 4.0833525e-05 -1.4186453e-16 0.0010952644 4.1734608e-17 0.0010952478)
(0.0010840018 4.0268452e-05 -1.4788879e-16 0.0010922356 5.1581508e-19 0.0010922213)
(0.0010822096 3.9727117e-05 3.4692769e-20 0.001089283 4.3455418e-18 0.0010892702)
(0.0010804535 3.9189743e-05 1.6121116e-16 0.0010863855 -1.0983479e-16 0.0010863734)
(0.001078785 3.8690784e-05 1.60689e-16 0.0010835147 -1.3080155e-16 0.0010835025)
(0.0010772666 3.8218757e-05 -1.6489445e-16 0.0010806372 -1.2831104e-17 0.0010806241)
(0.0010759857 3.7770362e-05 -3.6271911e-18 0.0010777072 -6.9723151e-17 0.001077692)
(0.0010750595 3.729991e-05 -5.9238689e-18 0.0010746639 4.6085025e-17 0.0010746451)
(0.0010746514 3.6802039e-05 1.6717028e-16 0.001071424 1.0535295e-16 0.0010713995)
(0.0010750027 3.6297434e-05 -1.6719916e-16 0.0010678648 -1.2288774e-17 0.0010678315)
(0.0010764548 3.5789372e-05 5.1698113e-18 0.0010638145 1.43358e-17 0.0010637683)
(0.0010795096 3.5231973e-05 -1.7041139e-16 0.0010590219 -4.4975899e-17 0.0010589566)
(0.0010849099 3.4558724e-05 -1.7856992e-16 0.001053117 -3.8419828e-17 0.0010530235)
(0.0010937939 3.376749e-05 -2.541375e-18 0.0010455367 -6.748026e-17 0.0010454012)
(0.001107867 3.2799859e-05 -3.72742e-16 0.0010354424 -6.0845704e-17 0.0010352442)
(0.0011299139 3.1491649e-05 -4.3165508e-18 0.001021482 -1.6242438e-17 0.0010211866)
(0.0011641348 2.9675525e-05 -6.1867563e-18 0.0010016164 3.7776397e-17 0.0010011746)
(0.0012183855 2.6964567e-05 1.927769e-16 0.00097212441 4.883227e-17 0.00097142365)
(0.0013043668 2.2451644e-05 -1.963445e-16 0.00092764851 3.7831753e-18 0.00092657191)
(0.0014502281 1.5675001e-05 2.2765227e-18 0.00085596671 1.3685377e-17 0.00085412618)
(0.0016286415 2.184197e-06 7.0185479e-18 0.00077691303 5.0069404e-17 0.00077340687)
(0.0016536008 -1.5642141e-05 -2.1246464e-16 0.00078883485 -5.2031114e-18 0.00078585259)
(0.0016725786 -1.8438771e-05 -4.5124344e-18 0.00080114231 2.8753954e-17 0.00079187409)
(0.0018728946 -4.9934094e-05 2.8270135e-17 0.00091267498 3.7194328e-17 0.00087594346)
(0.0016241022 -0.00022430678 4.9785494e-19 0.00067152667 -1.4466528e-17 0.0011108926)
(0.0011491475 9.4649676e-05 5.0274668e-18 0.0011282571 -3.7667609e-17 0.0011217506)
(0.0011249469 8.1498524e-05 -3.961567e-19 0.0011329876 -2.2526048e-17 0.0011307545)
(0.0011202358 7.0521863e-05 3.2478684e-19 0.0011297312 1.2182642e-17 0.0011284864)
(0.0011143826 6.5124322e-05 -2.5596751e-18 0.0011273471 -8.6041388e-18 0.0011267176)
(0.0011081739 6.1557374e-05 -3.3183952e-18 0.0011254391 1.2551445e-17 0.0011250666)
(0.0011037291 5.8874701e-05 -1.9478431e-16 0.0011228334 -4.2503386e-18 0.0011225801)
(0.0011005439 5.6823313e-05 -1.9317057e-16 0.0011197323 -1.9200245e-17 0.0011195486)