2.3823985e-19 	0.00064915776 	-4.4112512e-17 	2.2987889e-22 	1.2851044e-19 	-2.1898226e-21 	8.5192032e-20
0.011627907 	0.0034805991 	-0.0010864348 	-3.9250204e-08 	0.0049147805 	-8.863849e-08 	0.00059946105
0.023255814 	0.0025742216 	-0.00070236638 	3.0502522e-06 	0.0026351926 	-1.1593617e-05 	0.00049811881
0.034883721 	0.0022992121 	-0.00058874386 	9.1727894e-07 	0.0021261527 	-3.7065932e-06 	0.00055112956
0.046511628 	0.0021665533 	-0.00054250331 	7.4179344e-06 	0.0019501616 	-2.1568642e-05 	0.00047086622
0.058139535 	0.002047868 	-0.00050564954 	6.7839289e-06 	0.0018763145 	-1.8551575e-05 	0.00018645779
0.069767442 	0.0020158048 	-0.00051244875 	4.2273074e-06 	0.0018166552 	-1.1015671e-05 	0.00040216419
0.081395349 	0.0019902047 	-0.00051619726 	2.9956842e-06 	0.0018148285 	-7.485837e-06 	0.00040021026
0.093023256 	0.0019596379 	-0.00051771674 	2.6880242e-06 	0.0018439536 	-6.313844e-06 	0.00023331282
0.10465116 	0.0019282125 	-0.00052125813 	2.2835539e-06 	0.001868317 	-5.0385871e-06 	9.906126e-05
0.11627907 	0.0019245647 	-0.00053338958 	9.5211668e-08 	0.0018298276 	-4.7839257e-07 	0.00046307106
0.12790698 	0.0018978422 	-0.00053716364 	3.7866057e-07 	0.0018760333 	-1.8440829e-06 	0.00028044135
0.13953488 	0.0018658912 	-0.00054106697 	1.9914522e-07 	0.0019128655 	-9.7340727e-07 	0.00010730521
0.15116279 	0.0018354385 	-0.00054469582 	8.2568911e-07 	0.0019438113 	-3.8317733e-06 	6.6036768e-05
0.1627907 	0.00180121 	-0.00054722792 	7.5340858e-08 	0.0019564878 	-2.9738114e-07 	0.00021930505
0.1744186 	0.0017742656 	-0.00055133077 	1.2831761e-07 	0.0019822867 	-5.0665372e-07 	0.00036982556
0.18604651 	0.0017450893 	-0.00055587019 	3.5958815e-07 	0.002007336 	-1.5051175e-06 	0.00051232381
0.19767442 	0.0017546428 	-0.00053126417 	2.1934388e-06 	0.0020095659 	1.3603403e-06 	0.00011300205
0.20930233 	0.0016969168 	-0.00056633481 	4.6584303e-08 	0.0020744431 	-1.9703e-07 	0.00079186988
0.22093023 	0.001702383 	-0.00054923646 	1.5944756e-06 	0.0020875851 	1.2570111e-06 	0.00050559356
0.23255814 	0.0016907514 	-0.00055048088 	1.8687336e-06 	0.0021220845 	1.7845889e-06 	0.00053195014
0.24418605 	0.0016685297 	-0.00055848154 	1.0886984e-06 	0.00216891 	1.044051e-06 	0.00072953137
0.25581395 	0.0016858624 	-0.00054133209 	1.6600484e-06 	0.00218489 	1.85194e-06 	0.00036468318
0.26744186 	0.0016504992 	-0.00056054813 	1.6351621e-07 	0.0022527255 	1.8287225e-07 	0.00081655272
0.27906977 	0.0016779415 	-0.00053928469 	1.0609846e-06 	0.0022659042 	1.3276778e-06 	0.00033916426
0.29069767 	0.0016558746 	-0.0005503022 	8.2614145e-08 	0.0023308614 	-3.2664071e-07 	0.0006421929
0.30232558 	0.0016666304 	-0.0005405299 	2.1890791e-07 	0.002364682 	2.9290673e-07 	0.00043977756
0.31395349 	0.0016679789 	-0.0005366597 	1.5276536e-07 	0.002415641 	-4.3494701e-07 	0.00041943622
0.3255814 	0.0016732979 	-0.00052834594 	2.2251356e-07 	0.0024608643 	-6.3327503e-07 	0.00031107861
0.3372093 	0.0016792896 	-0.0005192033 	1.6400564e-07 	0.0025103996 	-2.9073166e-07 	0.00020927984
0.34883721 	0.0016830682 	-0.00050646344 	7.2706205e-07 	0.0025626591 	-1.2890348e-06 	0.00010965453
0.36046512 	0.0016867603 	-0.00049345558 	4.5464914e-08 	0.0026152977 	-4.3725024e-08 	1.0578004e-05
0.37209302 	0.0016878043 	-0.00047345583 	1.2147022e-06 	0.0026757734 	-1.1683565e-06 	8.99824e-05
0.38372093 	0.0016888768 	-0.00045349153 	2.0136153e-07 	0.0027363231 	-1.9382132e-07 	0.00018058762
0.39534884 	0.0016870868 	-0.00042534645 	7.0276206e-07 	0.0027980848 	-3.7765914e-07 	0.00027024493
0.40697674 	0.001685129 	-0.00039525856 	8.1434492e-07 	0.0028632581 	-4.3770674e-07 	0.00035109254
0.41860465 	0.001683867 	-0.00036059494 	9.6854482e-07 	0.0029194462 	1.598276e-07 	0.00016600533
0.43023256 	0.0016806864 	-0.00032327568 	1.2619569e-06 	0.0029863667 	-5.5883594e-07 	0.00051477116
0.44186047 	0.0016797736 	-0.00028525693 	7.5284879e-08 	0.0030491835 	6.7618489e-10 	0.00056226321
0.45348837 	0.001679824 	-0.00024389247 	6.068197e-07 	0.0030983885 	7.5299728e-09 	0.00048261612
0.46511628 	0.0016862568 	-0.00020029854 	1.3152058e-06 	0.0031435308 	-1.1508285e-06 	0.00073556404
0.47674419 	0.0017006683 	-0.00015807266 	1.0417196e-06 	0.0031728302 	1.6288262e-07 	0.00039754832
0.48837209 	0.0017026882 	-0.00011876666 	6.6896974e-07 	0.00322391 	1.0464027e-07 	0.00061655248
0.5 	0.0017174645 	-7.4475264e-05 	9.8783538e-07 	0.0032497665 	-1.5165013e-06 	0.00093125528
0.51162791 	0.0017558253 	-2.9130048e-05 	1.0500001e-06 	0.0032251246 	8.4423157e-07 	0.00042629023
0.52325581 	0.0017888006 	8.5767794e-06 	9.0067343e-07 	0.0032103594 	7.2407178e-07 	0.00060897487
0.53488372 	0.0018133897 	4.6972709e-05 	8.8012039e-07 	0.0032133797 	-1.5860433e-06 	0.0011784066
0.54651163 	0.001846299 	9.459364e-05 	6.4315894e-07 	0.0031967564 	9.5691845e-07 	0.000692922
0.55813953 	0.0018802206 	0.00013952281 	1.0788086e-06 	0.0031778902 	1.6051324e-06 	0.00041300525
0.56976744 	0.0019090173 	0.00017491306 	2.315686e-07 	0.0031734086 	-3.9070547e-07 	0.0014193193
0.58139535 	0.0019379706 	0.00021962327 	3.2923549e-07 	0.0031681875 	5.997808e-07 	0.0010272647
0.59302326 	0.0019694229 	0.00026600476 	1.0156277e-06 	0.0031582397 	1.850201e-06 	0.00019364408
0.60465116 	0.0019987851 	0.00030400729 	4.8460057e-08 	0.0031568227 	8.8287526e-08 	0.0015538153
0.61627907 	0.0020293478 	0.00034457137 	2.5958739e-07 	0.0031570188 	4.9715818e-07 	0.0011852312
0.62790698 	0.002063338 	0.00038517544 	8.1836367e-07 	0.0031539171 	1.567303e-06 	0.00024202858
0.63953488 	0.0020930631 	0.00042175735 	3.2181868e-08 	0.0031599281 	-5.246077e-08 	0.0017738862
0.65116279 	0.0021283529 	0.00046059914 	3.7011248e-07 	0.0031638177 	7.1359352e-07 	0.0010130231
0.6627907 	0.0021656592 	0.00049921845 	5.5614972e-07 	0.0031687901 	1.0722803e-06 	0.00066779624
0.6744186 	0.0021995151 	0.00053604004 	2.3207341e-07 	0.0031813864 	-3.378038e-07 	0.0018854426
0.68604651 	0.0022442114 	0.00057573697 	6.3866749e-07 	0.0031901586 	1.2701481e-06 	0.00041051059
0.69767442 	0.0022851686 	0.00061425323 	1.593136e-07 	0.0032083922 	3.1683378e-07 	0.0015889673
0.70930233 	0.0023314463 	0.0006536325 	2.577943e-07 	0.0032279032 	5.4183087e-07 	0.0013260528
0.72093023 	0.0023848494 	0.00069463522 	4.6668142e-07 	0.0032509736 	9.8086985e-07 	0.000838171
0.73255814 	0.0024354209 	0.00073515459 	3.394179e-08 	0.0032823819 	-2.4184057e-08 	0.0020376946
0.74418605 	0.0025017711 	0.0007774678 	6.6071717e-07 	0.0033135019 	1.5046726e-06 	0.00027864936
0.75581395 	0.0025638373 	0.00082027465 	2.7259109e-07 	0.003358878 	-7.0681462e-08 	0.0021052633
0.76744186 	0.0026404955 	0.00086284814 	7.098269e-07 	0.0034007789 	1.7899266e-06 	1.5076093e-05
0.77906977 	0.0027162999 	0.00090729533 	3.2861936e-07 	0.0034614267 	6.5159965e-08 	0.0021674247
0.79069767 	0.0028047151 	0.0009498343 	6.1891037e-07 	0.0035163031 	1.7500769e-06 	0.00010247741
0.80232558 	0.002894566 	0.00099456718 	2.0494962e-07 	0.0035912815 	1.3186751e-07 	0.0022222659
0.81395349 	0.0029951033 	0.0010365209 	3.8648662e-07 	0.0036608764 	1.2282162e-06 	0.00073252362
0.8255814 	0.0030973773 	0.001079634 	4.4809567e-08 	0.0037453852 	1.5901921e-07 	0.0020574805
0.8372093 	0.0032078911 	0.0011203168 	5.9983217e-08 	0.0038299974 	2.1286713e-07 	0.0020475091
0.84883721 	0.0033192253 	0.0011587499 	2.9367615e-07 	0.0039115553 	1.1502634e-06 	0.00060322367
0.86046512 	0.0034332291 	0.0011970423 	1.4499878e-07 	0.0040067554 	2.5142652e-07 	0.0023548211
0.87209302 	0.0035469821 	0.0012309693 	5.4422826e-08 	0.004091007 	2.3387751e-07 	0.0019839464
0.88372093 	0.0036574033 	0.0012613589 	2.1609824e-07 	0.004166351 	1.0281963e-06 	0.00023256641
0.89534884 	0.0037630175 	0.0012895491 	1.557272e-08 	0.0042480748 	8.4302372e-08 	0.0021529722
0.90697674 	0.0038595255 	0.0013105233 	2.7600746e-08 	0.0043095611 	3.2833582e-08 	0.0023736165
0.91860465 	0.0039452722 	0.0013246677 	-2.4663327e-08 	0.0043523394 	-8.6492432e-08 	0.0023584633
0.93023256 	0.0040152277 	0.0013322709 	3.978003e-09 	0.0043745207 	2.898549e-08 	0.0021930725
0.94186047 	0.0040623347 	0.0013267476 	-1.9952215e-08 	0.0043728492 	-5.6833255e-08 	0.0022671352
0.95348837 	0.0040931119 	0.0013189899 	1.9441983e-08 	0.0043382021 	6.2698977e-08 	0.0017753018
0.96511628 	0.0040958635 	0.0013075939 	-6.8295772e-08 	0.0042708649 	-3.2433048e-07 	0.0021257915
0.97674419 	0.0040652021 	0.0012933038 	1.4553099e-07 	0.004160308 	5.6254095e-07 	1.9995862e-05
0.98837209 	0.0036448145 	0.0011774528 	-7.9295152e-07 	0.0036787122 	-2.544969e-06 	0.0017374345
