0.29896907 	0.44714214 	0.098783987 	0.0003647961
0.30927835 	1.1967228 	0.25368883 	0.0019499931
0.31958763 	1.2636194 	0.25977053 	-0.00068583183
0.32989691 	1.2752126 	0.24959236 	-0.006336877
0.34020619 	1.2751487 	0.2431709 	0.0028917817
0.35051546 	1.2765212 	0.23153195 	0.0019763435
0.36082474 	1.2749541 	0.22331969 	-0.00055087348
0.37113402 	1.2717042 	0.21501532 	-0.00082475421
0.3814433 	1.2684202 	0.20536207 	-0.00045458047
0.39175258 	1.2660239 	0.19765411 	-0.00016763341
0.40206186 	1.2646287 	0.19072478 	0.0018082553
0.41237113 	1.2630695 	0.18313001 	0.0015187504
0.42268041 	1.2611211 	0.1764458 	5.7007136e-05
0.43298969 	1.2591034 	0.16979339 	-0.00014288797
0.44329897 	1.2574949 	0.16382208 	-0.0005592459
0.45360825 	1.2555233 	0.15763713 	-0.00031157053
0.46391753 	1.2537212 	0.15193819 	-0.00035214514
0.4742268 	1.2515692 	0.14642465 	-0.00022146909
0.48453608 	1.2488183 	0.14089506 	-0.00022350122
0.49484536 	1.2459355 	0.135836 	-4.2296865e-05
0.50515464 	1.2422948 	0.13059759 	-9.6086953e-05
0.51546392 	1.2386833 	0.12584112 	4.3365174e-06
0.5257732 	1.2347019 	0.12109948 	-7.2904487e-06
0.53608247 	1.2306728 	0.11646017 	-4.6443528e-05
0.54639175 	1.2267105 	0.11228568 	5.6132405e-06
0.55670103 	1.222548 	0.10763571 	-7.9976313e-05
0.56701031 	1.2187342 	0.10386973 	-8.9162591e-05
0.57731959 	1.2146636 	0.099726409 	-3.5993059e-05
0.58762887 	1.2108307 	0.095939378 	-1.8467847e-05
0.59793814 	1.20686 	0.092335021 	-8.1916588e-05
0.60824742 	1.2027953 	0.088433395 	-4.229505e-05
0.6185567 	1.1989768 	0.085211479 	-3.1717332e-05
0.62886598 	1.1949245 	0.081913892 	-5.4366525e-05
0.63917526 	1.1908694 	0.07842224 	-3.3887516e-05
0.64948454 	1.1867655 	0.075457414 	-5.5472705e-05
0.65979381 	1.1825365 	0.072419107 	-3.8640799e-05
0.67010309 	1.1783784 	0.06929988 	-2.1208347e-05
0.68041237 	1.1738818 	0.066469421 	-7.9522224e-05
0.69072165 	1.1693359 	0.063588355 	2.5556943e-08
0.70103093 	1.1648585 	0.060750015 	-6.9773392e-06
0.71134021 	1.1600145 	0.058081055 	-8.5321837e-05
0.72164948 	1.1552409 	0.055382563 	-1.2663323e-05
0.73195876 	1.1501312 	0.052915891 	-4.1183154e-05
0.74226804 	1.1448513 	0.050415176 	-1.258445e-06
0.75257732 	1.1394589 	0.047988927 	-1.5407594e-06
0.7628866 	1.133671 	0.045611188 	-2.3597483e-05
0.77319588 	1.1278541 	0.043203486 	-5.8582603e-06
0.78350515 	1.1215325 	0.040933314 	-3.1968589e-05
0.79381443 	1.1151886 	0.038635933 	-6.4100507e-06
0.80412371 	1.1082909 	0.036469674 	-2.3209732e-05
0.81443299 	1.1013196 	0.03426969 	-4.2750962e-06
0.82474227 	1.0938039 	0.032163176 	-1.2929636e-06
0.83505155 	1.0860706 	0.030067115 	-1.9289765e-07
0.84536082 	1.0779633 	0.027963632 	-4.6795142e-06
0.8556701 	1.0692595 	0.025961246 	-3.0117347e-05
0.86597938 	1.0603121 	0.023920525 	-3.7286591e-06
0.87628866 	1.0507041 	0.021934857 	-3.1708792e-06
0.88659794 	1.040436 	0.019992785 	-1.5776394e-05
0.89690722 	1.0296192 	0.018047829 	-7.1436982e-07
0.90721649 	1.0180373 	0.016095893 	-4.2722679e-06
0.91752577 	1.0053175 	0.014196462 	-4.0130668e-06
0.92783505 	0.99121601 	0.012316572 	-2.245652e-06
0.93814433 	0.97540089 	0.010429039 	-1.4552171e-06
0.94845361 	0.95776535 	0.0086531098 	-1.4925587e-06
0.95876289 	0.93457238 	0.0067096047 	-1.8738314e-06
0.96907216 	0.90442619 	0.0048505829 	-2.7249029e-06
0.97938144 	0.85589713 	0.0029979683 	-1.503049e-06
0.98969072 	0.7338542 	0.00067535457 	-1.5710688e-06
