0.4 	7.0132591e-05 	-6.3532273e-06 	1.5226804e-09 	7.4599584e-05 	1.0552262e-08 	5.0717027e-06
0.41111111 	0.0074419627 	-0.0024308481 	-4.1407295e-08 	0.0088507607 	2.4633341e-06 	0.0012726039
0.42222222 	0.0073931945 	-0.0023109893 	3.3051918e-07 	0.0083392416 	-1.0822393e-06 	0.0050502075
0.43333333 	0.007023351 	-0.0020910397 	-2.2388622e-07 	0.007510522 	1.7851319e-06 	0.0014120099
0.44444444 	0.0066682519 	-0.0018910623 	-8.4856332e-08 	0.0067654073 	5.7044459e-07 	0.0039781128
0.45555556 	0.0063307459 	-0.0016921052 	-5.323893e-07 	0.0060802581 	1.161169e-06 	3.3632823e-05
0.46666667 	0.0060159418 	-0.0015089399 	-3.8263216e-07 	0.0054696967 	5.515982e-07 	0.0020212415
0.47777778 	0.0057228306 	-0.0013363294 	-3.4530762e-07 	0.004913325 	2.8312482e-07 	0.0027773769
0.48888889 	0.0054534428 	-0.0011730776 	-4.4436168e-07 	0.0044063758 	1.2631603e-07 	0.0025910336
0.5 	0.0052110215 	-0.0010174843 	-7.1620427e-07 	0.0039468404 	-3.6197357e-08 	0.0017160685
0.51111111 	0.0049990601 	-0.00086953883 	-1.1978264e-06 	0.0035337572 	-2.6357127e-07 	0.00036557026
0.52222222 	0.0048175606 	-0.00072476778 	-1.0413891e-06 	0.0031654294 	-3.6242761e-07 	0.0014986576
0.53333333 	0.0046673846 	-0.00058430076 	-4.0256299e-07 	0.0028369881 	-2.7125707e-07 	0.0036210092
0.54444444 	0.0045585211 	-0.00045652699 	-3.7244085e-07 	0.0025567416 	-3.0347863e-07 	0.0035166138
0.55555556 	0.0044928716 	-0.00034548102 	-1.5189958e-06 	0.0023293993 	-7.5362964e-07 	0.00078495036
0.56666667 	0.0044499167 	-0.00023289961 	-9.5990569e-07 	0.0021318348 	-6.1844778e-07 	0.0022137365
0.57777778 	0.004436537 	-0.00012917941 	-2.6186999e-07 	0.0019704473 	-3.6802053e-07 	0.0034785186
0.58888889 	0.0044589961 	-4.7105973e-05 	-2.0608807e-06 	0.0018680427 	-1.1105871e-06 	0.00018408872
0.6 	0.0044885561 	4.718608e-05 	-2.4699246e-07 	0.0017728227 	-3.4349925e-07 	0.0034510315
0.61111111 	0.0045443904 	0.00011951879 	-1.3773507e-06 	0.0017400759 	-6.5620275e-07 	0.0015166058
0.62222222 	0.0046088311 	0.00019646323 	-8.5645147e-07 	0.0017201363 	-3.7626753e-07 	0.0024357465
0.63333333 	0.004687717 	0.00026531232 	-1.0286688e-06 	0.0017339981 	-3.9521861e-07 	0.0021598028
0.64444444 	0.0047757156 	0.00033344313 	-1.0512225e-06 	0.0017711323 	-4.9121197e-07 	0.0021400507
0.65555556 	0.004871472 	0.00039861022 	-1.0343842e-06 	0.0018320887 	-4.7876619e-07 	0.0022031472
0.66666667 	0.0049764546 	0.00046493265 	-8.5591245e-07 	0.0019092375 	-7.1187993e-07 	0.0024811429
0.67777778 	0.0050815388 	0.00052727797 	-1.3768394e-06 	0.0020211821 	-9.5711202e-07 	0.0016960389
0.68888889 	0.0051926257 	0.00059488079 	-3.540605e-07 	0.0021303876 	-5.3483286e-07 	0.0034229242
0.7 	0.0053048732 	0.00065543188 	-2.0151011e-06 	0.0022854743 	-1.6898108e-06 	0.00069741308
0.71111111 	0.0054231063 	0.0007290315 	2.2652914e-07 	0.0024311058 	6.2078489e-08 	0.004463069
0.72222222 	0.0055393763 	0.00079049298 	-2.2306208e-06 	0.0026135709 	-1.9307526e-06 	0.00038207253
0.73333333 	0.005670127 	0.00087004422 	-1.326222e-07 	0.002798883 	-3.2562314e-07 	0.0042951
0.74444444 	0.0057956588 	0.0009393495 	-1.9405529e-06 	0.003002346 	-1.7670545e-06 	0.00092445746
0.75555556 	0.0059348399 	0.0010227266 	-3.1314977e-07 	0.0032150128 	-4.6492954e-07 	0.0042707202
0.76666667 	0.0060677258 	0.0010975067 	-1.9624568e-06 	0.003436959 	-1.844373e-06 	0.00085289894
0.77777778 	0.0062169223 	0.0011865755 	-1.341154e-07 	0.0036716057 	-3.337909e-07 	0.0050036581
0.78888889 	0.0063545857 	0.0012635319 	-2.2117034e-06 	0.0039074921 	-2.1380496e-06 	4.4216952e-05
0.8 	0.0065125498 	0.0013569865 	-2.5258989e-07 	0.0041607412 	-4.6640498e-07 	0.0047743103
0.81111111 	0.0066613295 	0.0014407466 	-1.2277835e-06 	0.0044126363 	-1.3523727e-06 	0.0021807092
0.82222222 	0.0068174395 	0.0015298687 	-1.0286011e-06 	0.0046730074 	-1.2234335e-06 	0.0023523454
0.83333333 	0.0069818068 	0.0016234254 	-7.6324219e-09 	0.0049453909 	-2.9407847e-07 	0.0057662666
0.84444444 	0.0071358828 	0.0017084194 	-1.0723157e-06 	0.0052094208 	-1.3357205e-06 	0.0018014032
0.85555556 	0.0072987471 	0.0017990951 	-8.8912547e-07 	0.0054851808 	-1.2082266e-06 	0.0019422556
0.86666667 	0.0074678145 	0.0018931948 	-1.2901484e-07 	0.0057724487 	-4.6327486e-07 	0.0053516746
0.87777778 	0.0076342395 	0.0019834234 	-9.8050616e-08 	0.0060578025 	-4.3909993e-07 	0.0056310703
0.88888889 	0.0077977947 	0.0020716968 	-4.2638726e-07 	0.0063417174 	-8.0660796e-07 	0.0034276205
0.9 	0.0079638119 	0.0021610501 	-5.5484435e-07 	0.0066304813 	-9.8086358e-07 	0.0018177247
0.91111111 	0.0081313628 	0.0022512794 	-5.3426278e-07 	0.0069261513 	-9.9035286e-07 	0.00099906642
0.92222222 	0.0083006843 	0.0023419893 	-4.1415972e-07 	0.0072276037 	-8.6201047e-07 	0.0011918862
0.93333333 	0.0084688631 	0.0024341925 	-2.4060838e-07 	0.0075372278 	-6.2475631e-07 	0.0026377612
0.94444444 	0.0086321052 	0.0025216195 	-4.7238246e-08 	0.0078490229 	-3.018967e-07 	0.0056009473
0.95555556 	0.0087739653 	0.0026080377 	1.4944721e-08 	0.0081389414 	-1.0711714e-07 	0.0063217161
0.96666667 	0.0088527966 	0.0026620721 	1.6903878e-08 	0.0083888202 	3.2024232e-08 	0.0062977958
0.97777778 	0.0087525655 	0.0026602931 	-2.6598842e-07 	0.0084564308 	-7.6946253e-07 	0.0011329292
0.98888889 	0.0077431741 	0.0024105209 	-4.4205941e-07 	0.0076637522 	-1.2414628e-06 	0.0011212467
