0.47916667 	1.0007836 	0.00069507322 	3.2707104e-05
0.48958333 	1.178943 	0.00027767332 	8.0671238e-06
0.5 	1.2561499 	0.000466197 	5.7872761e-05
0.51041667 	1.3050441 	0.00063744326 	6.7616831e-05
0.52083333 	1.3390299 	0.00083453979 	1.6480206e-05
0.53125 	1.3642166 	0.00099520838 	5.3782524e-05
0.54166667 	1.3830372 	0.001152209 	8.5601537e-05
0.55208333 	1.397113 	0.0012972927 	9.0220494e-05
0.5625 	1.4075866 	0.0014163383 	9.4127335e-05
0.57291667 	1.41525 	0.0015154229 	9.7357589e-05
0.58333333 	1.4206079 	0.0015914267 	4.7761069e-05
0.59375 	1.4242824 	0.0016464382 	2.3985448e-05
0.60416667 	1.4266438 	0.0016854705 	0.00010176726
0.61458333 	1.4279128 	0.0017115132 	0.00010214328
0.625 	1.4283684 	0.0017288245 	5.6969291e-05
0.63541667 	1.4281017 	0.0017391863 	7.7553725e-05
0.64583333 	1.4272233 	0.0017430033 	9.9074252e-05
0.65625 	1.425814 	0.0017395664 	2.2512293e-05
0.66666667 	1.4239853 	0.0017309861 	9.6111073e-05
0.67708333 	1.4217296 	0.0017155079 	7.5300395e-05
0.6875 	1.4190702 	0.0016934483 	9.2665735e-05
0.69791667 	1.4160605 	0.0016658046 	8.8549552e-05
0.70833333 	1.4126621 	0.0016312759 	7.9210202e-05
0.71875 	1.4090006 	0.0015929863 	8.4758209e-05
0.72916667 	1.4050371 	0.0015492757 	8.4736016e-05
0.73958333 	1.4007169 	0.0015011658 	6.7039003e-05
0.75 	1.3961479 	0.0014494151 	8.1252747e-05
0.76041667 	1.3912464 	0.001393753 	5.0641848e-05
0.77083333 	1.3859685 	0.0013342963 	7.8067413e-05
0.78125 	1.3804192 	0.0012723825 	5.5136647e-05
0.79166667 	1.3744917 	0.0012076978 	7.4353512e-05
0.80208333 	1.368219 	0.0011416822 	6.886782e-05
0.8125 	1.3615813 	0.0010736237 	3.569286e-05
0.82291667 	1.3544562 	0.0010051689 	6.1302503e-05
0.83333333 	1.3469712 	0.00093618578 	2.4556479e-05
0.84375 	1.3388888 	0.00086718226 	4.9178077e-05
0.85416667 	1.3301878 	0.0007990269 	4.6958268e-05
0.86458333 	1.3208821 	0.00073213828 	3.2421749e-05
0.875 	1.3107505 	0.00066663075 	5.7697175e-06
0.88541667 	1.2995653 	0.00060349296 	2.9523671e-05
0.89583333 	1.2871938 	0.00054372305 	2.7124456e-05
0.90625 	1.2733695 	0.00048650319 	2.1390518e-05
0.91666667 	1.2577046 	0.00043184177 	1.67109e-05
0.92708333 	1.2396452 	0.00038351231 	1.2866267e-05
0.9375 	1.2184417 	0.00032773493 	9.9620618e-06
0.94791667 	1.1928009 	0.00028040045 	2.8066641e-06
0.95833333 	1.1605688 	0.00023121436 	3.2126026e-06
0.96875 	1.1172644 	0.00017771241 	9.5037447e-08
0.97916667 	1.0505206 	0.00011126597 	-2.9303307e-07
0.98958333 	0.90810775 	-0.00015350131 	-2.7334194e-06
