0.4742268 	0.0036905726 	-0.0011188884 	2.3357518e-08 	0.0036641855 	-1.0153833e-07 	0.0010319742
0.48453608 	0.0095718529 	-0.0030060332 	-1.1334343e-08 	0.0095516499 	2.1772321e-07 	0.0032640249
0.49484536 	0.0088837927 	-0.002805383 	1.2286906e-06 	0.0088408982 	-3.6279273e-06 	0.0036684052
0.50515464 	0.0078991805 	-0.002519606 	-1.3483724e-07 	0.0078436272 	1.3817552e-06 	0.0030416863
0.51546392 	0.0069623722 	-0.0022359664 	3.5641778e-07 	0.0068953593 	-6.2148064e-07 	0.0028006028
0.5257732 	0.0060636907 	-0.0019433244 	2.7341121e-06 	0.0059931297 	-8.0641383e-06 	0.0025055398
0.53608247 	0.0052819061 	-0.0016616542 	7.0759508e-07 	0.0052055313 	-2.178631e-06 	0.0022246076
0.54639175 	0.0046393964 	-0.001397217 	-3.5059836e-07 	0.0045647429 	2.9328755e-07 	0.0019693458
0.55670103 	0.0041430439 	-0.0011515346 	-4.7385171e-07 	0.0040702465 	2.1045361e-07 	0.0017264541
0.56701031 	0.003778763 	-0.0009250744 	6.8317275e-08 	0.0037106959 	-1.0192711e-06 	0.0015777724
0.57731959 	0.003526304 	-0.0007149554 	1.2381028e-06 	0.0034640935 	-2.4944246e-06 	0.0014498416
0.58762887 	0.0033613804 	-0.00051854128 	2.0250111e-06 	0.0033062477 	-2.662872e-06 	0.0013661746
0.59793814 	0.0032629684 	-0.00033404405 	-3.0735739e-07 	0.003214826 	-6.2857456e-07 	0.0013221673
0.60824742 	0.0032224766 	-0.00016007453 	-2.3044105e-07 	0.0031786709 	7.8643536e-10 	4.2093601e-05
0.6185567 	0.0032219568 	-5.6223993e-07 	6.8122696e-09 	0.003187297 	-6.8257697e-07 	0.0013122494
0.62886598 	0.0032530559 	0.00015020947 	9.0379466e-07 	0.0032254177 	-5.7075249e-07 	0.0013312125
0.63917526 	0.0033072459 	0.00029348184 	-3.4758993e-07 	0.0032851226 	-2.2467e-07 	0.00030409671
0.64948454 	0.0033793453 	0.00042477396 	3.4388606e-07 	0.0033671642 	-4.4340948e-07 	0.0013745859
0.65979381 	0.00346488 	0.00054991518 	-3.8611482e-07 	0.0034610043 	-7.136318e-07 	0.0014381166
0.67010309 	0.0035614122 	0.00066729477 	-6.9381101e-07 	0.0035654851 	-7.6515105e-07 	0.0011810854
0.68041237 	0.0036657049 	0.0007764396 	5.5369198e-07 	0.0036787331 	-2.5296058e-07 	0.0015184691
0.69072165 	0.0037754944 	0.00088077482 	-4.2393294e-07 	0.0037950962 	-5.308928e-07 	0.00063196071
0.70103093 	0.0038873637 	0.00097656267 	7.7131341e-07 	0.0039166485 	-1.2949776e-07 	0.0016119112
0.71134021 	0.0040029333 	0.0010687734 	-3.7202764e-07 	0.0040378851 	-5.7458935e-07 	0.00061700732
0.72164948 	0.0041168621 	0.001152915 	4.6988425e-07 	0.0041607235 	-5.3846763e-07 	0.001715166
0.73195876 	0.0042308761 	0.0012327999 	-4.8817985e-07 	0.0042800305 	-1.1050917e-06 	0.0011554844
0.74226804 	0.0043464563 	0.0013086375 	-8.1128286e-09 	0.0044024404 	-1.1904196e-06 	0.0018218504
0.75257732 	0.0044592872 	0.0013796246 	-6.1090124e-07 	0.0045202312 	-1.8241633e-06 	0.0018026626
0.7628866 	0.0045748967 	0.0014478409 	-2.6429198e-07 	0.0046399688 	-1.5155939e-06 	0.0019236603
0.77319588 	0.0046889331 	0.0015124501 	-5.2236739e-07 	0.0047572561 	-1.8287087e-06 	0.0019238838
0.78350515 	0.0048046281 	0.0015742406 	-1.8965973e-07 	0.0048751012 	-1.2712012e-06 	0.0020181433
0.79381443 	0.0049194128 	0.0016327682 	-3.8916638e-07 	0.0049902284 	-1.280992e-06 	0.0015660326
0.80412371 	0.0050376636 	0.0016897024 	8.7875958e-08 	0.005109473 	-5.6653543e-07 	0.0021072466
0.81443299 	0.0051558728 	0.0017432411 	-3.8206775e-08 	0.0052232782 	2.3842036e-08 	0.00023337407
0.82474227 	0.0052804833 	0.0017973342 	9.45412e-08 	0.0053496017 	-1.7674288e-07 	0.0021930754
0.83505155 	0.0054086196 	0.001849436 	-2.2591612e-07 	0.0054750877 	-5.2468068e-07 	0.0022773644
0.84536082 	0.0055420357 	0.0018996443 	-1.2298308e-07 	0.0056027728 	-2.0282687e-07 	0.0013282666
0.8556701 	0.0056858831 	0.0019508889 	1.7008574e-07 	0.0057436579 	6.7662289e-07 	0.002362354
0.86597938 	0.00583854 	0.0020017973 	1.7616167e-08 	0.005890867 	4.441e-07 	0.0024489414
0.87628866 	0.0060021048 	0.0020522939 	3.4799305e-08 	0.0060448871 	3.4786728e-07 	0.00078800835
0.88659794 	0.0061819259 	0.0021055261 	-1.8332751e-08 	0.0062190323 	2.6889561e-07 	0.001568856
0.89690722 	0.0063795819 	0.002161008 	3.1240776e-08 	0.0064113014 	6.0711654e-07 	0.0026319533
0.90721649 	0.0065965187 	0.0022186075 	1.9605075e-07 	0.006621044 	1.2850462e-06 	0.0027287676
0.91752577 	0.0068346037 	0.0022795414 	2.6586264e-07 	0.0068519501 	1.5984196e-06 	0.0028291557
0.92783505 	0.0070941979 	0.0023436049 	2.1667978e-07 	0.007106173 	1.3671148e-06 	0.0029313799
0.93814433 	0.0073746732 	0.002411151 	3.8234105e-08 	0.0073806616 	4.7953616e-07 	0.0030350359
0.94845361 	0.0076664975 	0.0024782852 	8.0313772e-08 	0.0076661181 	4.1406693e-07 	0.00047369754
0.95876289 	0.007962197 	0.0025492516 	7.3890696e-08 	0.0079596714 	6.4691283e-07 	0.0033214925
0.96907216 	0.0082164154 	0.0025944241 	4.225601e-08 	0.0082129063 	2.2937259e-07 	0.001056471
0.97938144 	0.0083592571 	0.0026165984 	-2.7763673e-08 	0.0083565827 	1.3574307e-08 	0.0034644627
0.98969072 	0.0077957154 	0.0024661128 	-4.7385051e-07 	0.0078175057 	-1.6482907e-06 	0.0032701887
