0.47777778 	0.0081163827 	-0.0025907141 	1.2417788e-08 	0.0081076368 	-3.630837e-08 	0.00065093104
0.48888889 	0.0090586979 	-0.0028383795 	2.2333728e-07 	0.009044212 	-7.9868117e-07 	0.0029093615
0.5 	0.0085196034 	-0.0026827126 	4.9817998e-07 	0.008505396 	-1.7818231e-06 	0.0027459725
0.51111111 	0.0078682218 	-0.0024953578 	1.0668414e-06 	0.0078479939 	-3.7286279e-06 	0.0025475341
0.52222222 	0.0072075471 	-0.0022893387 	1.073547e-08 	0.0071892752 	-1.3299837e-07 	0.0015491242
0.53333333 	0.0065703283 	-0.0020855594 	2.1306316e-06 	0.0065496604 	-6.6924413e-06 	0.0020860567
0.54444444 	0.0059699447 	-0.0018841136 	2.2974304e-06 	0.0059491389 	-6.9457275e-06 	0.0019231295
0.55555556 	0.0054203033 	-0.0016873574 	1.4517831e-06 	0.0053981042 	-4.2092958e-06 	0.0017618894
0.56666667 	0.0049295819 	-0.0014957648 	1.2829166e-06 	0.0049075128 	-3.4606424e-06 	0.0016056527
0.57777778 	0.0045045466 	-0.0013102324 	1.7548922e-06 	0.0044825149 	-4.2294413e-06 	0.0014596833
0.58888889 	0.0041471298 	-0.0011307558 	2.8113158e-06 	0.0041258653 	-5.843502e-06 	0.0013288793
0.6 	0.0038554213 	-0.00095735267 	2.470347e-06 	0.0038355263 	-4.2782085e-06 	0.0012181951
0.61111111 	0.0036241523 	-0.00078945143 	4.4770525e-07 	0.0036061939 	-6.262735e-07 	0.0011316811
0.62222222 	0.0034557359 	-0.00062612028 	-3.3400913e-09 	0.0034387551 	2.7247099e-08 	0.00027331729
0.63333333 	0.0033458393 	-0.0004702527 	1.6865981e-06 	0.0033332919 	-1.5967464e-06 	0.0010719055
0.64444444 	0.0032803396 	-0.0003175627 	2.0728862e-06 	0.0032704236 	-1.1463238e-06 	0.0010407604
0.65555556 	0.003253277 	-0.00016757203 	-6.3103058e-09 	0.0032436996 	1.6617486e-08 	0.00014171945
0.66666667 	0.0032689515 	-2.5327015e-05 	2.0259983e-06 	0.0032629609 	-3.5626878e-07 	0.0010381886
0.67777778 	0.0033109471 	0.00011438609 	8.3979975e-07 	0.0033061502 	2.2444438e-07 	0.001063622
0.68888889 	0.003381142 	0.00024953942 	2.2415459e-07 	0.0033773047 	1.4649894e-07 	0.0010637577
0.7 	0.00347894 	0.00037951548 	2.1075622e-06 	0.0034758528 	1.124282e-06 	0.0011162977
0.71111111 	0.0035923191 	0.00050708078 	2.6468705e-09 	0.0035888282 	6.3627012e-08 	0.00063013702
0.72222222 	0.0037263485 	0.00062731467 	2.4905224e-06 	0.0037248055 	2.1293259e-06 	0.0011953157
0.73333333 	0.003870557 	0.00074521265 	1.2546796e-09 	0.0038683491 	5.5088155e-08 	0.0005741313
0.74444444 	0.0040334461 	0.00085916449 	2.3386478e-06 	0.0040337123 	2.773892e-06 	0.0012963568
0.75555556 	0.0042025313 	0.00096989684 	1.4541637e-09 	0.0042020465 	5.330497e-08 	0.00056133735
0.76666667 	0.0043902089 	0.0010794692 	2.3354235e-06 	0.0043925836 	3.4852647e-06 	0.0014085418
0.77777778 	0.004582007 	0.0011853867 	-7.6444471e-09 	0.0045822311 	-7.1212901e-08 	7.1478619e-05
0.78888889 	0.0047876849 	0.0012900528 	1.6537202e-06 	0.0047919008 	2.9797857e-06 	0.0015233423
0.8 	0.004997429 	0.0013917529 	1.0757829e-07 	0.005002382 	4.8202277e-07 	0.00163716
0.81111111 	0.0052149262 	0.0014906642 	2.9387085e-07 	0.0052202022 	8.2925692e-07 	0.0016375752
0.82222222 	0.005438717 	0.0015871538 	1.4148272e-06 	0.0054442167 	3.205194e-06 	0.0017487995
0.83333333 	0.0056661683 	0.0016816444 	1.8966948e-08 	0.0056705311 	2.188512e-07 	0.0013002103
0.84444444 	0.0058996339 	0.0017746095 	1.129014e-07 	0.0059048304 	5.3338894e-07 	0.001856634
0.85555556 	0.0061370996 	0.0018652548 	1.0492109e-06 	0.0061418762 	2.7870031e-06 	0.0019595077
0.86666667 	0.0063777305 	0.0019543956 	6.8716533e-07 	0.0063819558 	1.9979661e-06 	0.0020574705
0.87777778 	0.0066214959 	0.0020419437 	8.9382048e-08 	0.0066249703 	4.6300301e-07 	0.0021503907
0.88888889 	0.006867507 	0.0021272521 	2.6747237e-09 	0.0068670099 	4.9657579e-08 	0.00080456005
0.9 	0.0071164281 	0.0022113774 	-6.6791544e-09 	0.0071134572 	-4.4970534e-08 	0.00013377743
0.91111111 	0.0073680183 	0.0022944611 	-6.1621408e-09 	0.0073633128 	-4.1541999e-08 	0.00013305548
0.92222222 	0.0076212294 	0.0023765512 	2.3384547e-09 	0.007617559 	3.9599101e-08 	0.001058704
0.93333333 	0.0078757654 	0.0024571237 	1.4136563e-07 	0.0078721436 	5.328358e-07 	0.0025406809
0.94444444 	0.0081263941 	0.0025362008 	5.1862969e-07 	0.0081236759 	1.7979983e-06 	0.0026034703
0.95555556 	0.0083710366 	0.0026112145 	4.9844866e-09 	0.0083621231 	5.9859309e-08 	0.0021855501
0.96666667 	0.0085805748 	0.0026699265 	1.1103792e-07 	0.0085745609 	6.358513e-07 	0.0027475319
0.97777778 	0.0087128317 	0.0027087186 	-3.2839957e-08 	0.0087033691 	-1.2785244e-07 	0.0027915502
0.98888889 	0.0082734467 	0.0026067563 	-6.7060322e-07 	0.0082881657 	-2.4032033e-06 	0.0026375838
