0.4742268 	0.0036390528 	-0.0011022759 	2.7266251e-08 	0.0036135752 	-1.1342166e-07 	0.0010187452
0.48453608 	0.0095286497 	-0.002992145 	1.6777069e-08 	0.0095099591 	-1.4152465e-07 	0.0032508967
0.49484536 	0.008889989 	-0.0028057561 	1.1044647e-06 	0.008850938 	-3.8972644e-06 	0.0041542533
0.50515464 	0.0079538347 	-0.0025339944 	-4.7712144e-08 	0.0079027377 	2.2424455e-07 	0.003059753
0.51546392 	0.0070556733 	-0.0022631749 	1.4526089e-07 	0.0069946812 	-5.8306097e-07 	0.0032164404
0.5257732 	0.0061825234 	-0.0019819881 	2.4559879e-06 	0.0061184021 	-7.7359546e-06 	0.0028921317
0.53608247 	0.005410384 	-0.0017092243 	4.8252088e-07 	0.0053402339 	-1.8282792e-06 	0.0025790012
0.54639175 	0.0047633267 	-0.0014518118 	-2.9782282e-07 	0.0046937944 	1.6813155e-07 	0.0020797448
0.55670103 	0.0042513752 	-0.0012108404 	-3.5133685e-07 	0.0041829529 	1.2364873e-07 	0.0017742897
0.56701031 	0.0038642906 	-0.00098759317 	-1.3890088e-07 	0.0038004397 	-4.9283431e-07 	0.00183044
0.57731959 	0.0035888804 	-0.00078005728 	1.0286631e-06 	0.0035299726 	-2.0809358e-06 	0.0016736946
0.58762887 	0.0034023296 	-0.00058562292 	1.8093747e-06 	0.0033499253 	-2.2777648e-06 	0.0015667318
0.59793814 	0.0032847892 	-0.00040259548 	-5.2316207e-07 	0.0032390605 	8.278519e-08 	0.0015057596
0.60824742 	0.0032293732 	-0.00022946836 	-2.3504768e-07 	0.0031873403 	5.5455634e-08 	4.2115815e-05
0.6185567 	0.0032149712 	-7.0259129e-05 	-2.1315391e-07 	0.0031818982 	1.1338215e-07 	0.0014850946
0.62886598 	0.0032358368 	8.0728284e-05 	6.6390159e-07 	0.003209038 	3.1037939e-07 	0.001499066
0.63917526 	0.003282707 	0.00022450909 	-3.4296868e-07 	0.003260241 	3.252928e-08 	0.00030159644
0.64948454 	0.0033482928 	0.00035679092 	8.3101055e-08 	0.0033350681 	6.2282637e-07 	0.001542583
0.65979381 	0.0034297846 	0.00048331244 	-6.9243628e-07 	0.0034238684 	4.928028e-07 	0.0016109793
0.67010309 	0.0035248084 	0.00060241737 	-6.9568265e-07 	0.0035254869 	2.6458279e-07 	0.0011692322
0.68041237 	0.0036282487 	0.00071406844 	2.724468e-07 	0.0036372381 	1.0220031e-06 	0.001700668
0.69072165 	0.0037397498 	0.0008211647 	-4.3450396e-07 	0.0037539664 	3.0647888e-08 	0.00062550295
0.70103093 	0.0038540593 	0.00092051993 	5.3312755e-07 	0.0038773404 	1.2106357e-06 	0.0018078061
0.71134021 	0.0039743356 	0.001016512 	-3.8409772e-07 	0.0040019167 	-3.7750424e-08 	0.0006115479
0.72164948 	0.004093724 	0.0011052478 	2.8641935e-07 	0.0041296822 	8.4142057e-07 	0.0019290417
0.73195876 	0.004214815 	0.001189605 	-5.0194879e-07 	0.0042546969 	-1.2627358e-07 	0.0011484966
0.74226804 	0.0043386824 	0.0012709274 	-1.2636851e-07 	0.0043850669 	2.2446234e-07 	0.0020571558
0.75257732 	0.0044605519 	0.0013469136 	-5.8003245e-07 	0.0045106112 	-3.1424701e-07 	0.0017988645
0.7628866 	0.0045866092 	0.0014210238 	-3.0766573e-07 	0.0046408524 	-4.44366e-08 	0.0021817664
0.77319588 	0.0047116179 	0.0014911803 	-4.9271895e-07 	0.0047683339 	-2.9534967e-07 	0.00202993
0.78350515 	0.0048391363 	0.001558753 	-1.51012e-07 	0.0048982813 	2.6213935e-07 	0.002298954
0.79381443 	0.0049661198 	0.0016226834 	-2.8694358e-07 	0.0050250435 	-3.2022961e-08 	0.0015765562
0.80412371 	0.0050972013 	0.0016853362 	2.0534027e-07 	0.0051580202 	1.0051985e-06 	0.0024102962
0.81443299 	0.00522822 	0.0017439119 	-3.2811755e-08 	0.0052844663 	1.9553242e-07 	0.00023591365
0.82474227 	0.0053662555 	0.0018034302 	2.1953441e-07 	0.0054255131 	1.2523109e-06 	0.0025177312
0.83505155 	0.0055075555 	0.0018602808 	-1.3199314e-07 	0.0055647312 	5.8533196e-07 	0.0024801299
0.84536082 	0.0056541512 	0.0019150531 	-5.264192e-08 	0.0057061934 	4.7260237e-07 	0.0013519608
0.8556701 	0.0058106921 	0.0019707885 	2.7142115e-07 	0.0058615728 	1.6941326e-06 	0.0027280523
0.86597938 	0.0059754512 	0.0020257067 	7.4371708e-08 	0.0060221331 	1.1620724e-06 	0.0028339508
0.87628866 	0.0061501474 	0.0020796795 	4.856691e-08 	0.0061878645 	5.3310371e-07 	0.00080704149
0.88659794 	0.0063396457 	0.0021360923 	2.7956517e-08 	0.0063731868 	6.4122385e-07 	0.0016067684
0.89690722 	0.006544602 	0.0021942466 	5.3995376e-08 	0.0065749881 	9.5493928e-07 	0.0030524729
0.90721649 	0.006765797 	0.0022535395 	2.0904272e-07 	0.0067905215 	1.5019749e-06 	0.0031649436
0.91752577 	0.0070041668 	0.0023151554 	2.6058489e-07 	0.0070230771 	1.6717925e-06 	0.0032792344
0.92783505 	0.0072588829 	0.0023785895 	1.9628315e-07 	0.0072737648 	1.3283864e-06 	0.003393245
0.93814433 	0.0075285544 	0.0024440135 	1.6757108e-08 	0.0075381513 	4.0907214e-07 	0.0035065612
0.94845361 	0.0078026579 	0.0025073384 	7.4947264e-08 	0.0078054469 	4.0180796e-07 	0.00048253384
0.95876289 	0.0080757356 	0.0025740253 	4.7717104e-08 	0.0080768845 	4.8885189e-07 	0.0038086256
0.96907216 	0.0083021865 	0.0026131438 	4.274856e-08 	0.0083008711 	2.257706e-07 	0.0010666125
0.97938144 	0.0084187591 	0.0026310558 	-1.6723255e-08 	0.0084180129 	1.5310273e-08 	0.0039482556
0.98969072 	0.0078368881 	0.0024785464 	-3.4783549e-07 	0.0078602858 	-1.2156771e-06 	0.0037183816
