0.4742268 	0.0036728669 	-0.0011131787 	2.4847162e-08 	0.0036467929 	-1.0844643e-07 	0.0010274322
0.48453608 	0.0095573854 	-0.0030013511 	-2.2557037e-10 	0.0095377094 	6.3028981e-08 	0.0032596563
0.49484536 	0.008886146 	-0.0028054645 	1.1852301e-06 	0.0088446243 	-3.7268133e-06 	0.0038304438
0.50515464 	0.0079178975 	-0.0025243739 	-1.0994789e-07 	0.0078640219 	1.0035863e-06 	0.0030479396
0.51546392 	0.006994149 	-0.0022451478 	2.6025799e-07 	0.0069293632 	-5.1606054e-07 	0.0029383793
0.5257732 	0.0061040098 	-0.0019564672 	2.6061532e-06 	0.0060358581 	-7.8608836e-06 	0.0026333305
0.53608247 	0.0053251932 	-0.0016778907 	5.8963635e-07 	0.0052511636 	-1.9731675e-06 	0.0023414617
0.54639175 	0.0046805933 	-0.0014158951 	-4.2770937e-07 	0.0046079937 	4.3300543e-07 	0.0020429995
0.55670103 	0.0041787052 	-0.0011717997 	-4.8430163e-07 	0.0041076705 	2.4526373e-07 	0.0017423516
0.56701031 	0.0038063774 	-0.00094645698 	-6.9031381e-08 	0.0037400222 	-7.9031777e-07 	0.0016605798
0.57731959 	0.0035459658 	-0.00073724584 	1.0893296e-06 	0.0034851804 	-2.3106565e-06 	0.0015231973
0.58762887 	0.0033736555 	-0.00054153537 	1.8624521e-06 	0.0033197927 	-2.487019e-06 	0.0014319924
0.59793814 	0.0032687821 	-0.00035756357 	-4.8194513e-07 	0.0032218298 	-3.363564e-07 	0.0013825879
0.60824742 	0.0032233002 	-0.00018390724 	-2.3515775e-07 	0.0031804762 	2.0023494e-08 	4.2085244e-05
0.6185567 	0.0032181734 	-2.4529531e-05 	-1.8134536e-07 	0.003184443 	-3.5419954e-07 	0.0013693382
0.62886598 	0.0032459097 	0.00012627445 	6.9800241e-07 	0.0032189444 	-2.1092298e-07 	0.0013868629
0.63917526 	0.0032977243 	0.00026967086 	-3.7425141e-07 	0.0032758652 	-1.2129639e-07 	0.00030317004
0.64948454 	0.003367735 	0.00040124224 	1.2307754e-07 	0.0033555842 	-2.9727084e-08 	0.0014304757
0.65979381 	0.0034520126 	0.00052678727 	-6.2590994e-07 	0.0034478237 	-2.7573281e-07 	0.0014957813
0.67010309 	0.003548132 	0.00064468554 	-8.0378074e-07 	0.0035514263 	-3.6486485e-07 	0.0011768373
0.68041237 	0.0036522591 	0.00075462843 	3.2299534e-07 	0.003664278 	1.7194564e-07 	0.0015793508
0.69072165 	0.0037627235 	0.00085984868 	-4.8281984e-07 	0.0037808376 	-3.3026606e-07 	0.00062968698
0.70103093 	0.0038755284 	0.000956815 	5.6223206e-07 	0.0039030895 	2.6772786e-07 	0.0016773974
0.71134021 	0.0039927717 	0.0010502899 	-4.2442657e-07 	0.0040254978 	-4.0141372e-07 	0.00061510378
0.72164948 	0.0041086467 	0.0011360008 	2.9341231e-07 	0.0041500507 	-1.8395472e-07 	0.001786606
0.73195876 	0.0042251206 	0.0012174306 	-5.6977275e-07 	0.0042712906 	-8.2276737e-07 	0.0011530551
0.74226804 	0.0043436106 	0.0012952016 	-1.4197134e-07 	0.0043964075 	-8.5897581e-07 	0.0019003188
0.75257732 	0.0044595724 	0.0013679702 	-6.9367896e-07 	0.0045167983 	-1.4163372e-06 	0.0018013217
0.7628866 	0.0045788437 	0.0014383127 	-3.4913861e-07 	0.0046400976 	-1.1548144e-06 	0.0020095831
0.77319588 	0.0046967163 	0.0015050061 	-6.1857289e-07 	0.0047609455 	-1.4866843e-06 	0.0020098134
0.78350515 	0.004816551 	0.0015688599 	-2.2412892e-07 	0.0048827947 	-8.4889481e-07 	0.0021114929
0.79381443 	0.0049356115 	0.001629396 	-3.8999373e-07 	0.0050018974 	-9.0040502e-07 	0.0015696462
0.80412371 	0.0050583777 	0.0016884369 	9.8838972e-08 	0.0051258663 	-8.6712436e-08 	0.0022078845
0.81443299 	0.0051810874 	0.001743841 	-3.8125157e-08 	0.0052440578 	8.1770084e-08 	0.00023425082
0.82474227 	0.0053104401 	0.0017999262 	1.1943983e-07 	0.005375487 	2.883878e-07 	0.0023008058
0.83505155 	0.0054432271 	0.0018537962 	-2.1857244e-07 	0.0055058882 	-1.6498184e-07 	0.0023919586
0.84536082 	0.0055812837 	0.0019056201 	-1.0462379e-07 	0.0056383216 	4.1791944e-08 	0.0013365016
0.8556701 	0.0057296154 	0.0019584586 	1.968089e-07 	0.0057843082 	1.0314792e-06 	0.0024835885
0.86597938 	0.0058865504 	0.0020107707 	3.0577318e-08 	0.0059362601 	6.9869504e-07 	0.0025765533
0.87628866 	0.0060540724 	0.0020624774 	3.8092739e-08 	0.0060945036 	4.1913123e-07 	0.00079466086
0.88659794 	0.0062373729 	0.0021168036 	-4.9702093e-09 	0.0062727036 	4.1016074e-07 	0.0015821082
0.89690722 	0.0064376865 	0.0021731872 	3.4473821e-08 	0.0064684595 	7.355512e-07 	0.002771377
0.90721649 	0.0066562504 	0.0022313469 	1.966492e-07 	0.0066804426 	1.3701935e-06 	0.0028734518
0.91752577 	0.006894588 	0.0022924847 	2.6089685e-07 	0.0069121668 	1.6350508e-06 	0.0029785483
0.92783505 	0.007152623 	0.0023562951 	2.0721895e-07 	0.007165388 	1.3647779e-06 	0.0030847955
0.93814433 	0.0074294108 	0.0024230516 	2.9180586e-08 	0.0074365296 	4.651333e-07 	0.0031917697
0.94845361 	0.0077150348 	0.0024887872 	7.822329e-08 	0.0077157241 	4.1224282e-07 	0.00047683908
0.95876289 	0.0080026111 	0.00255813 	6.3672528e-08 	0.0080013785 	5.9804703e-07 	0.003483598
0.96907216 	0.008246762 	0.0026010504 	4.2395438e-08 	0.0082440771 	2.3066901e-07 	0.0010600501
0.97938144 	0.0083799705 	0.0026215781 	-2.4478713e-08 	0.0083780051 	1.4419653e-08 	0.0036254061
0.98969072 	0.0078096178 	0.0024702798 	-4.3204586e-07 	0.0078319603 	-1.5051965e-06 	0.0034192133
