4.0776948e-36 	0.003854029 	-2.6174603e-16 	-9.5137754e-23 	1.7776458e-29 	6.4612718e-36 	2.3485013e-42
0.010869565 	0.0038684029 	-0.00014914803 	3.40602e-08 	0.0041666053 	-1.2182502e-05 	0.00162554
0.02173913 	0.0039186122 	-0.00029308479 	2.1038567e-08 	0.0042150599 	-9.6285924e-06 	0.001851112
0.032608696 	0.0039979259 	-0.00043259793 	1.2582165e-08 	0.0042909466 	-2.1992505e-06 	0.0020836322
0.043478261 	0.004101033 	-0.00056529725 	6.4309208e-08 	0.0043891053 	-4.5803745e-06 	0.0023405839
0.054347826 	0.0042215997 	-0.00069036333 	1.6234567e-07 	0.0045005541 	-4.6614411e-07 	0.0012981918
0.065217391 	0.0043616485 	-0.00081306265 	3.1869707e-07 	0.0046297462 	-8.4540279e-07 	0.00053749061
0.076086957 	0.0044823327 	-0.00090820381 	2.5809763e-07 	0.0047420428 	-6.9835448e-07 	0.001396682
0.086956522 	0.0046087869 	-0.0010019316 	1.058756e-07 	0.0048600585 	-1.4650255e-06 	0.0034113331
0.097826087 	0.0047299189 	-0.0010862167 	8.3304299e-08 	0.0049672503 	-3.1395491e-07 	0.0032652704
0.10869565 	0.0048376309 	-0.0011596844 	5.876509e-07 	0.0050543122 	-1.4710958e-06 	0.00025382875
0.11956522 	0.0049272862 	-0.0012225863 	1.3245072e-07 	0.0051352756 	-4.4777622e-07 	0.0034927896
0.13043478 	0.0049999303 	-0.0012750383 	2.4360203e-07 	0.0051904919 	-7.1183835e-07 	0.0030404729
0.14130435 	0.0050502124 	-0.0013161524 	5.5860249e-07 	0.005219819 	-1.4084115e-06 	0.0011184738
0.15217391 	0.0050864783 	-0.0013507372 	4.0914117e-08 	0.005246346 	-2.7829591e-07 	0.0048246271
0.16304348 	0.0050891328 	-0.0013690438 	7.1271924e-07 	0.005221941 	-1.7373187e-06 	0.00025072096
0.17391304 	0.0050856043 	-0.0013851894 	7.8420154e-08 	0.0052103886 	-3.6497676e-07 	0.0048912577
0.18478261 	0.0050439205 	-0.0013831717 	6.4039795e-07 	0.0051428301 	-1.5620174e-06 	0.00064686669
0.19565217 	0.0050022238 	-0.0013817083 	7.811305e-08 	0.0050926441 	-3.4210007e-07 	0.0047437455
0.20652174 	0.0049218424 	-0.0013612162 	5.5929006e-07 	0.0049876102 	-1.3567436e-06 	0.00033460674
0.2173913 	0.0048480654 	-0.0013443561 	2.5380811e-07 	0.0049070203 	-9.9760091e-07 	0.004543797
0.22826087 	0.0047385873 	-0.0013082599 	4.0626821e-07 	0.0047762498 	-1.0217167e-06 	0.00061743511
0.23913043 	0.00463631 	-0.0012759675 	1.1442208e-07 	0.0046665551 	-3.353806e-07 	0.0033834129
0.25 	0.004515184 	-0.0012312653 	1.8678209e-07 	0.0045317809 	-5.289531e-07 	0.0020263722
0.26086957 	0.0043911023 	-0.0011839093 	1.9234304e-07 	0.0043971504 	-5.1660693e-07 	0.00169372
0.27173913 	0.0042692115 	-0.0011359584 	2.1963511e-07 	0.004269846 	-6.6509093e-07 	0.0034906499
0.2826087 	0.004136562 	-0.0010767067 	2.1089146e-07 	0.0041240513 	-6.8162363e-07 	0.00015050181
0.29347826 	0.0040156817 	-0.0010242346 	5.2225071e-08 	0.0040018745 	-1.0102806e-07 	0.0027812187
0.30434783 	0.0038953713 	-0.00096533821 	5.9040221e-08 	0.0038759377 	-1.7266812e-07 	0.0022980305
0.31521739 	0.0037785144 	-0.00090405067 	1.1223746e-07 	0.0037521961 	-4.6382755e-07 	0.00058426771
0.32608696 	0.0036712219 	-0.00084765566 	7.6716837e-07 	0.0036454154 	-1.8905064e-06 	0.0025986946
0.33695652 	0.0035719844 	-0.00078758935 	4.7180975e-08 	0.0035423461 	-1.6137648e-07 	0.0017659078
0.34782609 	0.0034802915 	-0.00072784605 	6.6981051e-08 	0.0034468783 	-3.7173064e-07 	0.00066708198
0.35869565 	0.0033970203 	-0.00067227697 	9.3656238e-07 	0.0033650445 	-2.0530428e-06 	0.0022422852
0.36956522 	0.0033238092 	-0.0006153323 	3.1911392e-08 	0.0032898932 	-4.3571944e-08 	0.0018148898
0.38043478 	0.0032602102 	-0.00055850545 	5.1648046e-08 	0.0032226598 	-4.2658183e-07 	0.00033368158
0.39130435 	0.0032023014 	-0.00050641472 	3.7622896e-07 	0.0031670345 	-6.2653447e-07 	0.0019784276
0.40217391 	0.0031545864 	-0.00045371246 	5.115359e-07 	0.0031184894 	-9.078458e-07 	0.0019403507
0.41304348 	0.0031159718 	-0.00040056338 	4.2306196e-08 	0.0030761643 	-3.9808491e-07 	0.00036087661
0.42391304 	0.0030816379 	-0.00035144585 	2.8226139e-08 	0.0030430156 	-2.4975044e-08 	0.0013650434
0.43478261 	0.0030554218 	-0.00030279858 	1.8217127e-06 	0.0030167444 	-3.090414e-06 	0.0017647327
0.44565217 	0.0030340479 	-0.00025385095 	2.676902e-08 	0.0029937272 	-9.8227305e-09 	0.0013583918
0.45652174 	0.0030207418 	-0.00020534954 	3.9614802e-08 	0.002977503 	-3.5369393e-07 	0.00033075464
0.4673913 	0.0030092119 	-0.00016027939 	3.2174166e-07 	0.0029675032 	-3.0863506e-07 	0.0016520757
0.47826087 	0.0030051074 	-0.00011484967 	1.2699023e-06 	0.002962241 	-1.7552417e-06 	0.001628455
0.48913043 	0.0030043579 	-6.9239645e-05 	3.0029271e-08 	0.0029591779 	-6.6589673e-08 	0.0010254763
0.5 	0.0030090731 	-2.3794022e-05 	3.7153555e-08 	0.0029617097 	-2.257735e-07 	0.00054590357
0.51086957 	0.0030157729 	2.0702404e-05 	6.8027249e-07 	0.0029690217 	-6.3748298e-07 	0.0015708704
0.52173913 	0.0030271233 	6.5014231e-05 	9.8791583e-07 	0.0029789173 	-1.0161591e-06 	0.001552426
0.5326087 	0.0030420407 	0.00010922818 	3.3527114e-08 	0.002990956 	-9.5504054e-08 	0.00081061341
0.54347826 	0.0030612468 	0.00015413778 	3.5084221e-08 	0.0030086104 	-7.9459273e-08 	0.00082911511
0.55434783 	0.003083876 	0.0001995547 	1.1039794e-06 	0.0030309147 	-7.7020726e-07 	0.0015359188
0.56521739 	0.0031089057 	0.00024472325 	4.3734447e-07 	0.0030542355 	-1.8426281e-07 	0.0015214728
0.57608696 	0.003138997 	0.00028945858 	4.076958e-08 	0.0030801554 	-2.5940827e-07 	0.00020813658
0.58695652 	0.0031717851 	0.00033586474 	1.3012624e-07 	0.0031136974 	1.3632971e-07 	0.0015467659
0.59782609 	0.0032094204 	0.0003819718 	1.1670566e-06 	0.0031496391 	-4.3520432e-07 	0.0015353838
0.60869565 	0.0032489736 	0.00042787214 	3.3260949e-08 	0.0031864363 	5.2345311e-09 	0.00093083448
0.61956522 	0.0032935431 	0.00047461768 	3.434335e-08 	0.00322975 	4.700138e-08 	0.0010796093
0.63043478 	0.0033423721 	0.00052198777 	1.3421033e-06 	0.003278129 	-7.9619479e-08 	0.0015710572
0.64130435 	0.0033928655 	0.00056906573 	3.179868e-08 	0.0033269218 	1.3601065e-07 	0.0013469551
0.65217391 	0.0034492495 	0.00061632066 	3.2203097e-08 	0.00338143 	-4.1515753e-09 	0.00087439547
0.66304348 	0.0035098473 	0.00066464758 	1.1609375e-06 	0.0034426723 	3.431682e-07 	0.0016250556
0.67391304 	0.003572276 	0.00071242966 	3.0906501e-08 	0.0035040027 	1.3409206e-07 	0.0013617193
0.68478261 	0.003640353 	0.00076026606 	2.8771225e-08 	0.0035715094 	6.7272572e-08 	0.0011568342
0.69565217 	0.0037127312 	0.00080867654 	1.0700946e-06 	0.0036450528 	6.7301073e-07 	0.0016940212
0.70652174 	0.0037869021 	0.00085603302 	1.7970278e-08 	0.0037180203 	-2.3976939e-09 	0.00084017131
0.7173913 	0.0038663344 	0.00090418962 	1.8442892e-07 	0.0038000813 	3.0874248e-07 	0.0017783042
0.72826087 	0.0039486744 	0.00095148992 	4.4535466e-07 	0.0038836932 	5.0999654e-07 	0.0017740181
0.73913043 	0.0040328395 	0.00099720535 	-4.332638e-09 	0.0039670421 	-1.0955679e-07 	0.00045369646
0.75 	0.0041214542 	0.0010439042 	8.2145386e-07 	0.0040605063 	1.0156259e-06 	0.0018636976
0.76086957 	0.0042100214 	0.0010884114 	-3.3239151e-09 	0.004149731 	-2.7226272e-08 	0.00089883461
0.77173913 	0.004301332 	0.0011326415 	3.0484373e-07 	0.0042460757 	5.203532e-07 	0.0019531621
0.7826087 	0.00439252 	0.0011753676 	2.6214025e-08 	0.0043405248 	1.5265649e-07 	0.0019075935
0.79347826 	0.0044830109 	0.0012159983 	6.1802029e-08 	0.0044350775 	1.9533233e-07 	0.0020379987
0.80434783 	0.0045722093 	0.00125506 	1.2668081e-07 	0.0045285084 	2.8981328e-07 	0.0020362031
0.81521739 	0.0046583726 	0.0012917778 	1.8598721e-08 	0.0046192829 	1.0636997e-07 	0.0020490806
0.82608696 	0.0047409602 	0.0013264012 	8.2944193e-08 	0.0047067484 	2.097604e-07 	0.0021128695
0.83695652 	0.0048178019 	0.0013582072 	5.4691981e-08 	0.0047885031 	1.3984046e-07 	0.0021785698
0.84782609 	0.0048883332 	0.0013872438 	-2.2680477e-09 	0.0048636144 	1.4472147e-08 	0.0017942859
0.85869565 	0.0049496442 	0.0014129685 	8.7249437e-08 	0.0049312496 	5.6061988e-08 	0.0022287165
0.86956522 	0.0050022919 	0.0014348871 	-9.3017835e-08 	0.0049845888 	-3.522416e-07 	0.00018667407
0.88043478 	0.0050440721 	0.0014547576 	1.3879877e-08 	0.0050349691 	-1.6671486e-07 	0.0022641158
0.89130435 	0.0050735285 	0.0014708016 	-6.3820918e-09 	0.0050699411 	-6.4319959e-08 	0.0022839301
0.90217391 	0.0050885931 	0.0014812737 	-7.0692447e-08 	0.0050856783 	-2.8548795e-07 	0.00063706675
0.91304348 	0.005089264 	0.0014894491 	-6.7187397e-08 	0.005091225 	-4.2862273e-07 	0.0022891472
0.92391304 	0.0050747513 	0.0014950629 	-1.8174472e-07 	0.0050771325 	-8.6748098e-07 	0.0022815465
0.93478261 	0.0050413051 	0.0014907644 	-5.0864347e-08 	0.0050466818 	-2.4237017e-07 	0.0022622743
0.94565217 	0.0049871681 	0.0014853613 	-1.9917079e-07 	0.0049909542 	-1.0710329e-06 	0.0022432344
0.95652174 	0.0049153658 	0.0014757077 	-3.7874826e-08 	0.0049134528 	-1.9024484e-07 	0.00051711827
0.9673913 	0.0048132703 	0.0014618606 	-4.8811536e-08 	0.004811446 	-2.5890859e-07 	0.0021716005
0.97826087 	0.0046343543 	0.0014320074 	-1.3869572e-08 	0.0046355549 	-7.2407872e-08 	0.00050025088
0.98913043 	0.0037711588 	0.0011923706 	-5.9107366e-09 	0.0037584386 	-2.3928426e-08 	0.0004055664
