0.35555556 	0.0062761787 	-0.0020479764 	-2.8706624e-07 	0.0082004551 	1.1051453e-06 	0.0020140904
0.36666667 	0.0068937601 	-0.0021762801 	6.9046973e-07 	0.0083577652 	-4.2579924e-06 	0.0017490229
0.37777778 	0.0067881269 	-0.0020733066 	-3.9450799e-07 	0.0076799301 	1.7125304e-06 	3.4981569e-05
0.38888889 	0.0065916456 	-0.0019377782 	1.0900447e-07 	0.0069578274 	-4.6410989e-07 	0.00079388073
0.4 	0.0064154586 	-0.0018215215 	7.8418529e-07 	0.0063640907 	-3.3538755e-06 	0.00037331173
0.41111111 	0.006231225 	-0.001696162 	1.6541777e-06 	0.0057931687 	-6.9302324e-06 	1.1844695e-05
0.42222222 	0.0060505699 	-0.0015762482 	1.7639318e-06 	0.0052707433 	-7.0970632e-06 	0.0003157151
0.43333333 	0.0058746837 	-0.0014608068 	1.4348855e-06 	0.0047942322 	-5.4744977e-06 	0.00057650093
0.44444444 	0.0057044186 	-0.0013482133 	6.9424665e-07 	0.0043572175 	-2.4775917e-06 	0.00079486194
0.45555556 	0.0055447487 	-0.0012394911 	-4.8017161e-07 	0.0039584456 	6.2925825e-07 	0.00024079214
0.46666667 	0.0053986138 	-0.0011318192 	5.7104626e-07 	0.003594175 	-1.8940307e-06 	0.0011688481
0.47777778 	0.0052695409 	-0.0010266082 	2.1442157e-06 	0.0032637432 	-6.7518561e-06 	0.0012854984
0.48888889 	0.0051592556 	-0.00092445096 	1.3954722e-06 	0.002962603 	-4.0797381e-06 	0.0013781883
0.5 	0.0050715 	-0.00082957364 	-1.0768668e-06 	0.0026970744 	9.7263398e-07 	0.00020380052
0.51111111 	0.0050103682 	-0.00073633549 	1.2182502e-06 	0.0024614378 	-3.2553504e-06 	0.0015690508
0.52222222 	0.0049699397 	-0.00064851794 	1.041694e-06 	0.0022589535 	-2.4788342e-06 	0.00161812
0.53333333 	0.0049479621 	-0.00056894912 	-8.6868351e-07 	0.0020916567 	5.9267835e-07 	0.0007659403
0.54444444 	0.0049405556 	-0.00049039276 	2.0514127e-06 	0.0019671444 	-3.4391136e-06 	0.0017380258
0.55555556 	0.0049342787 	-0.00041690434 	-1.0034822e-06 	0.0018892214 	7.0127853e-07 	0.00072031967
0.56666667 	0.0049374005 	-0.00034493696 	1.270971e-06 	0.0018449289 	-1.2910171e-06 	0.0018109337
0.57777778 	0.0049524309 	-0.0002778324 	-4.6957742e-07 	0.0018233713 	2.8767543e-07 	0.0013217763
0.58888889 	0.0049861152 	-0.00021204982 	1.0201404e-06 	0.0018123303 	-7.4231387e-07 	0.0018580007
0.6 	0.005036624 	-0.00014738342 	-5.5566513e-07 	0.0018148997 	2.7892406e-07 	0.0012682909
0.61111111 	0.0051039786 	-8.4379167e-05 	1.2085994e-06 	0.0018243156 	-5.4109304e-07 	0.0018949725
0.62222222 	0.0051852792 	-2.4516789e-05 	-1.1511433e-06 	0.0018456077 	5.1537285e-07 	0.00064475711
0.63333333 	0.0052805176 	3.6528651e-05 	1.7565117e-06 	0.001872524 	-2.5752153e-07 	0.0019277699
0.64444444 	0.0053839396 	9.4873909e-05 	-1.221786e-06 	0.0019080855 	3.2688515e-07 	0.00055788217
0.65555556 	0.0054919566 	0.00015689295 	1.0480042e-06 	0.0019625216 	6.1373181e-07 	0.0019569333
0.66666667 	0.0055866077 	0.00021756839 	2.7960559e-07 	0.0020395174 	5.7380676e-08 	0.0019378452
0.67777778 	0.0056771172 	0.00028041004 	-1.1682642e-07 	0.0021591726 	-9.2236537e-08 	0.0017890457
0.68888889 	0.0057605579 	0.0003476592 	1.5225438e-06 	0.0022922563 	2.1783601e-06 	0.001922859
0.7 	0.0058420301 	0.00041373178 	-1.4443103e-06 	0.0024406245 	2.7265466e-08 	5.0030322e-05
0.71111111 	0.0059386306 	0.00049085442 	1.8129559e-06 	0.0026049663 	3.1569682e-06 	0.0018955046
0.72222222 	0.0060272015 	0.00056681452 	-3.4259469e-07 	0.0027763499 	-1.0628499e-07 	0.001346117
0.73333333 	0.0061281034 	0.00064806639 	1.1620157e-06 	0.0029684663 	2.1564252e-06 	0.0018534811
0.74444444 	0.0062258384 	0.00073147724 	2.313724e-07 	0.003161329 	3.2511883e-07 	0.0017947846
0.75555556 	0.0063349067 	0.00081759652 	9.2678958e-07 	0.0033707517 	1.7807255e-06 	0.001795965
0.76666667 	0.0064430071 	0.00090667274 	3.5042803e-07 	0.0035812108 	6.0158526e-07 	0.0017270488
0.77777778 	0.0065606754 	0.00099785588 	1.1525481e-06 	0.0038057965 	2.3333265e-06 	0.0017194055
0.78888889 	0.0066779122 	0.0010915582 	1.3810506e-08 	0.0040311344 	-7.7479063e-08 	0.0016412751
0.8 	0.006804159 	0.0011871987 	1.8380747e-06 	0.0042696346 	3.9067158e-06 	0.0016216182
0.81111111 	0.0069272779 	0.0012826375 	-6.3964222e-07 	0.0045075487 	-2.78038e-07 	4.1360222e-05
0.82222222 	0.0070633168 	0.0013833932 	1.512349e-06 	0.0047582409 	3.2992837e-06 	0.0015014822
0.83333333 	0.0071987249 	0.0014829752 	7.7757977e-07 	0.0050118829 	1.7076948e-06 	0.0014597548
0.84444444 	0.0073353697 	0.0015839941 	-6.8346071e-08 	0.0052682693 	-1.1908535e-07 	0.0011561712
0.85555556 	0.0074776891 	0.0016856631 	1.4489426e-06 	0.0055336112 	3.3697529e-06 	0.0013013474
0.86666667 	0.0076215403 	0.0017875256 	1.1956067e-06 	0.0058025549 	2.8668244e-06 	0.0012343573
0.87777778 	0.0077674582 	0.0018897386 	1.1516949e-07 	0.0060759764 	2.3263161e-07 	0.0011575924
0.88888889 	0.0079154941 	0.0019926745 	5.4776678e-08 	0.0063540226 	8.5787705e-08 	0.0010393217
0.9 	0.0080659458 	0.0020950959 	6.2631305e-07 	0.0066388294 	1.5998811e-06 	0.00094814204
0.91111111 	0.008217472 	0.0021969348 	9.1363773e-07 	0.0069282673 	2.4565376e-06 	0.00084787904
0.92222222 	0.0083685902 	0.0022979308 	9.5356106e-07 	0.0072218287 	2.6716836e-06 	0.00073911407
0.93333333 	0.0085149691 	0.0023954593 	7.3466163e-07 	0.0075173238 	2.2210399e-06 	0.00062184833
0.94444444 	0.008649791 	0.0024877215 	3.7718835e-07 	0.0078050823 	1.1559722e-06 	0.00049676592
0.95555556 	0.0087450753 	0.0025603926 	3.3803768e-09 	0.0080575661 	1.1571027e-08 	0.00036828073
0.96666667 	0.0087585572 	0.0026068176 	8.4479004e-10 	0.0082584913 	9.3509135e-09 	0.00022588592
0.97777778 	0.0085165968 	0.0025684321 	-8.6790388e-07 	0.0082127786 	-2.2661664e-06 	7.9947897e-05
0.98888889 	0.0072097139 	0.0022336542 	-2.6407872e-06 	0.0071247999 	-9.1637267e-06 	7.8445028e-05
