0.21649485 	4.2845786e-05 	-5.0708895e-06 	-2.1127312e-07 	3.5164624e-05 	1.0006337e-06 	1.1230406e-05
0.22680412 	0.0046403914 	-0.0010025257 	-2.7880013e-05 	0.0037188862 	8.0491796e-05 	0.0019372642
0.2371134 	0.0031080009 	3.8125068e-05 	9.817118e-05 	0.0048945937 	-0.00030909012 	0.0011252988
0.24742268 	0.0027859967 	-0.00012475062 	-8.0155379e-05 	0.0044232157 	0.00025058982 	0.00065442716
0.25773196 	0.0024136269 	-6.521714e-05 	1.9904189e-05 	0.004132906 	-5.4979481e-05 	0.00028787485
0.26804124 	0.0022222546 	-8.704775e-05 	-6.4154632e-07 	0.0038574583 	4.3164454e-08 	4.7281515e-05
0.27835052 	0.0020997047 	-0.00014558202 	-4.072178e-06 	0.0037030978 	1.3349013e-05 	0.00011412072
0.28865979 	0.0020137925 	-0.00015114724 	-5.7151625e-06 	0.0035471563 	1.9522006e-05 	0.00016447243
0.29896907 	0.001940353 	-0.00014803559 	2.0459966e-06 	0.0034499016 	4.692097e-06 	0.0005302239
0.30927835 	0.0018803204 	-0.00013829176 	5.3811997e-06 	0.0033725058 	-1.4906763e-05 	0.00068595733
0.31958763 	0.0018349528 	-0.00013234558 	-4.2160499e-07 	0.0033125189 	-3.5151225e-06 	0.00082936809
0.32989691 	0.0018030623 	-0.0001319238 	1.3691518e-06 	0.0032619998 	1.2437258e-07 	0.00030473052
0.34020619 	0.0017760608 	-0.00012872432 	7.923673e-07 	0.0032365035 	6.3910164e-07 	0.00059195126
0.35051546 	0.0017511088 	-0.00012273178 	3.0721283e-07 	0.0032242115 	1.2449733e-06 	0.001214058
0.36082474 	0.0017400833 	-0.00012281463 	2.6745376e-06 	0.003202407 	-6.4315561e-08 	0.00020279295
0.37113402 	0.0017233732 	-0.00011504945 	7.9346822e-07 	0.0032087757 	4.8367798e-07 	0.00093900736
0.3814433 	0.0017151322 	-0.00011086577 	1.1021823e-06 	0.0032091669 	-1.5636059e-07 	0.00065301948
0.39175258 	0.0017064161 	-0.00010303064 	9.841798e-07 	0.0032164163 	-1.2100862e-07 	0.00059974419
0.40206186 	0.0016982734 	-9.2287831e-05 	1.1290624e-07 	0.0032330528 	-2.8974214e-07 	0.00086782348
0.41237113 	0.0016924384 	-7.6448241e-05 	7.5258696e-07 	0.0032438255 	-1.7165294e-07 	0.00050509996
0.42268041 	0.0016852155 	-5.6122058e-05 	8.2938424e-08 	0.0032667024 	-3.3934262e-07 	0.00074068713
0.43298969 	0.0016789868 	-2.8073898e-05 	3.8584562e-08 	0.0032838459 	-5.7063282e-08 	0.00062224776
0.44329897 	0.0016746372 	2.0597603e-06 	1.4478038e-07 	0.0033068153 	-2.2430558e-07 	0.00056837985
0.45360825 	0.0016711807 	3.7824541e-05 	4.4159665e-07 	0.0033255812 	-7.9136695e-07 	0.00048166256
0.46391753 	0.0016691796 	7.3687937e-05 	1.3585494e-07 	0.003346793 	8.4329444e-09 	0.00035869384
0.4742268 	0.0016689173 	0.00010872412 	1.0586787e-06 	0.0033661145 	-1.967321e-06 	0.00033447485
0.48453608 	0.0016696761 	0.00014320875 	1.8963568e-07 	0.0033841366 	-2.4392776e-08 	0.00018078861
0.49484536 	0.0016716408 	0.00017345043 	6.5669912e-07 	0.0034048602 	-1.5667705e-06 	0.00019929012
0.50515464 	0.0016744539 	0.00020140169 	5.7082532e-07 	0.0034236483 	-1.3623394e-06 	0.00013342806
0.51546392 	0.0016777526 	0.00022807155 	1.3778498e-07 	0.0034429414 	-4.2493668e-07 	7.3571247e-05
0.5257732 	0.0016821504 	0.00025064851 	8.6145775e-07 	0.0034622001 	-2.6454325e-06 	1.9205678e-05
0.53608247 	0.0016864908 	0.00027330847 	3.2210743e-07 	0.0034817672 	-9.920495e-07 	5.0644801e-05
0.54639175 	0.0016916164 	0.00029619497 	2.9614941e-07 	0.0035006968 	-8.1689846e-07 	0.00010490624
0.55670103 	0.0016978591 	0.0003201304 	9.8349967e-07 	0.0035192714 	-2.7183284e-06 	0.00014942717
0.56701031 	0.0017041017 	0.00034406582 	2.4871936e-07 	0.003537846 	-6.8296178e-07 	0.00019394811
0.57731959 	0.0017117926 	0.00036999237 	3.0270362e-07 	0.0035543226 	-6.3799916e-07 	0.0002417705
0.58762887 	0.0017214656 	0.00039990054 	1.2728947e-06 	0.0035694819 	-2.6982373e-06 	0.00027319214
0.59793814 	0.0017311385 	0.00042980871 	4.20019e-07 	0.0035846411 	-8.8586461e-07 	0.00030461379
0.60824742 	0.0017424998 	0.00046058761 	4.3308129e-08 	0.0035979173 	-9.6896642e-08 	0.00034935068
0.6185567 	0.001761118 	0.00049325806 	1.1058555e-06 	0.0036037891 	-2.4777842e-06 	0.00036798296
0.62886598 	0.0017797361 	0.0005259285 	5.9297432e-07 	0.003609661 	-1.3285414e-06 	0.00038661523
0.63917526 	0.0017994219 	0.00055933872 	2.0406783e-07 	0.003615617 	-5.8991368e-08 	0.00018612506
0.64948454 	0.0018287507 	0.0005911566 	7.445879e-07 	0.0036145054 	-2.3072884e-06 	0.00043385877
0.65979381 	0.0018613143 	0.00062080652 	4.7196074e-07 	0.0036091578 	-1.4632843e-06 	0.00044085664
0.67010309 	0.0018975012 	0.00064826489 	1.9010505e-07 	0.0036019733 	4.8197991e-08 	0.00025628593
0.68041237 	0.0019397886 	0.00067679138 	6.8186774e-07 	0.0035974901 	-2.349316e-06 	0.0004724348
0.69072165 	0.0019840035 	0.000704482 	2.5893723e-07 	0.0035909549 	-8.9261928e-07 	0.00046918055
0.70103093 	0.0020327263 	0.00073167901 	1.0607266e-07 	0.0035876209 	-2.5676072e-07 	0.00049388707
0.71134021 	0.0020856559 	0.00076247044 	8.2918814e-07 	0.0035907021 	-2.0085908e-06 	0.00048143957
0.72164948 	0.0021389552 	0.00079324225 	4.4926661e-08 	0.0035937078 	3.7700396e-08 	0.00040969138
0.73195876 	0.0022002898 	0.0008262844 	5.7482624e-07 	0.0036076471 	-8.4196896e-07 	0.00048115818
0.74226804 	0.0022624849 	0.00086042487 	4.1203306e-07 	0.003624457 	-6.0348774e-07 	0.00046040155
0.75257732 	0.0023299813 	0.00089499585 	1.9396169e-07 	0.0036471279 	-1.4688907e-07 	0.00046634818
0.7628866 	0.0024028417 	0.00093085067 	7.3139594e-07 	0.0036783148 	-5.5391362e-07 	0.00043802893
0.77319588 	0.0024783344 	0.00096646759 	5.6654247e-08 	0.0037114217 	7.081884e-08 	0.00032255519
0.78350515 	0.0025621904 	0.0010026893 	8.6682339e-07 	0.0037562861 	-1.5296967e-07 	0.00040049351
0.79381443 	0.0026476864 	0.001038336 	1.5597745e-07 	0.0038004706 	2.3152178e-07 	1.6874171e-05
0.80412371 	0.0027416021 	0.0010739706 	8.2150798e-07 	0.0038575599 	2.7613965e-07 	0.00034655623
0.81443299 	0.0028370422 	0.0011089569 	6.8857414e-08 	0.0039136426 	1.1860276e-07 	0.00012594722
0.82474227 	0.0029395315 	0.0011429864 	6.373261e-07 	0.0039788395 	4.9969121e-07 	0.00027542835
0.83505155 	0.0030435402 	0.0011763017 	1.0414493e-07 	0.0040444393 	1.1938153e-07 	0.00023975557
0.84536082 	0.0031514585 	0.0012080258 	3.659866e-07 	0.0041136496 	4.1953081e-07 	0.00018706264
0.8556701 	0.0032604285 	0.0012382775 	2.7752076e-07 	0.0041828506 	3.8300508e-07 	0.00013966792
0.86597938 	0.003370228 	0.0012671113 	7.3749634e-08 	0.0042520421 	1.0178153e-07 	8.2293123e-05
0.87628866 	0.0034785333 	0.001292579 	2.7741378e-07 	0.0043171509 	4.0070006e-07 	2.4257001e-05
0.88659794 	0.0035848809 	0.001315963 	8.148696e-08 	0.004378445 	7.044894e-08 	5.4818439e-05
0.89690722 	0.003688124 	0.0013363644 	4.6027585e-09 	0.0044335536 	3.979281e-09 	0.00011834867
0.90721649 	0.0037835794 	0.0013518176 	-8.2292162e-10 	0.0044756627 	-1.2820132e-07 	0.00018793739
0.91752577 	0.0038720868 	0.0013629522 	-1.500111e-07 	0.0045056448 	-6.3344796e-07 	0.00026020708
0.92783505 	0.0039523837 	0.0013695865 	-1.8963594e-07 	0.004520102 	-7.997593e-07 	0.00033395348
0.93814433 	0.0040216839 	0.0013713545 	-1.9607022e-07 	0.0045171203 	-6.5530791e-07 	0.00040788196
0.94845361 	0.0040777268 	0.0013646627 	-2.0368694e-07 	0.0044962307 	-6.5187291e-07 	0.00048030071
0.95876289 	0.0041277055 	0.0013534097 	-9.2927626e-08 	0.0044514987 	-3.6155427e-07 	0.00055224631
0.96907216 	0.0041608927 	0.0013384069 	-1.8337585e-07 	0.0043861962 	-7.3550696e-07 	0.0006223276
0.97938144 	0.0041473542 	0.0013160335 	1.1751793e-08 	0.0042725476 	6.8091863e-08 	0.00020360352
0.98969072 	0.0035623168 	0.0011468845 	-2.2329005e-06 	0.0035891082 	-7.4896916e-06 	0.00064426353
