0.4742268 	0.0037468359 	-0.0011370537 	1.7974236e-08 	0.0037194542 	-5.533367e-08 	0.0010463715
0.48453608 	0.0096180333 	-0.0030213871 	-4.2215114e-08 	0.0095960248 	7.0621854e-07 	0.0032778237
0.49484536 	0.0088788006 	-0.0028068779 	1.4171179e-06 	0.0088311356 	-3.955969e-06 	0.0031833058
0.50515464 	0.0078418116 	-0.0025063275 	-3.8110022e-08 	0.0077799507 	1.2198694e-06 	0.0028782747
0.51546392 	0.0068633191 	-0.0022083173 	8.7639338e-07 	0.0067887263 	-2.1284039e-06 	0.0023931366
0.5257732 	0.0059374176 	-0.0019026111 	3.4098651e-06 	0.0058586381 	-9.6858951e-06 	0.0021291272
0.53608247 	0.0051476501 	-0.0016106498 	1.4000161e-06 	0.0050634625 	-3.5949987e-06 	0.0018819216
0.54639175 	0.0045144176 	-0.0013383001 	3.9638695e-07 	0.0044327032 	-1.0097525e-06 	0.0016620062
0.55670103 	0.0040384518 	-0.0010876337 	3.1691569e-07 	0.003959143 	-8.8884717e-07 	0.0014793307
0.56701031 	0.0036998582 	-0.00085748043 	9.9772592e-07 	0.0036258329 	-1.9857405e-06 	0.0013372117
0.57731959 	0.0034730888 	-0.00064436974 	2.27985e-06 	0.0034056294 	-3.2359176e-06 	0.0012364976
0.58762887 	0.003331341 	-0.00044561722 	3.1837475e-06 	0.003271159 	-3.3358071e-06 	0.0011739123
0.59793814 	0.0032527338 	-0.00025939175 	9.5001853e-07 	0.0031996001 	-1.603167e-06 	0.0011444457
0.60824742 	0.0032272414 	-8.4381495e-05 	-1.8653085e-07 	0.0031789981 	-5.6313614e-08 	4.2199003e-05
0.6185567 	0.0032401607 	7.5594166e-05 	1.3472259e-06 	0.003201134 	-1.678736e-06 	0.0011429498
0.62886598 	0.0032808371 	0.00022639967 	2.3118037e-06 	0.0032495578 	-1.5206498e-06 	0.001164809
0.63917526 	0.0033415606 	0.00036946348 	-5.2502623e-08 	0.0033170045 	-5.0473419e-07 	0.00030726345
0.64948454 	0.0034190817 	0.00050005278 	1.7822261e-06 	0.0034050644 	-1.3510007e-06 	0.0012062254
0.65979381 	0.0035075547 	0.00062416568 	1.069336e-06 	0.003502809 	-1.4389168e-06 	0.0012634048
0.67010309 	0.0036045328 	0.00074021252 	4.0603725e-07 	0.0036090648 	-1.6537562e-06 	0.001194776
0.68041237 	0.0037083952 	0.00084718502 	1.9296983e-06 	0.0037224971 	-6.674239e-07 	0.0013333864
0.69072165 	0.0038154552 	0.00094914525 	1.2469799e-07 	0.0038375151 	-8.2988444e-07 	0.00063898838
0.70103093 	0.0039238014 	0.0010416393 	2.0272596e-06 	0.0039561207 	-1.5492996e-07 	0.0014127627
0.71134021 	0.0040339006 	0.0011303145 	1.0436515e-07 	0.0040733373 	-6.6963198e-07 	0.00062268376
0.72164948 	0.0041415772 	0.0012098996 	1.5793328e-06 	0.0041905086 	-8.8577176e-08 	0.0014985628
0.73195876 	0.0042481076 	0.0012852872 	2.7300679e-07 	0.0043038663 	-9.2831136e-07 	0.0011624727
0.74226804 	0.0043547858 	0.0013552296 	9.3699257e-07 	0.0044180279 	-3.6919851e-07 	0.0015852941
0.75257732 	0.0044582738 	0.0014204622 	3.8870856e-07 	0.0045276522 	-9.4007372e-07 	0.0015855031
0.7628866 	0.0045627851 	0.0014820659 	4.8693811e-07 	0.0046374372 	-6.9705878e-07 	0.0016663056
0.77319588 	0.004665308 	0.0015398686 	2.6734504e-07 	0.0047443638 	-9.5476272e-07 	0.0016665094
0.78350515 	0.0047682011 	0.0015944958 	3.3318118e-07 	0.0048504403 	-8.0981184e-07 	0.0017400956
0.79381443 	0.0048697866 	0.0016459557 	1.3880402e-08 	0.0049538801 	-1.0780811e-06 	0.0015547905
0.80412371 	0.0049736479 	0.0016952974 	3.7180943e-07 	0.0050588365 	-6.175492e-07 	0.0018087282
0.81443299 	0.0050773697 	0.0017418751 	-7.8624526e-09 	0.0051591824 	-8.042649e-09 	0.00023064763
0.82474227 	0.0051864193 	0.0017885541 	2.453481e-07 	0.0052696077 	-5.7841118e-07 	0.0018743778
0.83505155 	0.0052989696 	0.0018339138 	-8.2240203e-08 	0.0053793757 	-9.5710269e-07 	0.0019388734
0.84536082 	0.0054165945 	0.0018778836 	-7.47299e-08 	0.0054914975 	-6.2903031e-07 	0.001302126
0.8556701 	0.0055448511 	0.0019231198 	1.8259557e-07 	0.0056154032 	-3.5297208e-08 	0.0020044579
0.86597938 	0.0056823708 	0.0019687331 	4.1733724e-08 	0.0057463679 	-1.417634e-07 	0.0020721814
0.87628866 	0.0058316367 	0.0020147234 	3.3305592e-08 	0.0058853717 	1.194001e-07 	0.00076620396
0.88659794 	0.0059983312 	0.0020639214 	-3.5445567e-08 	0.0060447003 	-1.7077958e-07 	0.0015254114
0.89690722 	0.0061854455 	0.0021162015 	4.9950158e-08 	0.0062238008 	2.3776084e-07 	0.0022195651
0.90721649 	0.0063950268 	0.0021718122 	2.1513816e-07 	0.0064239806 	1.01095e-06 	0.0023001417
0.91752577 	0.0066301798 	0.0022320211 	2.9954984e-07 	0.0066497496 	1.46385e-06 	0.0023857398
0.92783505 	0.0068929195 	0.0022969706 	2.6340531e-07 	0.0069048005 	1.3610418e-06 	0.002475082
0.93814433 	0.0071840433 	0.0023673218 	8.147495e-08 	0.0071881865 	5.251965e-07 	0.0025679286
0.94845361 	0.0074958485 	0.0024394892 	9.2006161e-08 	0.007493028 	4.1780667e-07 	0.00046277115
0.95876289 	0.0078198551 	0.0025167313 	1.2077707e-07 	0.0078136695 	8.2559126e-07 	0.0028366598
0.96907216 	0.0081110356 	0.0025707476 	4.4564809e-08 	0.0081048114 	2.1921093e-07 	0.0010441984
0.97938144 	0.0082905576 	0.0026002324 	-3.2246606e-08 	0.0082853965 	2.0783157e-08 	0.0029837768
0.98969072 	0.0077534695 	0.0024536496 	-5.9737772e-07 	0.0077734915 	-2.0701226e-06 	0.0028256932
