0 	0.0043342247 	-2.9435848e-16 	-1.0699152e-22 	1.9991329e-29 	7.266319e-36 	2.6411146e-42
0.010869565 	0.0044258262 	-0.00041454684 	3.0407487e-08 	0.0050459434 	-3.3122104e-06 	0.004241841
0.02173913 	0.0046972309 	-0.00079333953 	5.186455e-08 	0.005308159 	-2.4929421e-06 	0.00406358
0.032608696 	0.0050778532 	-0.0011192248 	3.2384004e-07 	0.0056693091 	-6.3868751e-07 	0.0024414532
0.043478261 	0.0054900878 	-0.0013840117 	5.1391228e-07 	0.0060612028 	-5.0878636e-06 	0.0037986864
0.054347826 	0.0058981278 	-0.0015972689 	5.263267e-07 	0.006436902 	-1.3585331e-06 	0.00040403446
0.065217391 	0.0062793363 	-0.001767964 	2.1644328e-07 	0.006788845 	-7.182663e-07 	0.001787259
0.076086957 	0.0065690618 	-0.0018838153 	2.2669883e-07 	0.0070478837 	-9.7859566e-07 	0.00085788499
0.086956522 	0.0068165518 	-0.0019785601 	1.0954674e-06 	0.0072654424 	-4.8328607e-06 	0.0026942801
0.097826087 	0.0070057039 	-0.0020445876 	3.0599436e-06 	0.0074206599 	-1.2222955e-05 	0.0023418157
0.10869565 	0.0071472531 	-0.0020892321 	1.927881e-08 	0.0075271731 	-1.1374294e-07 	0.0016547462
0.11956522 	0.0072236202 	-0.0021063482 	1.5933647e-06 	0.0075687969 	-5.9189932e-06 	0.0015331883
0.13043478 	0.0072522847 	-0.0021038934 	4.4391168e-06 	0.0075632963 	-1.5605619e-05 	0.0011352594
0.14130435 	0.007252422 	-0.0020890504 	2.7142021e-08 	0.0075291641 	-2.703806e-07 	0.00016360491
0.15217391 	0.0071972731 	-0.0020516687 	5.7263483e-06 	0.0074452259 	-1.9221476e-05 	0.00037069354
0.16304348 	0.0071306399 	-0.0020089583 	1.7756484e-06 	0.0073501217 	-5.7385577e-06 	1.4810102e-05
0.17391304 	0.0070325351 	-0.0019528293 	4.9021422e-06 	0.0072286304 	-1.5832773e-05 	0.00035165967
0.18478261 	0.0069265976 	-0.0018930946 	1.6741763e-06 	0.0071006422 	-5.2354268e-06 	0.00065692077
0.19565217 	0.0068033272 	-0.0018255555 	4.3650935e-06 	0.0069589744 	-1.3674149e-05 	0.00095715826
0.20652174 	0.0066770952 	-0.0017565793 	4.4322668e-07 	0.0068150661 	-1.3268074e-06 	0.0011969922
0.2173913 	0.0065437321 	-0.0016842521 	4.7097833e-06 	0.0066676355 	-1.4471131e-05 	0.0014602121
0.22826087 	0.0064090192 	-0.001611021 	1.0557084e-07 	0.0065172439 	-8.7919213e-07 	0.00029728756
0.23913043 	0.00627674 	-0.0015397056 	4.6373255e-06 	0.0063754398 	-1.4136463e-05 	0.001865122
0.25 	0.0061434679 	-0.0014675244 	1.7838311e-08 	0.0062310246 	-1.1395931e-07 	0.0017737594
0.26086957 	0.0060137776 	-0.0013978489 	1.3297518e-06 	0.0060918016 	-4.020741e-06 	0.0021813396
0.27173913 	0.0058867992 	-0.0013290612 	1.9189121e-06 	0.0059563858 	-5.8246228e-06 	0.0023746467
0.2826087 	0.0057596616 	-0.0012609453 	2.0136798e-07 	0.0058181304 	-1.1945243e-06 	0.00063694264
0.29347826 	0.0056412867 	-0.0011970834 	2.6425436e-06 	0.0056946133 	-8.1327022e-06 	0.0025817964
0.30434783 	0.0055233957 	-0.001132978 	1.7153905e-09 	0.0055693877 	1.815067e-09 	0.0025305408
0.31521739 	0.0054076721 	-0.0010711724 	1.3694061e-07 	0.0054447375 	-6.9628136e-07 	0.0015689387
0.32608696 	0.0053002945 	-0.0010118946 	2.7437795e-06 	0.0053324194 	-8.5289985e-06 	0.002859441
0.33695652 	0.0051937071 	-0.00095275962 	1.2733747e-07 	0.005217873 	-5.2784466e-07 	0.0019350847
0.34782609 	0.0050911028 	-0.00089587129 	1.7607642e-07 	0.0051078176 	-7.5679442e-07 	0.0016141657
0.35869565 	0.0049967858 	-0.00084091737 	2.0151352e-06 	0.0050091729 	-6.2627158e-06 	0.0030379756
0.36956522 	0.0049051589 	-0.00078625203 	1.2296038e-07 	0.0049099146 	-4.3085598e-07 	0.0021616249
0.38043478 	0.004817276 	-0.00073306506 	3.2209781e-07 	0.004813503 	-1.1255538e-06 	0.0010204872
0.39130435 	0.0047369656 	-0.00068177102 	7.460269e-07 	0.0047299606 	-2.314934e-06 	0.0031453051
0.40217391 	0.0046627357 	-0.00063084332 	-8.7709907e-09 	0.0046493987 	-1.4480464e-08 	0.0029763013
0.41304348 	0.0045918157 	-0.00058055689 	5.5518586e-07 	0.004566825 	-1.5329713e-06 	4.453636e-05
0.42391304 	0.0045276582 	-0.00053231345 	7.7552213e-08 	0.0044999633 	-3.0316332e-07 	0.0024908707
0.43478261 	0.0044699123 	-0.00048450371 	8.3675966e-07 	0.0044372101 	-2.5352685e-06 	0.0032782024
0.44565217 	0.004418599 	-0.00043735643 	2.7805781e-07 	0.0043761632 	-6.4792908e-07 	0.0016237062
0.45652174 	0.0043711436 	-0.00039103558 	4.3515779e-07 	0.0043202469 	-9.9522424e-07 	0.00085293415
0.4673913 	0.0043266688 	-0.00034564156 	-3.3775236e-08 	0.0042727709 	-7.9751122e-08 	0.0030978062
0.47826087 	0.0042906763 	-0.00030118799 	1.2272897e-08 	0.0042308407 	-2.4036526e-07 	0.0033655746
0.48913043 	0.0042628567 	-0.00025796357 	4.0164451e-07 	0.0041914129 	-7.3727026e-07 	0.001153431
0.5 	0.0042359041 	-0.00021399847 	4.1031419e-07 	0.0041569086 	-7.7799276e-07 	0.0011083052
0.51086957 	0.004209488 	-0.00016925732 	-6.7534466e-08 	0.0041271554 	-9.1826156e-08 	0.0032888861
0.52173913 	0.0041927572 	-0.00012659049 	-1.3123142e-08 	0.0041031136 	-1.4826826e-07 	0.0030763277
0.5326087 	0.004183217 	-8.5642902e-05 	4.9027892e-07 	0.0040814244 	-7.2448832e-07 	0.00083565349
0.54347826 	0.0041734086 	-4.1847599e-05 	3.5110458e-07 	0.0040651116 	-5.9249288e-07 	0.0014606847
0.55434783 	0.0041643787 	3.3683179e-06 	1.3010538e-07 	0.0040524427 	-5.8724239e-07 	0.0034900707
0.56521739 	0.0041658591 	4.5812307e-05 	1.5943624e-07 	0.0040441791 	-3.3971764e-07 	0.0023384785
0.57608696 	0.0041711223 	8.7327229e-05 	6.769222e-07 	0.0040368691 	-7.8902308e-07 	3.7367234e-05
0.58695652 	0.0041759847 	0.00013373501 	1.2977519e-07 	0.0040393089 	-3.4358473e-07 	0.0025028645
0.59782609 	0.00418523 	0.00017916199 	-7.8289362e-08 	0.0040434096 	-1.7133497e-07 	0.0034484138
0.60869565 	0.0042043396 	0.00022265843 	4.724031e-07 	0.0040497346 	-5.5268248e-07 	0.00093172503
0.61956522 	0.0042232297 	0.00026951945 	3.1385777e-07 	0.0040632524 	-4.5445114e-07 	0.0016947731
0.63043478 	0.0042437984 	0.0003180067 	1.9685565e-07 	0.0040814651 	-5.4399764e-07 	0.0036752622
0.64130435 	0.00427558 	0.00036494952 	3.5726111e-07 	0.0041017985 	-4.5077287e-07 	0.0014262687
0.65217391 	0.0043085084 	0.00041446841 	3.7270827e-07 	0.0041284835 	-4.6416092e-07 	0.0013969112
0.66304348 	0.0043426349 	0.00046675372 	2.420101e-07 	0.004162234 	-4.5387582e-07 	0.0037876288
0.67391304 	0.0043888616 	0.0005179003 	3.5058589e-07 	0.0041976038 	-4.3660315e-07 	0.0013939663
0.68478261 	0.0044365645 	0.00057217953 	3.041927e-07 	0.0042409923 	-4.1155345e-07 	0.0017087419
0.69565217 	0.0044866684 	0.00062894448 	-7.1863697e-08 	0.0042916368 	-2.026769e-07 	0.0039239769
0.70652174 	0.0045498024 	0.00068481917 	4.4637617e-07 	0.0043431633 	-4.8562635e-07 	0.00072179652
0.7173913 	0.0046134251 	0.0007456915 	1.1969491e-07 	0.0044079502 	-3.0349976e-07 	0.0027775263
0.72826087 	0.0046849075 	0.00080706533 	9.2811757e-08 	0.0044765187 	-2.9199327e-07 	0.0028415469
0.73913043 	0.0047647134 	0.00086927888 	3.95815e-07 	0.0045491041 	-4.6026243e-07 	0.00084711679
0.75 	0.0048464055 	0.00093664132 	1.9409724e-07 	0.0046368261 	-6.6084119e-08 	0.0042633899
0.76086957 	0.0049417077 	0.001001996 	3.5645987e-07 	0.0047228838 	-4.5612364e-07 	0.0007540774
0.77173913 	0.0050393283 	0.0010732865 	2.8427088e-08 	0.0048266959 	-2.1874525e-07 	0.0036159666
0.7826087 	0.0051473477 	0.0011432403 	1.8481297e-07 	0.0049313561 	-3.5443833e-07 	0.0019128139
0.79347826 	0.0052612792 	0.0012168272 	1.0910545e-07 	0.005048863 	-2.6955443e-07 	0.0028713246
0.80434783 	0.0053827007 	0.0012905605 	9.4999276e-08 	0.0051723062 	-2.943113e-07 	0.0025994847
0.81521739 	0.005511533 	0.0013659594 	1.0145861e-07 	0.005305249 	-2.7554676e-07 	0.0027220675
0.82608696 	0.0056462431 	0.00144131 	5.7268317e-08 	0.0054449788 	-2.9694567e-07 	0.0026465516
0.83695652 	0.005787396 	0.001517713 	3.7773388e-08 	0.0055942394 	-2.2025382e-07 	0.0033619666
0.84782609 	0.0059313312 	0.0015907391 	2.0470429e-08 	0.0057436566 	-4.175106e-07 	0.0018435315
0.85869565 	0.0060796549 	0.0016663981 	-2.399614e-08 	0.0059097545 	-5.2448234e-08 	0.0050199639
0.86956522 	0.0062229406 	0.0017310176 	-9.2812233e-08 	0.0060544954 	-7.5628079e-07 	8.7102092e-05
0.88043478 	0.0063661681 	0.001798853 	-6.5360863e-08 	0.0062220612 	-1.6248326e-07 	0.0045900995
0.89130435 	0.0064955624 	0.0018557204 	-1.0375639e-07 	0.0063681455 	-3.2998602e-07 	0.0036785894
0.90217391 	0.0066030333 	0.0018999251 	-3.8508524e-07 	0.0064883332 	-1.172843e-06 	0.00055212111
0.91304348 	0.0066891801 	0.0019377494 	-1.6952401e-07 	0.0066032622 	-4.0808929e-07 	0.0042955862
0.92391304 	0.0067357948 	0.0019618142 	-3.1862016e-08 	0.0066747588 	1.6279934e-08 	0.0057429466
0.93478261 	0.0067090465 	0.0019538108 	-2.2804186e-07 	0.0066712021 	-5.7313677e-07 	0.0040846571
0.94565217 	0.0066118824 	0.0019278182 	-3.0020386e-08 	0.0066013198 	2.0320125e-08 	0.0059489341
0.95652174 	0.006407508 	0.0018666944 	-7.6956802e-07 	0.0064035966 	-2.4020981e-06 	0.00042556481
0.9673913 	0.0060563331 	0.0017711015 	-3.0492378e-07 	0.006068601 	-9.8953688e-07 	0.0032607921
0.97826087 	0.005476027 	0.0016305139 	-5.3825979e-07 	0.0054917216 	-1.994918e-06 	0.00042535095
0.98913043 	0.0040718334 	0.001265809 	-2.479633e-07 	0.0040623377 	-9.4675693e-07 	0.00056003167
