0.26666667 	4.3252378e-05 	-2.4570584e-06 	1.1026036e-08 	4.7357104e-05 	-4.2947773e-08 	1.0103483e-07
0.27777778 	0.0052684286 	-0.0016502895 	-4.5690657e-07 	0.0074612894 	8.1948891e-06 	0.00087663764
0.28888889 	0.0062347982 	-0.001962291 	-1.9689788e-06 	0.008097511 	1.1277141e-05 	0.0021192288
0.3 	0.0064688798 	-0.0020322471 	-1.0710896e-07 	0.007828876 	8.0513531e-07 	0.0068955604
0.31111111 	0.0065261962 	-0.0020303544 	-2.9461676e-06 	0.0073970235 	1.126492e-05 	0.003816636
0.32222222 	0.0065161145 	-0.0020124765 	-2.8981855e-07 	0.0069614161 	1.3997147e-06 	0.007275289
0.33333333 	0.0064844059 	-0.0019776697 	-2.7803113e-08 	0.0065381646 	5.180191e-07 	0.007106962
0.34444444 	0.0064349675 	-0.0019302952 	3.2964289e-07 	0.0061357834 	-1.2069972e-06 	0.0067130502
0.35555556 	0.0063701055 	-0.001881717 	-4.279169e-07 	0.0057596055 	1.5537046e-06 	0.0057078658
0.36666667 	0.0062901817 	-0.0018279209 	-2.3355701e-06 	0.0054092288 	6.6333847e-06 	0.0032838344
0.37777778 	0.006197865 	-0.0017691841 	-4.8955926e-06 	0.0050804279 	1.303416e-05 	0.00037828299
0.38888889 	0.0060972333 	-0.0017097171 	-1.7850657e-06 	0.0047501083 	4.7007295e-06 	0.0031987371
0.4 	0.0059942411 	-0.0016487568 	1.1496401e-06 	0.0044428323 	-4.2130113e-06 	0.004569644
0.41111111 	0.0058879618 	-0.0015818415 	-1.7195286e-06 	0.0041632539 	4.2970579e-06 	0.0025663813
0.42222222 	0.0057845717 	-0.0015118432 	-2.1058366e-06 	0.0038926755 	5.0362282e-06 	0.0019781569
0.43333333 	0.0056894302 	-0.0014451762 	1.4928755e-06 	0.0036323434 	-4.7099787e-06 	0.0035974572
0.44444444 	0.0056000395 	-0.0013729127 	-2.3746547e-06 	0.0034059185 	5.4080054e-06 	0.0012058123
0.45555556 	0.0055285712 	-0.0013051439 	5.1707575e-07 	0.0031795436 	-1.4887521e-06 	0.0031217214
0.46666667 	0.0054627772 	-0.0012371598 	2.5540899e-08 	0.002981406 	-1.0697453e-07 	0.0028626191
0.47777778 	0.0054170683 	-0.0011682161 	-2.3129178e-07 	0.0028073704 	4.4261903e-07 	0.002529879
0.48888889 	0.005377119 	-0.0011030938 	6.9759887e-07 	0.0026516456 	-1.5465243e-06 	0.0025320456
0.5 	0.0053487996 	-0.0010367635 	-4.5279939e-07 	0.0025247495 	8.0402868e-07 	0.0020339353
0.51111111 	0.0053299202 	-0.00097594518 	8.2479002e-07 	0.0024073763 	-1.4368847e-06 	0.0022748797
0.52222222 	0.0053186852 	-0.00091248607 	7.2839213e-08 	0.0023232866 	-2.1149771e-07 	0.0022012296
0.53333333 	0.0053167878 	-0.00085306069 	4.7084203e-07 	0.0022438967 	-6.8604861e-07 	0.0020800075
0.54444444 	0.0053282302 	-0.00079215759 	7.8483326e-07 	0.0021954159 	-1.0662167e-06 	0.002029804
0.55555556 	0.0053400925 	-0.00073121094 	-4.8552076e-07 	0.0021553932 	6.0460868e-07 	0.0015256019
0.56666667 	0.005378763 	-0.00067352879 	1.8371302e-06 	0.0021301555 	-1.6750195e-06 	0.0019132255
0.57777778 	0.0054070594 	-0.00061030424 	-1.8637787e-06 	0.0021300071 	2.4703841e-06 	0.00017132935
0.58888889 	0.005464964 	-0.00055532773 	1.5728256e-06 	0.0021193528 	-6.4810619e-07 	0.0018502466
0.6 	0.0055216165 	-0.00049543595 	4.0224796e-07 	0.0021357453 	-2.6190288e-07 	0.0018410841
0.61111111 	0.0055675223 	-0.00043031977 	-2.2017807e-07 	0.002173757 	1.5270487e-07 	0.0016169778
0.62222222 	0.0056252093 	-0.00036566479 	2.4946665e-06 	0.0022314429 	5.9169426e-07 	0.0018324096
0.63333333 	0.0056785399 	-0.00029873427 	-6.4181997e-07 	0.0022959267 	6.8743543e-07 	0.0011559901
0.64444444 	0.0057314426 	-0.00022733393 	7.4118813e-07 	0.0023731094 	4.2164876e-07 	0.0018540538
0.65555556 	0.005786693 	-0.00015424502 	1.6990241e-06 	0.0024716564 	1.1397212e-06 	0.0018787996
0.66666667 	0.0058328736 	-7.7994145e-05 	-1.57981e-06 	0.002575434 	1.6568137e-06 	3.8923894e-05
0.67777778 	0.0058965426 	2.6656325e-06 	1.8780653e-06 	0.002690281 	1.8010666e-06 	0.0019451505
0.68888889 	0.0059574068 	8.4330104e-05 	2.2328566e-07 	0.002818949 	8.7853207e-08 	0.0019830203
0.7 	0.0060161985 	0.00016982301 	1.6033457e-09 	0.0029489712 	-1.4249083e-07 	0.0020454209
0.71111111 	0.0060861327 	0.00025774399 	1.5905474e-06 	0.003101221 	1.8105114e-06 	0.0020940166
0.72222222 	0.0061505118 	0.00034710857 	-1.1700341e-06 	0.0032523224 	7.6097823e-07 	0.00048001989
0.73333333 	0.006233587 	0.0004405854 	2.454345e-06 	0.003417152 	3.2074433e-06 	0.0022390996
0.74444444 	0.0063101159 	0.00053450133 	-1.0932877e-06 	0.0035864567 	5.0741815e-07 	0.00055677386
0.75555556 	0.0064027323 	0.00063300429 	1.7321199e-06 	0.0037660943 	2.4008497e-06 	0.0024173064
0.76666667 	0.0064919492 	0.00073153522 	-8.6346126e-07 	0.0039515496 	2.0590038e-07 	0.00095024332
0.77777778 	0.00659462 	0.00083437919 	1.5361647e-06 	0.004146083 	2.2411443e-06 	0.0026264845
0.78888889 	0.0066934525 	0.00093660448 	-1.0362118e-06 	0.0043440481 	1.2146798e-07 	0.00060706702
0.8 	0.006808375 	0.0010434786 	1.8342375e-06 	0.0045549332 	2.8524407e-06 	0.002863671
0.81111111 	0.0069168518 	0.0011490093 	-9.6776218e-07 	0.0047639473 	-5.3712891e-08 	0.00074300025
0.82222222 	0.0070420525 	0.0012587485 	6.0317127e-07 	0.0049905898 	8.5224186e-07 	0.0031258383
0.83333333 	0.007164726 	0.0013686333 	8.4746633e-09 	0.0052146205 	-1.8159667e-07 	0.0033196861
0.84444444 	0.0072890067 	0.0014773811 	-7.0370517e-07 	0.0054453031 	-3.0786313e-07 	0.001278329
0.85555556 	0.0074257605 	0.0015903177 	8.5561759e-07 	0.0056898953 	1.4289134e-06 	0.0036185346
0.86666667 	0.0075612455 	0.0017023643 	-5.044591e-08 	0.0059339062 	-2.5715235e-07 	0.0037559557
0.87777778 	0.007694531 	0.0018113869 	-9.1939545e-07 	0.0061777201 	-5.6535058e-07 	3.5292359e-05
0.88888889 	0.0078431747 	0.0019254501 	-2.2576119e-07 	0.0064446696 	-3.430347e-07 	0.0031312142
0.9 	0.0079904494 	0.0020375392 	4.2768322e-07 	0.0067124938 	7.7376008e-07 	0.004394657
0.91111111 	0.0081375036 	0.0021470974 	6.0946639e-07 	0.0069815601 	1.2702909e-06 	0.0046306111
0.92222222 	0.0082811775 	0.0022538719 	2.1155957e-07 	0.0072553993 	4.0207271e-07 	0.0048653919
0.93333333 	0.0084154301 	0.0023510955 	9.5812559e-08 	0.0075237272 	1.3506172e-07 	0.0050952289
0.94444444 	0.0085255437 	0.0024405476 	1.2071078e-07 	0.0077737925 	2.8429313e-07 	0.0053111658
0.95555556 	0.0085698047 	0.0024958525 	-1.6593252e-07 	0.0079761904 	-3.9632483e-07 	0.0039615158
0.96666667 	0.0084953073 	0.0025138964 	-2.6630759e-08 	0.0080688407 	-1.0466172e-07 	0.0054165085
0.97777778 	0.0081060577 	0.0024280911 	-4.3891114e-07 	0.0078577879 	-1.0800622e-06 	0.002484702
0.98888889 	0.0065825716 	0.0020305429 	-2.5014627e-07 	0.0065198136 	-6.61778e-07 	0.0032370562
