0.4742268 	0.0036556884 	-0.0011076399 	2.6151455e-08 	0.0036299176 	-1.1212399e-07 	0.001023021
0.48453608 	0.0095430125 	-0.0029967382 	9.3232204e-09 	0.0095238375 	-5.8039184e-08 	0.0032552881
0.49484536 	0.0088882952 	-0.0028056264 	1.1449808e-06 	0.0088480469 	-3.8328582e-06 	0.0039924325
0.50515464 	0.007936211 	-0.0025292141 	-7.9086098e-08 	0.0078838146 	5.9560781e-07 	0.0030539968
0.51546392 	0.0070253215 	-0.0022542527 	1.9287099e-07 	0.0069625398 	-5.2472395e-07 	0.0030770392
0.5257732 	0.0061436638 	-0.0019693783 	2.5168796e-06 	0.0060776576 	-7.767705e-06 	0.002762234
0.53608247 	0.0053680429 	-0.0016937555 	5.1829301e-07 	0.0052960909 	-1.8666996e-06 	0.0024596223
0.54639175 	0.0047219978 	-0.0014340898 	-3.7967645e-07 	0.0046510705 	3.2864414e-07 	0.0020614589
0.55670103 	0.0042148238 	-0.0011915657 	-4.372519e-07 	0.0041452475 	2.1285364e-07 	0.001758304
0.56701031 	0.0038348916 	-0.00096728782 	-1.3259513e-07 	0.003769941 	-6.1304936e-07 	0.0017447976
0.57731959 	0.0035668273 	-0.00075893476 	1.0262678e-06 	0.0035071372 	-2.1700663e-06 	0.0015978015
0.58762887 	0.0033873057 	-0.00056388249 	1.7987764e-06 	0.0033343419 	-2.3560273e-06 	0.0014988248
0.59793814 	0.0032760534 	-0.00038040018 	-5.4419158e-07 	0.003229892 	-9.6851348e-08 	0.0014437614
0.60824742 	0.0032255952 	-0.00020702832 	-2.3621359e-07 	0.0031833458 	3.8367266e-08 	4.2092489e-05
0.6185567 	0.0032158363 	-4.7751445e-05 	-2.4367749e-07 	0.0031826143 	-8.6059945e-08 	0.0014269265
0.62886598 	0.0032401581 	0.00010311739 	6.2994314e-07 	0.0032134465 	8.739154e-08 	0.001442784
0.63917526 	0.0032895282 	0.00024668127 	-3.6899589e-07 	0.0032675262 	-3.4610152e-08 	0.00030233362
0.64948454 	0.0033573613 	0.00037857938 	4.8492423e-08 	0.0033448288 	3.3371629e-07 	0.0014864416
0.65979381 	0.0034402862 	0.00050458709 	-7.1571012e-07 	0.0034353791 	1.3923304e-07 	0.0015533655
0.67010309 	0.003535899 	0.00062306376 	-7.9068556e-07 	0.0035380196 	-1.4254907e-08 	0.0011728705
0.68041237 	0.0036397391 	0.00073384953 	2.4127492e-07 	0.0036503649 	6.1542519e-07 	0.0016400453
0.69072165 	0.003750774 	0.000839998 	-4.7940477e-07 	0.0037670422 	-1.3652378e-07 	0.00062752454
0.70103093 	0.0038643954 	0.00093816454 	4.9451341e-07 	0.003889898 	7.3947181e-07 	0.0017426595
0.71134021 	0.0039832143 	0.0010329107 	-4.2225509e-07 	0.0040134206 	-2.1339273e-07 	0.00061327457
0.72164948 	0.0041009201 	0.001120166 	2.4361486e-07 	0.0041396185 	3.0846033e-07 	0.00185787
0.73195876 	0.0042197665 	0.0012030989 	-5.6417153e-07 	0.0042627679 	-4.746582e-07 	0.0011507126
0.74226804 	0.0043410342 	0.0012827063 	-1.7045698e-07 	0.0043905489 	-3.4870822e-07 	0.0019787421
0.75257732 	0.004460027 	0.0013571514 	-6.6957718e-07 	0.0045135384 	-8.7414938e-07 	0.001800048
0.7628866 	0.004582794 	0.0014294626 	-3.5377764e-07 	0.0046403565 	-6.2488878e-07 	0.002095626
0.77319588 	0.0047043353 	0.0014979883 	-5.853618e-07 	0.00476458 	-9.0501391e-07 	0.0020283842
0.78350515 	0.0048281228 	0.0015637814 	-2.0344976e-07 	0.004890524 	-3.0345947e-07 	0.0022051198
0.79381443 	0.0049512557 	0.0016261088 	-3.4878679e-07 	0.0050135242 	-4.5811077e-07 	0.0015731664
0.80412371 	0.0050782962 	0.0016870384 	1.4322246e-07 	0.0051420841 	4.6278689e-07 	0.002308934
0.81443299 	0.0052052691 	0.0017441068 	-3.5906958e-08 	0.0052644999 	1.4170964e-07 	0.00023509946
0.82474227 	0.0053390847 	0.0018019826 	1.6403308e-07 	0.0054008435 	7.8100131e-07 	0.002409061
0.83505155 	0.0054762448 	0.0018574237 	-1.8680569e-07 	0.0055358376 	2.1689211e-07 	0.0024662784
0.84536082 	0.0056186736 	0.001910746 	-8.0276685e-08 	0.0056728447 	2.7103798e-07 	0.0013444051
0.8556701 	0.0057712138 	0.0019650654 	2.3080037e-07 	0.0058236541 	1.3746968e-06 	0.0026055206
0.86597938 	0.005932161 	0.0020186999 	4.9384516e-08 	0.0059800452 	9.399446e-07 	0.0027049197
0.87628866 	0.0061033756 	0.0020715564 	4.2623853e-08 	0.0061421791 	4.8105635e-07 	0.00080100074
0.88659794 	0.006289881 	0.0021269366 	1.0441327e-08 	0.0063240889 	5.3461216e-07 	0.0015947366
0.89690722 	0.00649261 	0.0021842112 	4.2053483e-08 	0.0065230059 	8.5329845e-07 	0.0029115769
0.90721649 	0.0067125793 	0.0022429326 	2.0114019e-07 	0.0067369027 	1.4447373e-06 	0.0030188704
0.91752577 	0.0069510009 	0.0023043014 	2.5946092e-07 	0.006969159 	1.6620407e-06 	0.0031286
0.92783505 	0.0072074015 	0.0023679074 	2.0082049e-07 	0.0072211843 	1.3544643e-06 	0.0032387741
0.93814433 	0.0074805837 	0.0024339588 	2.2420486e-08 	0.0074889439 	4.4409058e-07 	0.0033489654
0.94845361 	0.0077603049 	0.002498432 	7.6598558e-08 	0.0077620757 	4.0855629e-07 	0.00047977891
0.95876289 	0.0080403607 	0.0025663545 	5.5193661e-08 	0.0080403691 	5.4670408e-07 	0.0036459864
0.96907216 	0.0082752974 	0.002607269 	4.2637444e-08 	0.0082733493 	2.2952565e-07 	0.0010634263
0.97938144 	0.008399795 	0.0026263944 	-2.0753276e-08 	0.0083984716 	1.4897154e-08 	0.0037866839
0.98969072 	0.0078233616 	0.0024744311 	-3.9003268e-07 	0.0078462396 	-1.3610288e-06 	0.0035686233
