0.4709558481 	1.517151431e-05 	-2.107390627e-07 	9.823714199e-12 	1.514264296e-05 	-5.026831232e-10 	2.886608616e-08
0.4709558481 	1.517151431e-05 	-2.107390627e-07 	9.823714199e-12 	1.514264296e-05 	-5.026831232e-10 	2.886608616e-08
0.4720092239 	0.001223996235 	-0.0001191321095 	4.959932249e-09 	0.001221657838 	-3.991644809e-08 	2.328819382e-06
0.4730625996 	0.00959125227 	-0.001622683753 	4.612234728e-08 	0.00957276035 	-2.414206765e-07 	1.824834184e-05
0.4741159754 	0.02198665068 	-0.004189442187 	8.977619597e-08 	0.02194384621 	-4.381661833e-07 	4.183106986e-05
0.4751693511 	0.02973806316 	-0.005832602546 	9.61135447e-08 	0.02967936094 	-4.715212594e-07 	5.657711091e-05
0.4762227269 	0.03402501311 	-0.006682819389 	9.417533416e-08 	0.0339564962 	-4.591761658e-07 	6.473051947e-05
0.4778443634 	0.03665653353 	-0.007176950162 	8.917827552e-08 	0.03658061113 	-4.22092794e-07 	6.973281187e-05
0.4796765386 	0.03791096861 	-0.007337682574 	7.997782325e-08 	0.03782958379 	-3.621057041e-07 	7.211370089e-05
0.4817465869 	0.03839131238 	-0.007405014353 	6.854796272e-08 	0.03830530704 	-2.847613603e-07 	7.302056162e-05
0.4840853915 	0.03840203753 	-0.007399335417 	5.424990007e-08 	0.03831161667 	-1.898861249e-07 	7.303258954e-05
0.4867278453 	0.03808650266 	-0.007342334447 	3.662868396e-08 	0.03799153004 	-7.603042803e-08 	7.242241545e-05
0.4897133715 	0.03751667311 	-0.007244080754 	1.510357797e-08 	0.03741681004 	5.904252515e-08 	7.132683941e-05
0.4930865115 	0.03672895565 	-0.007108986319 	-1.103225808e-08 	0.036623734 	2.181880613e-07 	6.981501604e-05
0.4968975894 	0.03574015023 	-0.006938328826 	-4.262572957e-08 	0.03562901896 	4.048139384e-07 	6.791881272e-05
0.5012034633 	0.0345551896 	-0.006729093208 	-8.038560421e-08 	0.03443756491 	6.228222126e-07 	6.564757014e-05
0.506068373 	0.03304125075 	-0.006480158667 	-1.311333757e-07 	0.03291579716 	9.009403253e-07 	6.274665786e-05
0.5134203412 	0.03104999991 	-0.006132573144 	-2.002004785e-07 	0.03091536244 	1.26847352e-06 	5.893327329e-05
0.5212948542 	0.0287301008 	-0.005692362621 	-2.833597115e-07 	0.02858653787 	1.700025414e-06 	5.449388639e-05
0.529729052 	0.02624973838 	-0.005220740579 	-3.770058532e-07 	0.02609876247 	2.165861482e-06 	4.975149504e-05
0.5387627144 	0.02362400868 	-0.004711775812 	-4.798127682e-07 	0.02346798799 	2.659678321e-06 	4.47365077e-05
0.5484384488 	0.02086858278 	-0.004165240255 	-5.868911943e-07 	0.0207107907 	3.171654851e-06 	3.948052334e-05
0.5588018907 	0.0180132122 	-0.00357979141 	-7.077902663e-07 	0.01785776323 	3.662569299e-06 	3.404186002e-05
0.5699019192 	0.0151336287 	-0.002945969594 	-8.49208353e-07 	0.01498588103 	4.038049636e-06 	2.856725436e-05
0.5817908876 	0.01236244702 	-0.002266341875 	-9.708458687e-07 	0.01222958521 	4.223096321e-06 	2.331298844e-05
0.5945248701 	0.009869665645 	-0.00157522342 	-1.013170727e-06 	0.009760449365 	4.142169728e-06 	1.860612927e-05
0.6081639266 	0.007903277175 	-0.0009251195528 	-9.351920424e-07 	0.007825622651 	3.614571252e-06 	1.491781179e-05
0.6227723857 	0.006725224403 	-0.000358783471 	-7.873440801e-07 	0.006682051706 	2.693544119e-06 	1.273784773e-05
0.638419148 	0.006388048819 	0.0001458894419 	-6.446649611e-07 	0.006378840882 	1.850158372e-06 	1.215984363e-05
0.6551780116 	0.006661456077 	0.0006199044815 	-4.954117287e-07 	0.006684659691 	1.443006261e-06 	1.274281928e-05
0.6731280194 	0.00727023954 	0.001060099531 	-3.406364917e-07 	0.007322264642 	1.409316687e-06 	1.395827153e-05
0.6923538328 	0.008087518694 	0.001475596616 	-2.000202293e-07 	0.00816345579 	1.556308339e-06 	1.556181565e-05
0.7129461301 	0.009087994682 	0.001877603179 	-6.567904989e-08 	0.009182054428 	1.782495505e-06 	1.750354776e-05
0.7350020349 	0.01026951811 	0.002267750324 	6.677778257e-08 	0.0103746579 	2.042652734e-06 	1.977698145e-05
0.7570579485 	0.01158985481 	0.002635963813 	1.909074996e-07 	0.01169784196 	2.309225414e-06 	2.229933802e-05
0.7776502527 	0.01298860025 	0.002975291161 	2.992634246e-07 	0.01309144988 	2.559674764e-06 	2.495594205e-05
0.7968760713 	0.01443884773 	0.003290367873 	3.889310776e-07 	0.01453015228 	2.781646101e-06 	2.76985087e-05
0.814826083 	0.01593065431 	0.003589063586 	4.580280345e-07 	0.01600608507 	2.96698456e-06 	3.051204681e-05
0.831584949 	0.01745173747 	0.003876477713 	5.060859562e-07 	0.0175090615 	3.106651789e-06 	3.337713761e-05
0.8472317127 	0.0189889561 	0.004154899804 	5.335661597e-07 	0.01902775528 	3.192638538e-06 	3.627219006e-05
0.8618401721 	0.02052841358 	0.004424751044 	5.421060277e-07 	0.02054966757 	3.219413856e-06 	3.917337787e-05
0.8754792281 	0.0220556412 	0.004685386403 	5.3411213e-07 	0.02206127705 	3.185241376e-06 	4.205492568e-05
0.8882132094 	0.02355615655 	0.004935567223 	5.124807761e-07 	0.02354861835 	3.092543413e-06 	4.489021158e-05
0.9001021759 	0.02501608993 	0.005173853398 	4.803742599e-07 	0.02499796546 	2.94745523e-06 	4.765306999e-05
0.9112022019 	0.0264227053 	0.005398897106 	4.409735595e-07 	0.02639643428 	2.758898732e-06 	5.031894025e-05
0.9215656407 	0.02776468717 	0.005609631487 	3.972628209e-07 	0.02773236062 	2.537434502e-06 	5.286558714e-05
0.9312413717 	0.02903207361 	0.005805369709 	3.518670947e-07 	0.02899532054 	2.294127913e-06 	5.527313978e-05
0.9402750304 	0.03021568415 	0.005985838468 	3.069531379e-07 	0.03017563156 	2.03960286e-06 	5.752314063e-05
0.9487092242 	0.03130573885 	0.006151179881 	2.641920662e-07 	0.0312630273 	1.783372139e-06 	5.959601913e-05
0.9565837329 	0.03228888026 	0.006307163437 	2.251219285e-07 	0.03224375123 	1.533479478e-06 	6.146555153e-05
0.9639356968 	0.03308370989 	0.006409317504 	1.913862552e-07 	0.03303628196 	1.312118955e-06 	6.297633537e-05
0.9688006083 	0.03364152664 	0.006468728795 	1.66078147e-07 	0.03359203567 	1.139960151e-06 	6.40357564e-05
0.9731064834 	0.03403618356 	0.006526129728 	1.476460964e-07 	0.03398477124 	1.003082612e-06 	6.478441957e-05
0.976917562 	0.03431216237 	0.006563460359 	1.322348071e-07 	0.03425885408 	8.850323874e-07 	6.530689763e-05
0.9802907021 	0.03445903038 	0.006582177135 	1.195098789e-07 	0.03440394185 	7.839392081e-07 	6.558347524e-05
0.9832762282 	0.03445565894 	0.00657927531 	1.09034315e-07 	0.03439900618 	6.978762567e-07 	6.557406649e-05
0.9859186816 	0.03426278426 	0.006548854252 	1.004267119e-07 	0.03420491736 	6.249612259e-07 	6.520407925e-05
0.9882574856 	0.03380782078 	0.006479568632 	9.336616549e-08 	0.03374928204 	5.633869311e-07 	6.43355117e-05
0.990327533 	0.03295104683 	0.006348767831 	8.756661817e-08 	0.03289268835 	5.113557269e-07 	6.270260605e-05
0.9921597073 	0.0314016314 	0.006131334365 	8.326300076e-08 	0.03134489825 	4.668253664e-07 	5.975208793e-05
0.9937813429 	0.02861849603 	0.005612613761 	7.857281041e-08 	0.02856594301 	4.274617159e-07 	5.445462686e-05
0.9948347186 	0.02436682433 	0.004760486534 	7.39172709e-08 	0.02432154166 	3.893327305e-07 	4.636361823e-05
0.9958880943 	0.01714869482 	0.003215716283 	6.263038964e-08 	0.01711655322 	3.237357626e-07 	3.262890774e-05
0.9969414701 	0.007009305363 	0.001140108942 	2.900966393e-08 	0.00699608413 	1.617042219e-07 	1.333648081e-05
0.9979948458 	0.00082067855 	7.160372828e-05 	2.517674373e-09 	0.0008191210731 	2.319281926e-08 	1.561472428e-06
0.9990482216 	1.108649768e-05 	1.310649407e-07 	5.038991315e-12 	1.106540625e-05 	3.168904462e-10 	2.109373979e-08
0.9990482216 	1.108649768e-05 	1.310649407e-07 	5.038991315e-12 	1.106540625e-05 	3.168904462e-10 	2.109373979e-08
