0 	0.4574000628 	-3.093703101e-14 	5.5446672e-18
0.001882306041 	0.4574346789 	-0.0008029174189 	5.164204784e-06
0.003764590556 	0.4575804771 	-0.00150725497 	9.511610258e-06
0.005646853463 	0.45785881 	-0.002211855558 	1.369580725e-05
0.007529094743 	0.4582447858 	-0.002934988626 	1.784753826e-05
0.009411314447 	0.458819724 	-0.003766638178 	2.252644099e-05
0.01230888652 	0.4597563567 	-0.0048326046 	2.816891707e-05
0.01558259296 	0.4611581885 	-0.006103774382 	3.46239827e-05
0.01928125303 	0.4631118568 	-0.007540157406 	4.15257086e-05
0.02348538385 	0.4657766479 	-0.009163034841 	4.879662236e-05
0.02824139099 	0.4693509751 	-0.0109878562 	5.624604125e-05
0.03361474634 	0.4740819481 	-0.0130265092 	6.35676584e-05
0.03968556905 	0.4802899129 	-0.01529199479 	7.035172129e-05
0.04658836433 	0.4883649109 	-0.01778932814 	7.601029571e-05
0.0543897936 	0.4987403868 	-0.0205040913 	7.985370778e-05
0.06322334345 	0.5133007454 	-0.02368986592 	8.20255306e-05
0.07662502217 	0.5342515465 	-0.02742831838 	7.73692533e-05
0.0910400846 	0.5607241116 	-0.03125181155 	6.866203405e-05
0.1065326275 	0.5913008192 	-0.03483895811 	5.588525841e-05
0.1231893535 	0.6258076681 	-0.03813227578 	3.968389433e-05
0.1411004821 	0.6640347524 	-0.04107029122 	2.071847695e-05
0.1601313758 	0.7052092701 	-0.04355879891 	1.658205028e-06
0.1603602305 	0.7056963495 	-0.04358908727 	2.649749125e-07
0.181067345 	0.7496433678 	-0.04564674031 	2.340013586e-05
0.2033256789 	0.7962909998 	-0.04717917917 	4.754066402e-05
0.2272448124 	0.8448437805 	-0.04814249608 	7.179178163e-05
0.2529407134 	0.894230647 	-0.04851311554 	9.522503241e-05
0.280537575 	0.9431158053 	-0.04829121629 	0.000116888936
0.3101788018 	0.9899688979 	-0.04749996532 	0.0001358252414
0.341991698 	1.033215027 	-0.04617999967 	0.0001511512987
0.3761334987 	1.071451298 	-0.04437678283 	0.000162156395
0.4127592716 	1.103603822 	-0.04212800486 	0.0001683299913
0.4520368631 	1.128988668 	-0.03945973023 	0.0001694072973
0.4941463394 	1.147037822 	-0.03643952119 	0.000165577931
0.5362843642 	1.157472443 	-0.03326982985 	0.0001575663242
0.5756432866 	1.161270529 	-0.03016465689 	0.0001470797238
0.6123999578 	1.159951046 	-0.02719685504 	0.0001356856833
0.6467227457 	1.154627344 	-0.02437759661 	0.0001242334063
0.6787708094 	1.146027899 	-0.02171072034 	0.0001131748755
0.708693935 	1.134645167 	-0.01919543875 	0.0001027247228
0.7366321921 	1.120829379 	-0.01682865228 	9.29514898e-05
0.7627169818 	1.104840697 	-0.01460697754 	8.384275665e-05
0.7870710604 	1.086878613 	-0.01252820574 	7.534101466e-05
0.8098091487 	1.067100503 	-0.01059208691 	6.736936302e-05
0.8310384246 	1.045634007 	-0.008800701731 	5.984644594e-05
0.8508589793 	1.022584494 	-0.007158440803 	5.269860485e-05
0.8693642773 	0.998036757 	-0.005671654099 	4.586990307e-05
0.8866415892 	0.9720486683 	-0.004347879644 	3.932980613e-05
0.902772399 	0.9446328273 	-0.003194279754 	3.307692079e-05
0.9178327855 	0.9157189853 	-0.002216400624 	2.713992918e-05
0.9318937798 	0.8872589966 	-0.00146988981 	2.195502548e-05
0.9411981638 	0.8623984998 	-0.0009759101419 	1.797196891e-05
0.949433363 	0.8399526966 	-0.0006402026376 	1.482781568e-05
0.9567222395 	0.817737293 	-0.0003961782501 	1.214426921e-05
0.963173537 	0.7954972644 	-0.0002256884352 	9.878763346e-06
0.9688835034 	0.772873446 	-0.0001127278287 	7.98224375e-06
0.9739373264 	0.7493588528 	-4.328371731e-05 	6.40205144e-06
0.9784104047 	0.7242117267 	-5.456751213e-06 	5.084973141e-06
0.982369473 	0.6962776507 	1.072137556e-05 	3.978932766e-06
0.985873597 	0.6635981187 	1.357772841e-05 	3.036316661e-06
0.9889750553 	0.6250457313 	1.017380559e-05 	2.263947508e-06
0.9909896885 	0.5805539729 	6.189572352e-06 	1.66134478e-06
0.9930043218 	0.5173279782 	4.760672985e-06 	1.128031794e-06
0.9950189551 	0.4034338872 	5.305888777e-06 	5.850659438e-07
0.9970335883 	0.2191186328 	5.477931703e-06 	9.860720588e-08
0.9990482216 	0.06238816773 	2.975894857e-06 	-6.392266496e-08
0.9990482216 	0.06238816773 	2.975894857e-06 	-6.392266496e-08
