0.4709558481 	0.0698386201 	1.390168015e-08 	-1.065897804e-11
0.4709558481 	0.0698386201 	1.390168015e-08 	-1.065897804e-11
0.4720092239 	0.2657351924 	1.674914554e-06 	-1.216367997e-09
0.4730625996 	0.4985728857 	6.31059432e-06 	-4.562349049e-09
0.4741159754 	0.6618133553 	1.26835076e-05 	-9.136016098e-09
0.4751693511 	0.7628843179 	1.961939326e-05 	-1.409515472e-08
0.4762227269 	0.8370897419 	2.792539271e-05 	-2.001831089e-08
0.4778443634 	0.9021901789 	3.920874465e-05 	-2.803854622e-08
0.4796765386 	0.9571075127 	5.35364584e-05 	-3.818553893e-08
0.4817465869 	1.003100674 	7.059028142e-05 	-5.021517427e-08
0.4840853915 	1.043205229 	9.08142493e-05 	-6.441892849e-08
0.4867278453 	1.079204688 	0.0001147822462 	-8.11711516e-08
0.4897133715 	1.112227418 	0.0001431770333 	-1.009102033e-07
0.4930865115 	1.143029545 	0.0001768157238 	-1.24150677e-07
0.4968975894 	1.172141163 	0.0002166728993 	-1.514930698e-07
0.5012034633 	1.199947159 	0.0002639428762 	-1.836510957e-07
0.506068373 	1.22906857 	0.0003255076033 	-2.250849164e-07
0.5134203412 	1.260453387 	0.0004091624333 	-2.804863186e-07
0.5212948542 	1.290593838 	0.0005109766684 	-3.464481022e-07
0.529729052 	1.317907194 	0.0006259586622 	-4.18814354e-07
0.5387627144 	1.342941738 	0.0007547214346 	-4.968640834e-07
0.5484384488 	1.366020517 	0.0008974906399 	-5.791958928e-07
0.5588018907 	1.387309315 	0.001054254194 	-6.648990435e-07
0.5699019192 	1.406853677 	0.001225056958 	-7.526555277e-07
0.5817908876 	1.424461351 	0.001407930028 	-8.346651854e-07
0.5945248701 	1.439390172 	0.001591434825 	-8.838401067e-07
0.6081639266 	1.450285467 	0.00174537104 	-8.520208946e-07
0.6227723857 	1.455970416 	0.001831232772 	-7.308998235e-07
0.638419148 	1.456743547 	0.001836116506 	-5.766254421e-07
0.6551780116 	1.454109021 	0.001778829645 	-4.392234656e-07
0.6731280194 	1.449257044 	0.001681059449 	-3.239873224e-07
0.6923538328 	1.442621822 	0.001554118935 	-2.191678337e-07
0.7129461301 	1.434203575 	0.001403490372 	-1.168593099e-07
0.7350020349 	1.423959515 	0.001235735587 	-1.314542427e-08
0.7570579485 	1.412261313 	0.001064764629 	8.720539196e-08
0.7776502527 	1.399687717 	0.0009051390466 	1.764683973e-07
0.7968760713 	1.38648225 	0.0007635151925 	2.506924891e-07
0.814826083 	1.372652451 	0.000641717195 	3.085515712e-07
0.831584949 	1.358179733 	0.0005399269471 	3.496237902e-07
0.8472317127 	1.343032336 	0.0004570202442 	3.742980398e-07
0.8618401721 	1.327169697 	0.000390946557 	3.837142922e-07
0.8754792281 	1.310543288 	0.0003391130213 	3.796338934e-07
0.8882132094 	1.293094831 	0.0002987109538 	3.642521768e-07
0.9001021759 	1.274751481 	0.000266976082 	3.400065459e-07
0.9112022019 	1.255417853 	0.0002413805209 	3.093862808e-07
0.9215656407 	1.234964361 	0.0002197550102 	2.747620551e-07
0.9312413717 	1.213210468 	0.0002003476262 	2.382533073e-07
0.9402750304 	1.189899842 	0.0001818320389 	2.016413783e-07
0.9487092242 	1.164661293 	0.0001632878323 	1.663258411e-07
0.9565837329 	1.136942856 	0.000144174735 	1.333472465e-07
0.9639356968 	1.108164962 	0.0001256170236 	1.054037601e-07
0.9688006083 	1.081481954 	0.0001096223759 	8.45679559e-08
0.9731064834 	1.055983602 	9.563060813e-05 	6.856540657e-08
0.976917562 	1.02926769 	8.245765616e-05 	5.516265842e-08
0.9802907021 	1.000962119 	7.017256723e-05 	4.398135912e-08
0.9832762282 	0.9705566049 	5.882537454e-05 	3.468906147e-08
0.9859186816 	0.937324427 	4.844241256e-05 	2.698947833e-08
0.9882574856 	0.9001810985 	3.902484424e-05 	2.062517228e-08
0.990327533 	0.8574112017 	3.055168504e-05 	1.53751964e-08
0.9921597073 	0.8060918551 	2.300676532e-05 	1.106410757e-08
0.9937813429 	0.7449185738 	1.675003895e-05 	7.747782392e-09
0.9948347186 	0.6748526894 	1.192644577e-05 	5.361416833e-09
0.9958880943 	0.5795523505 	7.741268024e-06 	3.408026744e-09
0.9969414701 	0.429947971 	3.835877802e-06 	1.66104266e-09
0.9979948458 	0.2261876411 	1.021351751e-06 	4.350257221e-10
0.9990482216 	0.06505546803 	1.978263641e-08 	6.800647017e-12
0.9990482216 	0.06505546803 	1.978263641e-08 	6.800647017e-12
