0.4709558481 	1.467078957e-05 	-2.010173081e-07 	-8.407179157e-14 	1.464287659e-05 	1.900076725e-12 	2.791339256e-08
0.4720092239 	0.001184198624 	-0.0001141994463 	-3.01487373e-11 	0.001181946172 	1.447975357e-10 	2.253117909e-06
0.4730625996 	0.009349229548 	-0.001576411555 	-1.499849891e-10 	0.009331457445 	4.432832794e-10 	1.778835144e-05
0.4741159754 	0.02154768767 	-0.00409927237 	-5.963591419e-11 	0.02150675315 	-1.676497654e-10 	4.0997849e-05
0.4751693511 	0.02926865807 	-0.005736298246 	3.041833016e-10 	0.02921310375 	-1.608161144e-09 	5.568829512e-05
0.4762227269 	0.03357417188 	-0.006589259386 	6.724198477e-10 	0.0335105187 	-2.844176572e-09 	6.388036241e-05
0.4778443634 	0.03625372711 	-0.007089791624 	1.044015531e-09 	0.03618509361 	-3.602886565e-09 	6.897884555e-05
0.4796765386 	0.03758478235 	-0.007261860041 	1.354657685e-09 	0.03751374095 	-3.467430034e-09 	7.151161665e-05
0.4817465869 	0.03816457585 	-0.007343634545 	1.528030692e-09 	0.03809254399 	-2.231319366e-09 	7.261497612e-05
0.4840853915 	0.03829835228 	-0.007356190908 	1.531321023e-09 	0.03822614888 	2.019335768e-10 	7.286966417e-05
0.4867278453 	0.03813181196 	-0.007321841686 	1.31892361e-09 	0.0380599555 	3.917530607e-09 	7.25528534e-05
0.4897133715 	0.03774034478 	-0.007251439576 	8.459855179e-10 	0.03766917896 	8.9859738e-09 	7.18079247e-05
0.4930865115 	0.03716474327 	-0.007150350633 	7.557334103e-11 	0.03709449325 	1.546882139e-08 	7.071241401e-05
0.4968975894 	0.03642717366 	-0.007020999528 	-1.013904118e-09 	0.03635796922 	2.343758302e-08 	6.93083945e-05
0.5012034633 	0.03553899937 	-0.006861183517 	-2.381973293e-09 	0.03547087509 	3.30068592e-08 	6.761734654e-05
0.506068373 	0.03440886558 	-0.006679275963 	-4.27630555e-09 	0.03434180515 	4.554207332e-08 	6.546502542e-05
0.5134203412 	0.03293524559 	-0.006423340217 	-6.714729794e-09 	0.03286909743 	6.305606698e-08 	6.26576352e-05
0.5212948542 	0.03123997469 	-0.006094302371 	-9.409009779e-09 	0.03117424301 	8.565708854e-08 	5.94267716e-05
0.529729052 	0.02945764912 	-0.005749784177 	-1.228758961e-08 	0.02939155184 	1.135538001e-07 	5.602846677e-05
0.5387627144 	0.02760465267 	-0.005382790981 	-1.536577367e-08 	0.02753726645 	1.484195103e-07 	5.249368344e-05
0.5484384488 	0.02569554588 	-0.004991453086 	-1.886305795e-08 	0.02562584297 	1.919602816e-07 	4.884997904e-05
0.5588018907 	0.02374786195 	-0.004573759774 	-2.310634574e-08 	0.02367475858 	2.455326086e-07 	4.513066991e-05
0.5699019192 	0.02178594357 	-0.004127603901 	-2.850623262e-08 	0.02170837637 	3.096240077e-07 	4.138219889e-05
0.5817908876 	0.01984477424 	-0.003650986353 	-3.545783359e-08 	0.01976181908 	3.830808791e-07 	3.767151968e-05
0.5945248701 	0.01797405761 	-0.0031422464 	-4.450060677e-08 	0.01788510363 	4.618111979e-07 	3.409397842e-05
0.6081639266 	0.01624172359 	-0.002600602747 	-5.615505494e-08 	0.0161467477 	5.374797528e-07 	3.078018886e-05
0.6227723857 	0.01473489368 	-0.002027208179 	-6.954327336e-08 	0.01463485861 	5.973825379e-07 	2.789810806e-05
0.638419148 	0.01355587605 	-0.00142495664 	-8.317913349e-08 	0.01345309929 	6.249241875e-07 	2.564534634e-05
0.6551780116 	0.01280793441 	-0.0007978235364 	-9.589107534e-08 	0.01270610148 	6.051263919e-07 	2.42213609e-05
0.6731280194 	0.01256959002 	-0.0001509367738 	-1.060655822e-07 	0.01247324955 	5.35977564e-07 	2.37774804e-05
0.6923538328 	0.01287027125 	0.0005094444354 	-1.120992867e-07 	0.01278397566 	4.33313324e-07 	2.436981072e-05
0.7129461301 	0.01368626712 	0.001176415227 	-1.13001027e-07 	0.01361364426 	3.224825679e-07 	2.595138968e-05
0.7350020349 	0.01493697037 	0.001833339755 	-1.089975118e-07 	0.01487978593 	2.258864182e-07 	2.836500761e-05
0.7570579485 	0.01646092273 	0.002445496228 	-1.017429186e-07 	0.01641849641 	1.545534501e-07 	3.129821745e-05
0.7776502527 	0.01808106939 	0.002988347049 	-9.338807091e-08 	0.01805103608 	1.060868858e-07 	3.44102918e-05
0.7968760713 	0.01970095302 	0.003465094304 	-8.528557454e-08 	0.01968062605 	7.232312718e-08 	3.751674321e-05
0.814826083 	0.02128192076 	0.003886872228 	-7.785587714e-08 	0.02126887124 	4.69200201e-08 	4.054437996e-05
0.831584949 	0.02280302151 	0.004262199465 	-7.110213443e-08 	0.02279513254 	2.636074293e-08 	4.345385819e-05
0.8472317127 	0.02425313229 	0.004597771984 	-6.486726906e-08 	0.02424856171 	9.001289583e-09 	4.622449815e-05
0.8618401721 	0.0256269197 	0.00489899156 	-5.895657113e-08 	0.02562404333 	-5.711304045e-09 	4.884654841e-05
0.8754792281 	0.02692260772 	0.005170314494 	-5.319209237e-08 	0.02691997457 	-1.776942121e-08 	5.131695354e-05
0.8882132094 	0.02814062908 	0.00541548141 	-4.743303593e-08 	0.02813693505 	-2.693091046e-08 	5.363681846e-05
0.9001021759 	0.02928272547 	0.005637670696 	-4.158054362e-08 	0.02927680254 	-3.29029321e-08 	5.58097227e-05
0.9112022019 	0.03035127448 	0.005839603789 	-3.557626032e-08 	0.03034209016 	-3.543548082e-08 	5.7840457e-05
0.9215656407 	0.03134870601 	0.006023620862 	-2.939905715e-08 	0.03133536832 	-3.436235886e-08 	5.973392124e-05
0.9312413717 	0.03227688322 	0.006191739936 	-2.306164557e-08 	0.03225864824 	-2.961538157e-08 	6.149394938e-05
0.9402750304 	0.0331362686 	0.006345711069 	-1.660747309e-08 	0.03311254906 	-2.122776005e-08 	6.312172166e-05
0.9487092242 	0.03392452307 	0.006487083176 	-1.010761788e-08 	0.03389488932 	-9.333152219e-09 	6.461307964e-05
0.9565837329 	0.03463368423 	0.006623142793 	-3.643111284e-09 	0.03459787856 	5.826049624e-09 	6.595317252e-05
0.9639356968 	0.0352013251 	0.006708310752 	2.15521846e-09 	0.03515967329 	2.250987047e-08 	6.702410942e-05
0.9688006083 	0.03559269564 	0.006755523228 	6.722414306e-09 	0.03554626409 	3.79150334e-08 	6.776105893e-05
0.9731064834 	0.03586181288 	0.006805806184 	1.043037004e-08 	0.03581148466 	5.189591532e-08 	6.826664305e-05
0.976917562 	0.0360347704 	0.006837576475 	1.362783957e-08 	0.03598102873 	6.531440052e-08 	6.858984117e-05
0.9802907021 	0.03609758433 	0.006852137815 	1.634310166e-08 	0.03604095118 	7.786960336e-08 	6.870407002e-05
0.9832762282 	0.03602578505 	0.006846101498 	1.860396534e-08 	0.03596682668 	8.931533512e-08 	6.856276811e-05
0.9859186816 	0.03577694416 	0.006813241304 	2.04430478e-08 	0.03571630098 	9.944312737e-08 	6.808519651e-05
0.9882574856 	0.03527533299 	0.006741945112 	2.189431285e-08 	0.03521377816 	1.080550951e-07 	6.712724834e-05
0.990327533 	0.03437767362 	0.006609309822 	2.298892815e-08 	0.03431623678 	1.149064481e-07 	6.5416285e-05
0.9921597073 	0.03278794146 	0.006391177564 	2.383376775e-08 	0.03272820077 	1.195591404e-07 	6.238904701e-05
0.9937813429 	0.02995388657 	0.005866946287 	2.391635518e-08 	0.02989849883 	1.206875371e-07 	5.699484863e-05
0.9948347186 	0.02562955639 	0.005006342692 	2.347137778e-08 	0.02558167878 	1.175149638e-07 	4.876578982e-05
0.9958880943 	0.01823186892 	0.003429187427 	2.063537573e-08 	0.01819757362 	1.029559215e-07 	3.468963307e-05
0.9969414701 	0.007562324763 	0.001241034527 	9.870294673e-09 	0.007548029151 	5.331404138e-08 	1.438864143e-05
0.9979948458 	0.0009015757326 	8.062315723e-05 	8.999808705e-10 	0.0008998636121 	7.911403816e-09 	1.715390149e-06
0.9990482216 	1.219288902e-05 	1.493204739e-07 	1.829313336e-12 	1.21696921e-05 	1.082506529e-10 	2.319881552e-08
