0.2638980281 	2.762490109e-06 	-1.171788613e-08 	1.146744788e-10 	2.776715148e-06 	-1.128604369e-08 	5.293190821e-09
0.2638980281 	2.762490109e-06 	-1.171788613e-08 	1.146744788e-10 	2.776715148e-06 	-1.128604369e-08 	5.293190821e-09
0.2654533431 	0.0003061867862 	-1.485828443e-05 	1.036554624e-07 	0.0003300715856 	-1.078055852e-06 	6.292081807e-07
0.2670087167 	0.003154190183 	-0.0003835595267 	1.652665141e-06 	0.003773908292 	-8.039479553e-06 	7.194118109e-06
0.2685638061 	0.008709499772 	-0.001324426374 	3.668449833e-06 	0.0108127109 	-1.191619484e-05 	2.061203221e-05
0.2701182719 	0.01366924877 	-0.002260794643 	3.965798684e-06 	0.01714063739 	-5.884091953e-06 	3.267481885e-05
0.2716717782 	0.01731558493 	-0.002955507725 	3.237492068e-06 	0.02160749491 	2.786480045e-06 	4.11898908e-05
0.2740607069 	0.02040227922 	-0.003564415346 	1.949790727e-06 	0.02520651758 	1.295172922e-05 	4.805062829e-05
0.2767546051 	0.02288282661 	-0.004067004248 	1.361717037e-07 	0.02790609676 	2.404506283e-05 	5.319677652e-05
0.2797895793 	0.02487244429 	-0.004521786943 	-1.920025732e-06 	0.02996457313 	3.538885726e-05 	5.71208046e-05
0.2832304115 	0.0265235966 	-0.004929891192 	-4.196904797e-06 	0.03155162489 	4.697476937e-05 	6.014616635e-05
0.287111948 	0.02789802812 	-0.005292813035 	-6.653711849e-06 	0.03274817059 	5.87299758e-05 	6.242711503e-05
0.2914829797 	0.0290236216 	-0.005608984985 	-9.247438046e-06 	0.03359559342 	7.052297813e-05 	6.404253846e-05
0.2964036899 	0.02991455143 	-0.005876797129 	-1.194146556e-05 	0.03411741231 	8.220298674e-05 	6.50372703e-05
0.3019811527 	0.03057462524 	-0.006093514857 	-1.469769187e-05 	0.03432401079 	9.355915975e-05 	6.543110443e-05
0.3082566829 	0.03100121302 	-0.006254884361 	-1.745997844e-05 	0.03422154874 	0.0001042723074 	6.523578329e-05
0.3153299793 	0.03119532291 	-0.006373242992 	-2.028946002e-05 	0.03378101545 	0.000114603804 	6.439600439e-05
0.3259983069 	0.03108071662 	-0.006414605955 	-2.146723499e-05 	0.03287447916 	0.0001149935846 	6.266789427e-05
0.3373926531 	0.0306348478 	-0.006360328775 	-2.143703938e-05 	0.03157523412 	0.0001094041771 	6.019117211e-05
0.3495488673 	0.02993578814 	-0.006241666782 	-2.066576641e-05 	0.03006680522 	0.000101317583 	5.731568739e-05
0.3625213994 	0.02905183088 	-0.006070749888 	-1.938536831e-05 	0.02842769227 	9.181312096e-05 	5.419108253e-05
0.3763660986 	0.02803321411 	-0.005859221815 	-1.781186534e-05 	0.02671159271 	8.173171516e-05 	5.091971982e-05
0.391140701 	0.02691849013 	-0.005614068438 	-1.611971235e-05 	0.02495795333 	7.169945568e-05 	4.757679575e-05
0.4069054432 	0.02574155008 	-0.005338580797 	-1.443964038e-05 	0.02319809863 	6.216286322e-05 	4.422202357e-05
0.423723814 	0.0245383314 	-0.005033267344 	-1.286416393e-05 	0.02146140838 	5.34326398e-05 	4.091140927e-05
0.4416634491 	0.02335219057 	-0.004696517053 	-1.145597094e-05 	0.01978083038 	4.571491586e-05 	3.77077605e-05
0.4607971748 	0.02223635615 	-0.004324924458 	-1.025523556e-05 	0.0181965574 	3.910911139e-05 	3.468769588e-05
0.4812051392 	0.02125142651 	-0.003913092692 	-9.278938368e-06 	0.01675682984 	3.357287449e-05 	3.194317499e-05
0.5029838614 	0.02045851791 	-0.003453698332 	-8.515805212e-06 	0.01551668183 	2.889572567e-05 	2.957910822e-05
0.5262183068 	0.01991195853 	-0.002938739908 	-7.915381358e-06 	0.01453594607 	2.474085056e-05 	2.770955327e-05
0.5510200772 	0.01965327302 	-0.002360818331 	-7.38883703e-06 	0.01387575594 	2.076537828e-05 	2.645104739e-05
0.5775021918 	0.01970446895 	-0.001714000788 	-6.843599835e-06 	0.0135943465 	1.677633167e-05 	2.591460278e-05
0.6057914839 	0.02006629459 	-0.0009965538181 	-6.223518391e-06 	0.01374074375 	1.282087016e-05 	2.619367663e-05
0.636028988 	0.0207228473 	-0.0002264623371 	-5.530673455e-06 	0.01433487877 	9.158452101e-06 	2.732626312e-05
0.6662252001 	0.02162126102 	0.0005451573847 	-4.852805164e-06 	0.01531530841 	6.176698566e-06 	2.919523451e-05
0.6943993079 	0.02267946978 	0.001272183427 	-4.264449207e-06 	0.01655429121 	3.97817535e-06 	3.155708006e-05
0.7207016499 	0.02383616049 	0.001943099384 	-3.760425558e-06 	0.01794660572 	2.404500246e-06 	3.42112185e-05
0.7452665078 	0.02505102772 	0.002560693058 	-3.314731824e-06 	0.01942472722 	1.30051832e-06 	3.70289289e-05
0.768215059 	0.02629168566 	0.003128630698 	-2.902624325e-06 	0.0209416557 	5.481696993e-07 	3.99206162e-05
0.7896577441 	0.02753309518 	0.003651026906 	-2.506696338e-06 	0.02246487426 	6.661099293e-08 	4.282429412e-05
0.8096954208 	0.02875635221 	0.004131834186 	-2.117814021e-06 	0.02397182389 	-1.990544087e-07 	4.569695895e-05
0.8284213407 	0.02994679085 	0.004574352845 	-1.733717257e-06 	0.02544647583 	-2.891762075e-07 	4.850805542e-05
0.8459217018 	0.03109188312 	0.00498084171 	-1.357789711e-06 	0.02687637392 	-2.378946737e-07 	5.123383859e-05
0.8622766275 	0.03217917296 	0.005352226669 	-9.98467025e-07 	0.02825005016 	-7.945973164e-08 	5.385244729e-05
0.8775607399 	0.03319435403 	0.005687921254 	-6.692683328e-07 	0.02955473397 	1.459412098e-07 	5.633953725e-05
0.8918436525 	0.03411949147 	0.005985696691 	-3.887659359e-07 	0.03077429121 	3.861579476e-07 	5.866435231e-05
0.9051903915 	0.03493135297 	0.006241635925 	-1.799185785e-07 	0.03188731587 	5.716646975e-07 	6.078608666e-05
0.9176617495 	0.03559975154 	0.006450162941 	-6.831637827e-08 	0.03286518642 	6.124638827e-07 	6.265017973e-05
0.929314591 	0.03608553002 	0.006604168635 	-7.917307634e-08 	0.03366991475 	3.994712424e-07 	6.418421558e-05
0.9402021232 	0.03633774215 	0.006699718793 	-2.357369058e-07 	0.03425061415 	-1.832422224e-07 	6.529119003e-05
0.950374142 	0.03629742487 	0.006702016633 	-5.011675692e-07 	0.03452642137 	-1.173672869e-06 	6.581695526e-05
0.957108839 	0.03602164427 	0.006638666113 	-8.024329669e-07 	0.03451729736 	-2.312516919e-06 	6.579956235e-05
0.963072106 	0.03558250992 	0.006551607552 	-1.135984598e-06 	0.03430452071 	-3.578517761e-06 	6.539395092e-05
0.9683520561 	0.03496776301 	0.006425168872 	-1.480886675e-06 	0.033898761 	-4.970252944e-06 	6.462046014e-05
0.9730267922 	0.03418020706 	0.006265817853 	-1.816364077e-06 	0.03330156242 	-6.41279786e-06 	6.348203366e-05
0.9771655318 	0.0332169814 	0.006076901365 	-2.121383659e-06 	0.03250932908 	-7.825129058e-06 	6.197181673e-05
0.98082961 	0.03206462106 	0.005860062185 	-2.375888453e-06 	0.03150813298 	-9.116046994e-06 	6.00632587e-05
0.9840733699 	0.03068977079 	0.005613811134 	-2.558615327e-06 	0.03026450302 	-1.017388348e-05 	5.769255435e-05
0.9869449531 	0.02901935522 	0.005330268111 	-2.641360445e-06 	0.02870558768 	-1.084031625e-05 	5.472082842e-05
0.9894870034 	0.0268911455 	0.005007930923 	-2.584081633e-06 	0.02666968184 	-1.084634162e-05 	5.083982605e-05
0.9917372914 	0.02404369185 	0.004511741045 	-2.265788233e-06 	0.02389456201 	-9.724604479e-06 	4.554967635e-05
0.9931992005 	0.02039029999 	0.003844145264 	-1.627326034e-06 	0.02029319687 	-7.269897561e-06 	3.868447343e-05
0.9946612482 	0.01463742218 	0.002692899842 	-5.387430981e-07 	0.01458270713 	-3.018560777e-06 	2.779869285e-05
0.9961234342 	0.006113442858 	0.0009997006719 	1.011971007e-07 	0.006095274103 	-1.353115201e-07 	1.161928653e-05
0.9975857587 	0.0006705092744 	5.834887545e-05 	1.913956928e-08 	0.000669057048 	5.14566553e-09 	1.275408688e-06
0.9990482216 	6.508794019e-06 	6.484517606e-08 	-4.699606588e-11 	6.496297058e-06 	-5.385670673e-09 	1.238374774e-08
0.9990482216 	6.508794019e-06 	6.484517606e-08 	-4.699606588e-11 	6.496297058e-06 	-5.385670673e-09 	1.238374774e-08
