0 	0.0301227007 	-2.055199023e-15 	-4.119669849e-19 	5.851521506e-15 	2.554829464e-16 	1.115462634e-17
0.00190503019 	0.03011225002 	-5.228534929e-05 	3.291024379e-08 	0.0322043117 	-1.243861648e-05 	6.139036883e-05
0.003810043283 	0.03011177976 	-0.00016584712 	1.435801992e-07 	0.03229209421 	-1.234099519e-05 	6.15577067e-05
0.005715039211 	0.0301238998 	-0.0002516503828 	2.166229204e-07 	0.03231032001 	-1.218055374e-05 	6.159245013e-05
0.007620017961 	0.03013111647 	-0.0003357887315 	2.852232103e-07 	0.03233083103 	-1.202277642e-05 	6.163154983e-05
0.009524979574 	0.03014474518 	-0.0004311384975 	3.606442347e-07 	0.03235023379 	-1.186576639e-05 	6.166853688e-05
0.01245757067 	0.03016840101 	-0.0005531185167 	4.5155648e-07 	0.03238017339 	-1.16242238e-05 	6.172561009e-05
0.01577085506 	0.03020580685 	-0.000698961988 	5.549113356e-07 	0.03242541673 	-1.136503108e-05 	6.181185647e-05
0.01951424692 	0.03025979454 	-0.0008635922896 	6.639921054e-07 	0.03248679025 	-1.108581829e-05 	6.192885145e-05
0.02376371923 	0.03033531894 	-0.001049072348 	7.768694286e-07 	0.03256886045 	-1.077679259e-05 	6.208530005e-05
0.02856971015 	0.03043831093 	-0.001257468383 	8.911915097e-07 	0.03267677538 	-1.044349613e-05 	6.229101592e-05
0.03399956521 	0.03057563965 	-0.001491024447 	1.003861417e-06 	0.03281643012 	-1.008394148e-05 	6.255723666e-05
0.04013425608 	0.03075555411 	-0.001752144872 	1.110699812e-06 	0.0329947363 	-9.692308089e-06 	6.289713779e-05
0.04710020392 	0.03098735933 	-0.002043498007 	1.205473155e-06 	0.03321916959 	-9.251010457e-06 	6.332497003e-05
0.05497248355 	0.03128036466 	-0.002366319343 	1.281049107e-06 	0.03349675446 	-8.757753073e-06 	6.385412393e-05
0.06388212204 	0.03168101194 	-0.002754633708 	1.342708777e-06 	0.03386702869 	-8.215965095e-06 	6.455996954e-05
0.07738804933 	0.03223595335 	-0.003234092113 	1.32647913e-06 	0.03436700428 	-7.294173821e-06 	6.551306197e-05
0.09190225286 	0.03289790632 	-0.003752778521 	1.245055403e-06 	0.03494618675 	-6.262940294e-06 	6.661714474e-05
0.1074900975 	0.03359950392 	-0.00426460995 	1.080056723e-06 	0.03553675987 	-5.0753136e-06 	6.774294124e-05
0.1242359314 	0.0342961567 	-0.004756731859 	8.355261455e-07 	0.03609226518 	-3.725350548e-06 	6.880188875e-05
0.1422279963 	0.03492936975 	-0.005213052012 	5.221371114e-07 	0.03655296577 	-2.234358516e-06 	6.968011213e-05
0.1615588878 	0.03542617348 	-0.005614068524 	1.585546865e-07 	0.03684602031 	-6.566580791e-07 	7.023875554e-05
0.1701363888 	0.03553925017 	-0.005747337654 	7.362015488e-06 	0.03686303927 	-8.535942205e-05 	7.02711984e-05
0.1823260612 	0.03570054312 	-0.00593696613 	2.355634993e-07 	0.03688751824 	-9.447960546e-07 	7.031786213e-05
0.2046323802 	0.03565418033 	-0.006155288724 	6.157475781e-07 	0.0365839922 	-2.423761295e-06 	6.973925712e-05
0.2285867053 	0.0351825336 	-0.006240066966 	9.283012704e-07 	0.03583943323 	-3.606645575e-06 	6.831992078e-05
0.254304522 	0.03418495517 	-0.006161896638 	1.124208271e-06 	0.03456610877 	-4.347984921e-06 	6.589261046e-05
0.2819095097 	0.03258014932 	-0.005894410567 	1.163197486e-06 	0.0327000311 	-4.549251862e-06 	6.233534779e-05
0.3115423872 	0.03033161691 	-0.005420581407 	1.03083854e-06 	0.03022515581 	-4.211519895e-06 	5.761754762e-05
0.3433329903 	0.02748442584 	-0.004742312528 	7.601315756e-07 	0.02720651979 	-3.486071839e-06 	5.186318838e-05
0.37743697 	0.02421261896 	-0.003890359398 	4.408580764e-07 	0.02383079403 	-2.683190633e-06 	4.542811685e-05
0.414010442 	0.02084712619 	-0.002925832601 	1.924037877e-07 	0.02042612614 	-2.145890282e-06 	3.893787356e-05
0.4532220137 	0.01782853177 	-0.001927189914 	9.311851048e-08 	0.01741069889 	-2.012852134e-06 	3.318963114e-05
0.4952525067 	0.01564701753 	-0.000962735404 	1.230220989e-07 	0.01524091725 	-2.076781664e-06 	2.905342428e-05
0.5373056793 	0.01465065892 	-7.520884543e-05 	2.057811439e-07 	0.01424151072 	-1.96055996e-06 	2.714827765e-05
0.5765818555 	0.01475374587 	0.0007263222939 	2.742645441e-07 	0.01432700914 	-1.559859514e-06 	2.731126141e-05
0.6132593029 	0.01560938068 	0.001453685296 	2.882291418e-07 	0.01516319544 	-1.079076639e-06 	2.89052649e-05
0.6475070436 	0.01689838947 	0.002114356258 	2.361085511e-07 	0.01644190447 	-7.26298882e-07 	3.13428397e-05
0.679484443 	0.01839408932 	0.002708667787 	1.232854716e-07 	0.01794210523 	-6.03369314e-07 	3.420263932e-05
0.7093412355 	0.01994496062 	0.00323383223 	-3.869196549e-08 	0.01951395842 	-7.358962376e-07 	3.719902837e-05
0.7372173963 	0.02144528824 	0.00368587108 	-2.352545341e-07 	0.02105102568 	-1.107804043e-06 	4.012910577e-05
0.7632441099 	0.02281769843 	0.004061470965 	-4.501153087e-07 	0.0224736955 	-1.676691542e-06 	4.284110987e-05
0.7875439148 	0.02400567228 	0.004359084927 	-6.663636668e-07 	0.02372219331 	-2.382226116e-06 	4.522109369e-05
0.8102313055 	0.02497060473 	0.004579436389 	-8.675638142e-07 	0.02475396692 	-3.15375334e-06 	4.718794095e-05
0.8314132346 	0.02569017498 	0.004725651246 	-1.038898218e-06 	0.02554234344 	-3.918244723e-06 	4.869080572e-05
0.8511895776 	0.02615651813 	0.004803129155 	-1.168231447e-06 	0.02607499966 	-4.607845232e-06 	4.970619652e-05
0.8696535944 	0.02637368993 	0.004819234272 	-1.246920076e-06 	0.02635174254 	-5.165710652e-06 	5.023374536e-05
0.8868923629 	0.02635444527 	0.004782877268 	-1.270240656e-06 	0.02638159449 	-5.54916133e-06 	5.029065148e-05
0.9029871861 	0.0261165419 	0.00470407333 	-1.237410997e-06 	0.02617937341 	-5.729921259e-06 	4.990516191e-05
0.9180139737 	0.0256786183 	0.004596559048 	-1.150907944e-06 	0.02576193457 	-5.692026551e-06 	4.910940745e-05
0.9320435986 	0.02510222508 	0.004459662348 	-1.029744221e-06 	0.02519068977 	-5.454134483e-06 	4.802045609e-05
0.941327225 	0.02451254666 	0.004329715033 	-9.033471104e-07 	0.02459536626 	-5.108084073e-06 	4.688560402e-05
0.9495440518 	0.02393787337 	0.004226470848 	-7.788396639e-07 	0.02400950672 	-4.705179726e-06 	4.57687929e-05
0.9568166671 	0.02334399785 	0.004127840379 	-6.546852852e-07 	0.02340109614 	-4.241376745e-06 	4.460899324e-05
0.963253572 	0.02273757705 	0.004036049752 	-5.353206577e-07 	0.02277867151 	-3.733857922e-06 	4.34224789e-05
0.9689507996 	0.02211929003 	0.003950436542 	-4.241443658e-07 	0.02214439162 	-3.197742131e-06 	4.221336514e-05
0.9739933478 	0.02148189617 	0.003868819795 	-3.235153479e-07 	0.02149214628 	-2.647156191e-06 	4.097000425e-05
0.9784564469 	0.02080522735 	0.003786923007 	-2.349018348e-07 	0.02080256849 	-2.096335483e-06 	3.965547732e-05
0.9824066826 	0.02004368404 	0.003696693763 	-1.590178654e-07 	0.0200305747 	-1.56086764e-06 	3.818384259e-05
0.985902989 	0.01909234754 	0.003596553356 	-9.771630611e-08 	0.01907160635 	-1.059454542e-06 	3.635578238e-05
0.9889975281 	0.01773547133 	0.003380332652 	-4.859974816e-08 	0.01771052202 	-6.369823471e-07 	3.376117736e-05
0.9910076668 	0.01584159225 	0.003049604912 	-1.320920178e-08 	0.01581601452 	-3.210183276e-07 	3.01497195e-05
0.9930178055 	0.01240053094 	0.002376109408 	9.688236849e-09 	0.01237890992 	-8.974204083e-08 	2.359764285e-05
0.9950279442 	0.005656592772 	0.001001499362 	1.140154823e-08 	0.005646307138 	9.1149886e-09 	1.076343072e-05
0.9970380829 	0.0006415843761 	6.715405256e-05 	1.545311511e-09 	0.0006403782541 	4.955049132e-09 	1.220738936e-06
0.9990482216 	4.651074498e-06 	5.516136258e-08 	1.806678475e-12 	4.642228626e-06 	4.635373029e-11 	8.849378001e-09
0.9990482216 	4.651074498e-06 	5.516136258e-08 	1.806678475e-12 	4.642228626e-06 	4.635373029e-11 	8.849378001e-09
