0.3982523954 	9.425217355e-06 	-1.00865947e-07 	1.651377895e-10 	9.478305047e-06 	-7.702469942e-09 	1.806828378e-08
0.3994377339 	0.0008367271252 	-7.228967085e-05 	6.784303958e-08 	0.0008858983641 	-3.849878397e-07 	1.688768505e-06
0.4006231409 	0.007004776138 	-0.001151727683 	5.894339855e-07 	0.007793196826 	-1.183199736e-06 	1.485599916e-05
0.4018085007 	0.01664614464 	-0.003146031162 	1.165906067e-06 	0.01878022194 	-5.863338192e-07 	3.580032271e-05
0.4029936986 	0.02317975355 	-0.004555909646 	1.226158397e-06 	0.02621369843 	1.337465388e-06 	4.997059492e-05
0.4041786207 	0.02705688177 	-0.005345358444 	1.062306467e-06 	0.03051243826 	3.202333476e-06 	5.816518782e-05
0.4060019699 	0.02965445144 	-0.00585588966 	7.673288723e-07 	0.03328630124 	5.12162112e-06 	6.345294162e-05
0.4080604285 	0.03113754489 	-0.00609594735 	3.630974189e-07 	0.0347231991 	6.916357902e-06 	6.61920683e-05
0.4103833753 	0.03191854208 	-0.006244134292 	-5.674663784e-08 	0.03537179474 	8.508141513e-06 	6.742847186e-05
0.4130209671 	0.03225607914 	-0.006314023088 	-4.77675456e-07 	0.03550290927 	9.86761932e-06 	6.767841259e-05
0.4160013668 	0.03227574056 	-0.006322219663 	-8.908023852e-07 	0.03525816222 	1.098901379e-05 	6.721185669e-05
0.4193641481 	0.03205162997 	-0.006278870212 	-1.289994414e-06 	0.0347224165 	1.186910423e-05 	6.619057645e-05
0.423157894 	0.03163119825 	-0.006190398967 	-1.673388343e-06 	0.0339495859 	1.250817979e-05 	6.471734652e-05
0.4274660238 	0.0310472467 	-0.006060249455 	-2.040635482e-06 	0.03297705288 	1.290839691e-05 	6.286342828e-05
0.432326175 	0.03032693486 	-0.005889569711 	-2.393305007e-06 	0.03183581544 	1.307428083e-05 	6.068791254e-05
0.4378190673 	0.02940780429 	-0.005682976121 	-2.744035963e-06 	0.03044040525 	1.299845244e-05 	5.802787287e-05
0.4461325613 	0.02824161358 	-0.005398378509 	-3.136021016e-06 	0.02871177024 	1.271474049e-05 	5.473261411e-05
0.455048941 	0.02695610744 	-0.005051426621 	-3.529294733e-06 	0.02683743192 	1.219025939e-05 	5.115960431e-05
0.46460301 	0.02566256714 	-0.004700903585 	-3.907959655e-06 	0.02499179599 	1.161461383e-05 	4.764130926e-05
0.4748437118 	0.02437657169 	-0.004344468059 	-4.286364188e-06 	0.02318926796 	1.107193243e-05 	4.420518986e-05
0.4858216947 	0.02310641781 	-0.003981803639 	-4.672247032e-06 	0.02143623847 	1.061108232e-05 	4.086342843e-05
0.497589651 	0.02186095864 	-0.003611068548 	-5.065380881e-06 	0.01973897041 	1.025305795e-05 	3.762796376e-05
0.5102027201 	0.0206549128 	-0.003229413118 	-5.458657744e-06 	0.01810795614 	9.990358649e-06 	3.451879725e-05
0.5237189542 	0.01951290541 	-0.002833362698 	-5.839533636e-06 	0.01656172944 	9.786631631e-06 	3.15712594e-05
0.5381998521 	0.01847226093 	-0.002419158459 	-6.191788231e-06 	0.01512981459 	9.575331701e-06 	2.884163171e-05
0.5537109596 	0.01758338299 	-0.001983050148 	-6.496424017e-06 	0.01385416902 	9.258693865e-06 	2.640989671e-05
0.570323245 	0.01690588092 	-0.00152144896 	-6.729897333e-06 	0.01278798009 	8.715306306e-06 	2.43774443e-05
0.588119929 	0.01649967056 	-0.00103119001 	-6.698800682e-06 	0.01199132388 	7.645619129e-06 	2.285879612e-05
0.6071750317 	0.01641235324 	-0.0005101219663 	-6.509969791e-06 	0.01152343002 	6.233258078e-06 	2.196686039e-05
0.6275820376 	0.01666830665 	4.228816474e-05 	-6.208495288e-06 	0.01143359244 	4.646284307e-06 	2.1795605e-05
0.6494344704 	0.01726627579 	0.0006243637526 	-5.765933927e-06 	0.0117550627 	3.058044717e-06 	2.240841665e-05
0.6728352312 	0.01818771673 	0.001232046882 	-5.189790245e-06 	0.01250324452 	1.700288641e-06 	2.383465916e-05
0.6978966025 	0.01938817532 	0.001848887471 	-4.553558552e-06 	0.01365489804 	7.711988344e-07 	2.603003085e-05
0.7229590561 	0.02076348653 	0.002437609242 	-3.934483974e-06 	0.01510026284 	3.315010617e-07 	2.878529787e-05
0.7463631701 	0.02219292982 	0.002969727711 	-3.264900352e-06 	0.01668714714 	2.489488213e-07 	3.18103404e-05
0.7682214995 	0.02361286203 	0.00344458715 	-2.695797589e-06 	0.01831778952 	3.470549772e-07 	3.491879799e-05
0.7886381734 	0.02499854841 	0.003870712189 	-2.20251457e-06 	0.01994354408 	5.069221286e-07 	3.801793803e-05
0.8077096611 	0.02633456109 	0.004255433253 	-1.76545732e-06 	0.02153481798 	6.747204027e-07 	4.105134837e-05
0.8255255342 	0.02761154224 	0.004605029242 	-1.372642062e-06 	0.02307463174 	8.311662979e-07 	4.398666135e-05
0.8421687484 	0.02882454118 	0.004924696718 	-1.017979195e-06 	0.02455381192 	9.718232465e-07 	4.680638989e-05
0.8577166818 	0.02997151859 	0.005218602204 	-6.988146935e-07 	0.02596800674 	1.097341012e-06 	4.950223828e-05
0.8722413334 	0.03105199583 	0.00548993191 	-4.14537703e-07 	0.02731559046 	1.208598675e-06 	5.207110738e-05
0.8858098685 	0.03206583733 	0.005740900931 	-1.661042672e-07 	0.02859604007 	1.304067127e-06 	5.451200022e-05
0.8984849828 	0.03301210636 	0.005972755729 	4.389018737e-08 	0.0298085525 	1.37754184e-06 	5.682338592e-05
0.9103252262 	0.03388789615 	0.00618571959 	2.109329966e-07 	0.03095070677 	1.415908477e-06 	5.900064942e-05
0.9213853035 	0.03468699559 	0.006378922712 	3.28379756e-07 	0.03201702789 	1.396891184e-06 	6.103335383e-05
0.9317163424 	0.03539816786 	0.006550305331 	3.873988987e-07 	0.03299723152 	1.286934945e-06 	6.290189439e-05
0.9413661361 	0.03600257427 	0.006696506154 	3.771397222e-07 	0.03387384838 	1.039752499e-06 	6.457296975e-05
0.9503793651 	0.03647007867 	0.006818039387 	2.831806968e-07 	0.03461713746 	5.962089772e-07 	6.598988533e-05
0.9587978034 	0.03673305562 	0.006870502073 	1.238466049e-07 	0.03514290418 	-6.64121184e-08 	6.699214284e-05
0.9643701856 	0.03679308659 	0.006870253718 	-6.358705753e-08 	0.03542415505 	-8.062391073e-07 	6.752828515e-05
0.9693034113 	0.0367050951 	0.006857342278 	-2.874212246e-07 	0.03552470902 	-1.639515974e-06 	6.771996898e-05
0.9736706736 	0.03646893031 	0.006811559403 	-5.363629683e-07 	0.03546440977 	-2.588608961e-06 	6.760502185e-05
0.9775368093 	0.03607287975 	0.006735487255 	-8.015531203e-07 	0.03523083774 	-3.628525575e-06 	6.715976864e-05
0.9809592473 	0.03549776216 	0.006628026937 	-1.072207155e-06 	0.03480463164 	-4.726441743e-06 	6.634730135e-05
0.983988851 	0.03471099568 	0.006486133155 	-1.336416938e-06 	0.03415288526 	-5.839097061e-06 	6.510489162e-05
0.9866706657 	0.03365422891 	0.006302807426 	-1.579797248e-06 	0.03321695138 	-6.905606088e-06 	6.332074151e-05
0.9890445811 	0.03221625163 	0.006062360733 	-1.782560569e-06 	0.03188551421 	-7.829708206e-06 	6.078265221e-05
0.9911459193 	0.03016653613 	0.005752391744 	-1.914273987e-06 	0.0299279975 	-8.433711141e-06 	5.705108129e-05
0.9930059564 	0.0271127853 	0.005199430338 	-1.867653126e-06 	0.0269500259 	-8.348597009e-06 	5.137423974e-05
0.9942142764 	0.02291277077 	0.004391678359 	-1.611021764e-06 	0.02280688286 	-7.399140211e-06 	4.347625759e-05
0.995422663 	0.01613978378 	0.00298517972 	-1.056243155e-06 	0.01608113006 	-5.202515111e-06 	3.065510341e-05
0.996631116 	0.006600441088 	0.001066239911 	-3.67214479e-07 	0.006581350042 	-2.169459565e-06 	1.254588237e-05
0.9978396355 	0.0007430186801 	6.319520205e-05 	-3.277730252e-08 	0.0007414170418 	-3.353561098e-07 	1.413346948e-06
0.9990482216 	8.66422271e-06 	9.109748659e-08 	-1.03595868e-10 	8.647589576e-06 	-7.235680568e-09 	1.64847092e-08
0.9990482216 	8.66422271e-06 	9.109748659e-08 	-1.03595868e-10 	8.647589576e-06 	-7.235680568e-09 	1.64847092e-08
