/*--------------------------------*- C++ -*----------------------------------*\
| =========                 |                                                 |
| \\      /  F ield         | OpenFOAM: The Open Source CFD Toolbox           |
|  \\    /   O peration     | Version:  2.4.0                                 |
|   \\  /    A nd           | Web:      www.OpenFOAM.org                      |
|    \\/     M anipulation  |                                                 |
\*---------------------------------------------------------------------------*/
FoamFile
{
    version     2.0;
    format      ascii;
    class       volSymmTensorField;
    location    "2000";
    object      Rx;
}
// * * * * * * * * * * * * * * * * * * * * * * * * * * * * * * * * * * * * * //

dimensions      [0 0 0 0 0 0 0];

internalField   nonuniform List<symmTensor> 
15296
(
(-5.3021314 -1.6237479 -7.1543966e-11 1.7640844 5.7109556e-09 3.538047)
(1.6608675 -0.92986763 4.409472e-12 -0.62137622 4.1064868e-09 -1.0394913)
(2.5588403 2.7931572 9.8075143e-10 -0.86055268 7.149661e-09 -1.6982876)
(27.323457 -8.1004303 -4.2981443e-10 -9.6465326 6.4120882e-09 -17.676924)
(-10.49951 -0.17451748 -8.2674134e-12 2.802175 4.2399465e-09 7.6973346)
(-2.6702777 1.8151796 -7.7453489e-12 0.94752315 1.4778588e-10 1.7227545)
(-1.8057755 1.5068092 -1.1333754e-13 0.64741804 1.349927e-10 1.1583575)
(-1.4321507 1.4787243 1.6910111e-13 0.5160362 1.2262201e-10 0.91611453)
(-1.1675531 1.5016685 1.8629309e-13 0.42314702 1.1165918e-10 0.7444061)
(-0.97444843 1.5341748 1.5668054e-13 0.35546229 1.0521796e-10 0.61898613)
(-0.83200483 1.563532 9.5448939e-12 0.30558242 1.018798e-10 0.52642241)
(-0.73240004 1.587584 1.0641093e-13 0.2707183 9.436301e-11 0.46168174)
(-0.67253679 1.6071659 -1.9989517e-11 0.24980544 8.8375168e-11 0.42273135)
(-0.6460522 1.622767 -1.0316708e-11 0.24063 8.728435e-11 0.4054222)
(-0.64213637 1.6340742 1.0559863e-11 0.23938336 9.7590469e-11 0.40275301)
(-0.64893308 1.6405976 5.6540671e-14 0.24186907 9.2325778e-11 0.40706402)
(-0.65713059 1.6421686 1.650335e-14 0.24478693 9.2452907e-11 0.41234366)
(-0.66147493 1.6390229 1.2688721e-14 0.2462772 9.2769145e-11 0.41519773)
(-0.66041975 1.6315322 -5.8541169e-15 0.24579609 9.0871153e-11 0.41462366)
(-0.65499104 1.6199296 -1.157445e-11 0.24371078 9.0283167e-11 0.41128026)
(-0.64778327 1.6041297 -1.1740667e-11 0.24094095 8.8317045e-11 0.40684232)
(-0.64199291 1.5836402 7.3062674e-15 0.2386158 9.4844098e-11 0.40337711)
(-0.64073523 1.5576173 -1.198257e-11 0.23783155 8.8149034e-11 0.40290368)
(-0.64459637 1.5252719 -3.3357782e-14 0.23879047 9.4137187e-11 0.4058059)
(-0.64809998 1.4872379 1.2243072e-11 0.23955639 9.7477071e-11 0.40854359)
(-0.63259686 1.4483642 6.0401068e-15 0.23357259 9.1919565e-11 0.39902427)
(-0.58106385 1.4177427 2.5041835e-11 0.21492951 9.6242849e-11 0.36613434)
(-0.5548126 1.3873371 -1.2622224e-13 0.20553823 9.486032e-11 0.34927437)
(-0.86192477 1.2314274 -5.418716e-13 0.31320469 1.1512321e-10 0.54872008)
(-1.8057848 0.73822354 -1.0967827e-12 0.642504 1.766377e-10 1.1632808)
(-3.0692396 0.16780438 -1.3370181e-12 1.0838273 2.5092185e-10 1.9854123)
(-4.1138171 -0.12329466 -1.2771021e-12 1.4490022 3.0998063e-10 2.6648148)
(-4.9031439 -0.14073758 -1.4877331e-11 1.724217 3.5122528e-10 3.1789269)
(-5.3768608 0.062462 -8.1624292e-13 1.8891936 3.7750697e-10 3.4876672)
(-5.7447276 0.42320372 1.257979e-11 2.0182573 3.994173e-10 3.7264703)
(-4.6133712 1.1457693 8.1450562e-12 1.6248876 3.4909368e-10 2.9884836)
(0.042194941 1.3729982 -2.180943e-12 -0.016236787 6.3480639e-11 -0.025958154)
(0.47414711 2.1098173 -5.569647e-11 0.76643343 -6.3314132e-11 -1.2405805)
(-4.8132299 -3.6601653 -1.2763776e-10 2.1209331 1.5462687e-09 2.6922968)
(1.7905976 -2.1087019 4.7485666e-11 -0.90503701 1.6448452e-09 -0.88556058)
(2.4746698 3.4153125 1.9802385e-11 -1.1529559 2.8861932e-09 -1.3217139)
(26.526305 -12.920227 -7.8888018e-10 -12.51445 3.6605908e-09 -14.011855)
(-9.8629325 -1.9321509 1.6621407e-11 4.1412019 9.2029877e-09 5.7217306)
(-2.6521773 2.7745944 9.3740328e-12 1.2564076 7.1385632e-11 1.3957697)
(-1.8199319 2.3653076 -2.0185696e-13 0.87441654 5.2093355e-11 0.94551536)
(-1.4465976 2.330156 3.1585785e-12 0.69694514 4.8410522e-11 0.74965241)
(-1.1810237 2.3675645 -2.5054538e-12 0.56989749 3.9270494e-11 0.61112623)
(-0.98696654 2.4180579 3.3983148e-12 0.47693211 3.9607621e-11 0.51003443)
(-0.84380008 2.4632795 3.4947028e-12 0.40833915 3.8962493e-11 0.43546092)
(-0.74358467 2.50066 1.7354505e-13 0.36029925 3.4689253e-11 0.38328541)
(-0.68325853 2.5321471 1.0991323e-13 0.33136705 3.2511698e-11 0.35189148)
(-0.65653756 2.5588181 3.0603008e-14 0.31856538 3.2146364e-11 0.33797218)
(-0.65261313 2.5800491 3.5793404e-12 0.31672463 3.7049188e-11 0.3358885)
(-0.65954855 2.5946237 1.2451081e-13 0.32010923 3.4397761e-11 0.33943932)
(-0.6679274 2.6017565 5.0637521e-14 0.32418325 3.428632e-11 0.34374415)
(-0.67241687 2.6014154 -3.7259377e-12 0.32637418 3.2605199e-11 0.34604269)
(-0.67143426 2.5939885 -3.8632731e-12 0.32591741 3.2372145e-11 0.34551685)
(-0.66600498 2.5798566 7.6620272e-12 0.32330684 3.5061629e-11 0.34269814)
(-0.65874686 2.5590928 -1.2538307e-14 0.31980452 3.2984991e-11 0.33894234)
(-0.65289077 2.531266 2.9076454e-14 0.31696786 3.4502647e-11 0.33592291)
(-0.6515917 2.4954641 4.779911e-14 0.31631632 3.2999439e-11 0.33527538)
(-0.65545973 2.4505743 -8.7994923e-15 0.31814065 3.4384463e-11 0.33731909)
(-0.65900526 2.396767 1.0983532e-14 0.31979025 3.6339761e-11 0.33921502)
(-0.64348446 2.3384373 9.9321111e-15 0.31226026 3.3248232e-11 0.3312242)
(-0.59195449 2.2860604 -5.8085298e-14 0.28758053 3.4408205e-11 0.30437396)
(-0.56727149 2.2359379 3.9706564e-12 0.2767327 3.4812849e-11 0.29053878)
(-0.87974065 2.0476667 -1.2959223e-12 0.4290349 3.8836739e-11 0.45070576)
(-1.8271586 1.4594778 -2.6184199e-12 0.88411597 5.8063914e-11 0.9430426)
(-3.0880795 0.82715566 -3.2213988e-12 1.4855693 8.1051533e-11 1.6025102)
(-4.1287612 0.59957176 -3.0973717e-12 1.9805987 9.9067125e-11 2.1481625)
(-4.9151994 0.75674958 -7.2438411e-12 2.3549507 1.1106452e-10 2.5602487)
(-5.3859721 1.1988207 -2.0051187e-12 2.5794469 1.1830148e-10 2.8065252)
(-5.7584353 1.8674816 -1.9750362e-13 2.7588393 1.2426783e-10 2.999596)
(-4.6654225 2.7794958 4.1111893e-12 2.2347938 1.0463959e-10 2.4306287)
(-0.0094865307 2.0901386 1.217489e-11 -0.016410176 1.2920912e-11 0.025896707)
(0.9084382 1.7244934 -4.7854905e-11 1.2414286 -6.0498658e-11 -2.1498668)
(-4.2626515 -5.6555933 4.4175713e-11 1.8456959 2.7083025e-09 2.4169556)
(1.9351793 -3.3710881 9.769117e-11 -1.0241638 1.2704636e-09 -0.91101544)
(2.3733222 2.6635438 3.7410976e-11 -1.1331608 1.4661087e-09 -1.2401614)
(24.376859 -13.636558 -4.4174288e-10 -11.665478 2.9834735e-09 -12.711381)
(-9.5365993 -3.923168 -2.5996465e-11 4.3369258 5.4014603e-09 5.1996735)
(-2.5906673 3.0904293 2.9911722e-12 1.2393388 8.5503641e-11 1.3513285)
(-1.8095027 2.7226908 -2.1303788e-12 0.88559941 4.8580243e-11 0.92390331)
(-1.4414968 2.696109 -1.2687629e-12 0.70787761 4.3913298e-11 0.73361919)
(-1.1773365 2.7448731 2.2611955e-12 0.57840841 3.8107535e-11 0.59892809)
(-0.98381933 2.8063716 6.099231e-13 0.48321216 3.620077e-11 0.50060718)
(-0.8409611 2.8607524 5.0996132e-13 0.41288172 3.4375897e-11 0.42807938)
(-0.74080116 2.9054562 1.9699535e-13 0.36350745 3.0456886e-11 0.37729371)
(-0.68034882 2.9429352 1.4386671e-13 0.33364456 2.8895467e-11 0.34670426)
(-0.65347799 2.9745756 8.8087335e-14 0.32033041 2.8640452e-11 0.33314758)
(-0.64949705 2.9997646 1.0508541e-13 0.31833301 3.1459141e-11 0.33116405)
(-0.65649772 3.0171779 1.6377593e-13 0.32178878 2.9792742e-11 0.33470894)
(-0.66503132 3.0259653 5.0074801e-14 0.32602844 2.9734812e-11 0.33900288)
(-0.66971818 3.0261283 -9.619822e-16 0.3283869 2.8398661e-11 0.34133128)
(-0.6689419 3.0181404 -5.3719885e-14 0.32806074 2.8449604e-11 0.34088117)
(-0.66371411 3.0024606 2.2396513e-12 0.32554928 3.2182186e-11 0.33816483)
(-0.65665627 2.97919 -3.912768e-14 0.32215085 2.9351766e-11 0.33450542)
(-0.65101428 2.9478464 4.8196079e-12 0.31947427 3.112175e-11 0.33154001)
(-0.64996905 2.9073788 -2.3348972e-12 0.3190954 2.7696117e-11 0.33087365)
(-0.6541606 2.8564331 1.4969835e-14 0.32132742 2.9617436e-11 0.33283319)
(-0.65813714 2.7949163 -2.4529693e-12 0.3234591 2.9207422e-11 0.33467804)
(-0.64320712 2.7270939 2.4781825e-12 0.31626707 3.0031665e-11 0.32694005)
(-0.59272057 2.6637634 -2.600958e-12 0.29182388 2.7575093e-11 0.30089668)
(-0.57110486 2.6004863 -5.5766137e-13 0.28325742 2.9629302e-11 0.28784744)
(-0.88953542 2.3810474 -7.5985649e-12 0.44488137 3.2489406e-11 0.44465404)
(-1.8358437 1.7185108 -8.2870214e-13 0.91352462 5.3513476e-11 0.92231911)
(-3.0822918 1.0182404 -4.8312669e-12 1.5226427 7.8195049e-11 1.5596491)
(-4.1074441 0.77889787 -1.6939392e-12 2.0204797 9.9229457e-11 2.0869643)
(-4.8821272 0.97625546 -6.7589642e-12 2.3965306 1.1358352e-10 2.4855967)
(-5.3435271 1.4954986 -3.0564995e-12 2.6200033 1.2273284e-10 2.7235238)
(-5.7148217 2.2738135 2.0772563e-12 2.8004962 1.3044443e-10 2.9143254)
(-4.6589541 3.3259193 5.5896242e-12 2.2748666 1.1057088e-10 2.3840875)
(-0.11340447 2.5012974 1.8561165e-11 -0.0039958421 1.6454594e-11 0.11740032)
(0.72187081 1.6691617 -4.2687292e-11 1.2602395 -7.3129629e-11 -1.9821103)
(-3.8159122 -7.39605 -1.8868704e-10 1.6017024 2.7013971e-09 2.2142097)
(2.1098939 -4.6495881 1.1034245e-10 -1.1530882 1.1860768e-09 -0.95680572)
(2.2968557 1.9398989 -1.4152704e-11 -1.0986064 1.7687403e-10 -1.1982493)
(21.88012 -13.094547 -3.8673693e-10 -10.392018 1.3746735e-09 -11.488102)
(-9.5042199 -5.1028708 -1.4925422e-11 4.4515204 4.2974248e-09 5.0526995)
(-2.5450224 3.5219348 -2.5105174e-12 1.2135688 8.3152578e-11 1.3314535)
(-1.8106599 3.1652649 -8.4656131e-13 0.89331823 4.6567424e-11 0.9173417)
(-1.4467213 3.1389058 5.0040424e-13 0.71796432 4.0080669e-11 0.72875702)
(-1.1824219 3.1963476 6.2938179e-13 0.58741773 3.5962903e-11 0.59500417)
(-0.98822841 3.2684145 7.7127018e-13 0.4909466 3.2219197e-11 0.49728181)
(-0.84477032 3.3322335 6.3493343e-13 0.41959819 2.9944973e-11 0.42517213)
(-0.74402068 3.3847405 2.0686397e-13 0.36940238 2.6600001e-11 0.3746183)
(-0.68305096 3.428752 1.7339029e-13 0.33894319 2.534756e-11 0.34410777)
(-0.65586874 3.4658789 3.1010439e-12 0.32531482 2.5921967e-11 0.33055392)
(-0.65183488 3.4954276 1.4884548e-13 0.32326689 2.6564467e-11 0.328568)
(-0.65898486 3.515895 1.7681653e-12 0.32684288 2.6903368e-11 0.33214198)
(-0.66776519 3.5263378 5.7945321e-14 0.33126359 2.6228693e-11 0.3365016)
(-0.67270593 3.526801 1.6032738e-12 0.33378455 2.6159934e-11 0.33892139)
(-0.67214376 3.5178716 -3.9929077e-14 0.33356883 2.4963986e-11 0.33857493)
(-0.66708515 3.5001088 -1.1600949e-13 0.33112073 2.7757432e-11 0.33596442)
(-0.66017752 3.4736481 -1.7576726e-12 0.32776971 2.4801796e-11 0.33240781)
(-0.65470955 3.4379361 4.2371535e-14 0.32516806 2.7198027e-11 0.32954149)
(-0.65391529 3.3917372 8.7262391e-14 0.32493871 2.3803303e-11 0.32897658)
(-0.65847178 3.3333948 -1.717261e-12 0.32741472 2.4584418e-11 0.33105706)
(-0.66292659 3.2625126 2.3386034e-14 0.32984437 2.4530294e-11 0.33308222)
(-0.64852516 3.1832795 -1.8062678e-12 0.32287733 2.5688393e-11 0.32564782)
(-0.59892936 3.106756 -1.9426783e-12 0.29882568 2.219892e-11 0.30010368)
(-0.58110407 3.0262319 -7.4784595e-13 0.29314764 2.4106326e-11 0.28795643)
(-0.90952727 2.7624907 -5.4096229e-13 0.4637811 2.8269088e-11 0.44574617)
(-1.8619707 2.0004939 -2.8380297e-12 0.94154096 4.814457e-11 0.92042972)
(-3.1003531 1.2090211 -6.2725143e-12 1.5509516 7.2829882e-11 1.5494015)
(-4.1142799 0.94662623 -6.0686503e-12 2.04532 9.5044103e-11 2.0689599)
(-4.8794696 1.1836224 -5.2005803e-12 2.4179482 1.1083418e-10 2.4615214)
(-5.3312904 1.7899917 -4.0107833e-12 2.6368973 1.2094842e-10 2.6943932)
(-5.6989766 2.6943172 -7.4885609e-13 2.815387 1.29753e-10 2.8835896)
(-4.6591009 3.9387622 6.6299377e-12 2.2878495 1.1158116e-10 2.3712514)
(-0.16984646 3.0245732 2.3330879e-11 -0.026542516 2.1822266e-11 0.19638898)
(0.72030864 1.7991925 -3.9660354e-11 1.0884969 -7.6872281e-11 -1.8088056)
(-3.4072264 -8.9008158 -2.0232291e-10 1.3491097 1.619993e-09 2.0581167)
(2.2968539 -5.8878598 1.7288495e-10 -1.2848378 2.0588031e-09 -1.0120162)
(2.2264218 1.1016258 1.1609866e-10 -1.0582138 5.5074751e-10 -1.1682081)
(19.182701 -11.853856 2.9707612e-11 -8.8908141 5.8196194e-10 -10.291887)
(-9.2636822 -6.3230106 -3.3373358e-11 4.0748607 4.4577868e-09 5.1888215)
(-2.4934152 3.9695116 -5.5959143e-12 1.168612 8.1725588e-11 1.3248031)
(-1.8106564 3.6081533 -1.2793927e-12 0.89339041 4.7617555e-11 0.91726598)
(-1.452644 3.574121 5.272557e-13 0.72390658 3.9213496e-11 0.7287374)
(-1.1888105 3.6358477 -1.2506326e-12 0.59393799 3.295389e-11 0.59487249)
(-0.99430129 3.7160361 9.0885413e-13 0.49730192 2.9701842e-11 0.49699937)
(-0.85052102 3.7878242 7.4622088e-13 0.42576551 2.7049915e-11 0.42475552)
(-0.74937555 3.847191 2.1003541e-13 0.37532989 2.4245966e-11 0.37404566)
(-0.68801476 3.8970986 1.3411841e-12 0.34463607 2.3732608e-11 0.34337868)
(-0.66061493 3.9392704 -9.8517812e-13 0.33089166 2.3086234e-11 0.32972328)
(-0.65661299 3.972866 1.3851153e-12 0.32889062 2.4276289e-11 0.32772237)
(-0.66399274 3.996169 2.7200548e-13 0.33263349 2.4671791e-11 0.33135925)
(-0.67309046 4.0081365 6.3723451e-14 0.33726254 2.3543014e-11 0.33582791)
(-0.67833878 4.0088575 -3.4698302e-14 0.33996891 2.4190086e-11 0.33836987)
(-0.67802425 3.9990367 -1.337124e-12 0.33988617 2.2085999e-11 0.33813808)
(-0.67314901 3.979339 -2.7701121e-12 0.33752059 2.2935457e-11 0.33562842)
(-0.6663899 3.9499368 1.2330549e-12 0.3342254 2.2690813e-11 0.3321645)
(-0.66108285 3.9102078 5.2816779e-14 0.33168686 2.391973e-11 0.32939598)
(-0.66051955 3.8587312 8.4540356e-14 0.33156534 2.1975894e-11 0.32895422)
(-0.66541741 3.793537 4.7830337e-14 0.33421317 2.1708645e-11 0.33120424)
(-0.67032899 3.713867 -1.3421688e-12 0.33686401 2.1530149e-11 0.33346498)
(-0.6564776 3.6236553 -5.6034873e-14 0.33015125 2.2192669e-11 0.32632634)
(-0.6080438 3.5336754 -1.8771145e-13 0.30686897 1.9539942e-11 0.30117483)
(-0.59516264 3.4337079 -9.0949006e-13 0.30507507 2.076032e-11 0.29008757)
(-0.93538702 3.1210436 -3.1160855e-12 0.48474529 2.5038553e-11 0.45064172)
(-1.8930792 2.2617143 -6.1235323e-12 0.96662642 4.3378076e-11 0.92645282)
(-3.1184411 1.3873281 -5.8537459e-12 1.5669424 6.8522887e-11 1.5514986)
(-4.1162555 1.1061791 -7.3565925e-12 2.0496065 9.1223126e-11 2.066649)
(-4.8680385 1.3813878 -6.3179748e-12 2.4127682 1.0821802e-10 2.4552703)
(-5.3074812 2.0708183 -3.4398418e-12 2.6238193 1.1916001e-10 2.6836619)
(-5.6686842 3.0936155 -1.0616015e-12 2.7980678 1.2869395e-10 2.8706164)
(-4.6359266 4.539324 8.120404e-12 2.2704028 1.1255293e-10 2.3655238)
(-0.19337177 3.561697 2.6799246e-11 -0.068366962 2.8078417e-11 0.26173873)
(0.71581347 1.9706041 -3.7698775e-11 0.99445772 -7.7063027e-11 -1.7102712)
(-2.9466888 -10.519757 -1.4201209e-10 1.0552248 1.9460879e-09 1.891464)
(2.5381683 -7.3511014 2.0927384e-10 -1.443975 3.5375661e-09 -1.0941933)
(2.1774542 -0.71992223 -3.7121222e-12 -1.046444 5.1655145e-11 -1.1310102)
(16.044201 -9.6221016 3.1922106e-10 -7.1220098 3.9147657e-10 -8.9221912)
(-8.8055533 -7.7711419 -5.1762561e-11 3.4415798 7.2134191e-10 5.3639735)
(-2.4253277 4.0775187 -1.3160637e-11 1.0961996 7.8704069e-11 1.3291281)
(-1.8102894 3.776342 4.7529068e-14 0.88478916 5.165296e-11 0.9255002)
(-1.4611745 3.7389896 4.7043337e-13 0.72564175 3.9133064e-11 0.73553277)
(-1.1977671 3.7995609 7.467562e-13 0.59701957 3.1604418e-11 0.6007475)
(-1.0025303 3.8812882 1.0781559e-12 0.500317 2.8275222e-11 0.50221331)
(-0.85808747 3.955328 -2.3538552e-12 0.42859659 2.3191107e-11 0.42949088)
(-0.75624807 4.0168514 2.235202e-13 0.37786716 2.2809058e-11 0.37838091)
(-0.69425609 4.0686291 2.4078843e-13 0.34684285 2.2559278e-11 0.34741324)
(-0.6665121 4.1123298 1.4047272e-12 0.33289128 2.1980736e-11 0.33362083)
(-0.66254724 4.1470555 2.7221859e-13 0.33088745 2.2578677e-11 0.33165978)
(-0.67025952 4.1710705 3.2999457e-13 0.33479701 2.2506584e-11 0.33546251)
(-0.67981895 4.1833821 7.4648115e-14 0.33967239 2.1754697e-11 0.34014656)
(-0.68551492 4.1841686 -1.360237e-12 0.3426251 2.07957e-11 0.34288982)
(-0.68556204 4.1742253 -9.843265e-14 0.34274971 2.0359178e-11 0.34281233)
(-0.68095897 4.1542767 -1.526661e-12 0.34055285 1.915338e-11 0.34040612)
(-0.67442931 4.1245106 1.2603572e-12 0.33741673 2.2657256e-11 0.33701258)
(-0.66938271 4.0842659 5.3235326e-14 0.33507186 2.188857e-11 0.33431086)
(-0.66919969 4.0320161 8.8929363e-14 0.33522992 2.0428429e-11 0.33396977)
(-0.67466023 3.9655741 1.4529521e-12 0.3382776 2.1592407e-11 0.33638263)
(-0.68032368 3.883726 5.6222471e-14 0.34144809 1.969018e-11 0.33887558)
(-0.66738777 3.7894523 -1.518293e-12 0.335401 1.9318364e-11 0.33198677)
(-0.6208525 3.691516 1.1939047e-12 0.3136553 1.9646549e-11 0.3071972)
(-0.61561446 3.5753379 3.7459054e-13 0.3177799 1.9818572e-11 0.29783456)
(-0.97369657 3.2303363 -3.8125549e-12 0.51002425 2.2441267e-11 0.46367232)
(-1.9401077 2.3398204 -7.4268084e-12 0.99685994 4.0386097e-11 0.94324776)
(-3.1478872 1.4566115 -9.2099158e-12 1.5830166 6.6476973e-11 1.5648706)
(-4.1233976 1.1816066 -8.9136975e-12 2.0479063 8.9721528e-11 2.0754913)
(-4.8560946 1.4727077 -7.662835e-12 2.3962212 1.0784662e-10 2.4598734)
(-5.2773272 2.1888913 -5.2248538e-12 2.5944404 1.1951137e-10 2.6828869)
(-5.6260544 3.246473 -1.4737357e-12 2.7589839 1.2972975e-10 2.8670705)
(-4.5875361 4.7786855 8.2150653e-12 2.2233028 1.14923e-10 2.3642333)
(-0.17177822 3.7889984 2.9574197e-11 -0.15641595 3.368929e-11 0.32819417)
(0.69978783 2.0122011 -3.5681206e-11 0.92392536 -7.5423694e-11 -1.6237132)
(-2.4769401 -12.25723 -1.3663162e-10 0.7851263 1.5948005e-09 1.6918138)
(2.8093306 -9.0311565 9.5514312e-11 -1.618039 2.7259539e-09 -1.1912915)
(2.186229 -3.2944732 -3.854424e-11 -1.0841917 -1.2884434e-09 -1.1020372)
(12.930849 -7.5668174 2.6672263e-10 -5.4071461 1.217994e-10 -7.5237025)
(-8.2913255 -9.3283603 -4.0018466e-11 2.901065 -6.1082575e-10 5.3902604)
(-2.3355426 3.9018213 -1.4201474e-11 1.008255 7.3181196e-11 1.3272876)
(-1.8055237 3.7352906 -2.7815752e-12 0.87324978 5.3517715e-11 0.93227387)
(-1.4711567 3.7055259 2.426428e-13 0.72915466 3.8748902e-11 0.74200207)
(-1.2087685 3.763469 1.4348244e-12 0.60220039 3.2178954e-11 0.60656813)
(-1.0125313 3.8430962 1.1942324e-12 0.50502577 2.7036187e-11 0.50750554)
(-0.8671312 3.9158765 -4.8003442e-13 0.43272793 1.909464e-11 0.43440326)
(-0.76433065 3.976526 2.8803381e-13 0.38138842 2.1570967e-11 0.38294223)
(-0.70148718 4.0274842 2.9564601e-13 0.34980433 2.0854636e-11 0.35168286)
(-0.67327549 4.0703053 2.7221984e-13 0.3355202 2.0931188e-11 0.33775529)
(-0.66933981 4.1041349 3.365375e-13 0.33348604 2.055541e-11 0.33585377)
(-0.67746362 4.1273789 4.1388524e-13 0.33759933 2.0653642e-11 0.3398643)
(-0.68760079 4.1392162 5.0173763e-14 0.34278203 2.024669e-11 0.34481876)
(-0.6938561 4.1399588 -1.1467431e-13 0.34603667 1.8851538e-11 0.34781943)
(-0.69435247 4.130481 -1.4902503e-13 0.3464069 1.9431715e-11 0.34794557)
(-0.6900856 4.1115389 -2.0433367e-13 0.34440271 1.7626156e-11 0.34568289)
(-0.6838414 4.0833228 -7.2043574e-14 0.34144867 2.1301613e-11 0.34239273)
(-0.67912762 4.0451596 1.9986294e-14 0.33933887 2.0175592e-11 0.33978875)
(-0.67944539 3.9954788 1.260304e-13 0.33986001 1.8865166e-11 0.33958538)
(-0.68567023 3.9319397 1.0417289e-12 0.34345478 2.1673005e-11 0.34221544)
(-0.69240637 3.852768 1.5856884e-14 0.3473754 1.8778695e-11 0.34503097)
(-0.68088843 3.7593918 -9.9296529e-14 0.342335 1.7467317e-11 0.33855343)
(-0.63724787 3.657249 -3.0458017e-13 0.32278865 1.903208e-11 0.31445922)
(-0.6422809 3.5272057 -1.4388699e-12 0.3346045 1.8310125e-11 0.3076764)
(-1.0227483 3.164053 -4.6777923e-12 0.54270073 2.0431787e-11 0.48004761)
(-1.9989433 2.2942486 -8.9627623e-12 1.036573 3.7635852e-11 0.96237024)
(-3.1845117 1.4586982 -1.1100249e-11 1.6079161 6.3550591e-11 1.5765956)
(-4.1324686 1.2103805 -1.0744727e-11 2.0536704 8.6953606e-11 2.0787982)
(-4.8415156 1.5041661 -9.2426576e-12 2.3856649 1.0547171e-10 2.4558508)
(-5.2396108 2.2094134 -7.2372321e-12 2.5687872 1.1728626e-10 2.6708235)
(-5.5715855 3.2449431 -2.0301297e-12 2.721078 1.2788407e-10 2.8505075)
(-4.5221736 4.7786785 9.865241e-12 2.171322 1.143158e-10 2.3508516)
(-0.11901641 3.8098812 3.2643506e-11 -0.27670952 3.738451e-11 0.39572593)
(0.68822359 1.9544261 -3.4047974e-11 0.85763635 -7.2947323e-11 -1.5458599)
(-2.0527556 -13.83736 -7.9746833e-11 0.54913676 1.6743416e-09 1.5036189)
(3.0611549 -10.688175 1.0942025e-10 -1.7713823 1.5148677e-09 -1.2897726)
(2.264495 -5.9185456 -9.1047311e-12 -1.1709999 -7.647369e-10 -1.0934951)
(10.252157 -6.3683531 3.3296134e-10 -3.9509087 -8.7193438e-11 -6.3012488)
(-7.7767147 -10.987715 -4.8970919e-11 2.2948213 -1.1557049e-09 5.4818934)
(-2.2325889 3.6700989 -1.6976827e-11 0.90809155 6.5566634e-11 1.3244974)
(-1.7959019 3.6670812 -3.2228985e-12 0.85693026 5.570644e-11 0.93897161)
(-1.4826826 3.6537192 -6.688418e-14 0.73377429 3.9194011e-11 0.74890833)
(-1.2224848 3.7106308 6.7231689e-13 0.60981763 3.2825348e-11 0.61266718)
(-1.0252481 3.788433 1.6998125e-12 0.51237836 2.7315581e-11 0.51286979)
(-0.87876728 3.8600081 1.1563332e-12 0.43954353 1.8780666e-11 0.43922375)
(-0.77489303 3.919768 4.0053265e-13 0.38761144 2.0830296e-11 0.38728159)
(-0.71111583 3.9698296 9.1441248e-13 0.35548289 2.0498243e-11 0.35563294)
(-0.68240844 4.0116465 3.24566e-13 0.34089459 1.9831622e-11 0.34151384)
(-0.678534 4.0444327 1.0180852e-12 0.33887564 2.0112146e-11 0.33965836)
(-0.68713952 4.0667646 5.1481436e-13 0.34324395 1.9500361e-11 0.34389557)
(-0.69792986 4.0780257 -5.9840197e-13 0.34877448 1.8603151e-11 0.34915538)
(-0.70480034 4.0786906 -1.5651333e-13 0.35234948 1.8348908e-11 0.35245085)
(-0.70577213 4.0697314 -2.1398992e-13 0.35295878 1.8872708e-11 0.35281335)
(-0.70184064 4.0519453 -2.4011126e-13 0.35111894 1.7509734e-11 0.3507217)
(-0.6958655 4.0255297 6.2533827e-13 0.34830384 2.0395486e-11 0.34756166)
(-0.69146899 3.9898024 6.7552387e-13 0.34637984 1.9767097e-11 0.34508914)
(-0.69229557 3.9431487 1.9781189e-13 0.34722082 1.8325527e-11 0.34507475)
(-0.69934708 3.8830608 -6.202624e-13 0.35134491 1.9940836e-11 0.34800217)
(-0.70732799 3.8071384 -5.63518e-14 0.35606672 1.8059147e-11 0.35126126)
(-0.69761652 3.7150718 -8.4503973e-13 0.35225098 1.6304891e-11 0.34536554)
(-0.65773918 3.6086276 -3.7294934e-13 0.33550861 1.7666376e-11 0.32223057)
(-0.67484178 3.4639761 -1.7871912e-12 0.3562155 1.6734311e-11 0.31862627)
(-1.0794799 3.083378 -4.780339e-12 0.58081613 1.9845903e-11 0.49866373)
(-2.0640139 2.2401452 -1.0580805e-11 1.079743 3.5918066e-11 0.98427088)
(-3.2242596 1.4587986 -1.3074941e-11 1.6336707 6.1778365e-11 1.5905889)
(-4.1421455 1.240732 -1.2653844e-11 2.0585461 8.5438592e-11 2.0835994)
(-4.8255251 1.5372955 -1.0893134e-11 2.3729085 1.0423788e-10 2.4526166)
(-5.1981107 2.230323 -7.8396619e-12 2.5396485 1.1640769e-10 2.6584622)
(-5.511159 3.2402602 -2.6778435e-12 2.678526 1.2734345e-10 2.832633)
(-4.4482913 4.7762409 9.2972245e-12 2.1148866 1.1497503e-10 2.3334047)
(-0.045466409 3.8354971 3.4550478e-11 -0.4105545 4.1764462e-11 0.45602091)
(0.6842574 1.8827699 -3.2984326e-11 0.80189887 -7.0101755e-11 -1.4861563)
(-1.6442595 -15.222886 -8.3481438e-12 0.32624748 2.2434267e-09 1.318012)
(3.2743352 -12.293829 8.4698233e-11 -1.8886711 1.5150411e-09 -1.3856641)
(2.4130681 -8.456997 -7.2348184e-11 -1.3081696 -3.9823233e-11 -1.1048985)
(7.9660802 -5.9335931 2.3073203e-10 -2.7411515 -9.3224753e-12 -5.2249287)
(-7.0528308 -13.409175 -3.870211e-11 1.2831637 -2.1253271e-09 5.7696671)
(-2.1134853 3.3993868 -1.6631627e-11 0.79031395 6.6014384e-11 1.3231714)
(-1.7788157 3.5862668 -4.6653653e-12 0.83237337 5.8200902e-11 0.9464423)
(-1.49483 3.59915 1.426786e-13 0.73763851 4.1464149e-11 0.75719154)
(-1.2387511 3.6573464 1.7857397e-13 0.61868317 3.2115568e-11 0.6200679)
(-1.0406573 3.7338941 1.1450335e-12 0.52127915 2.7631559e-11 0.51937812)
(-0.89297226 3.8045182 4.7023232e-13 0.44790929 1.9578788e-11 0.44506297)
(-0.78789914 3.8635276 9.1467947e-13 0.39535572 2.10869e-11 0.39254342)
(-0.72309883 3.9127219 3.8600847e-13 0.3626606 2.0292617e-11 0.36043823)
(-0.69386729 3.9534699 3.7984857e-13 0.34776819 1.9072988e-11 0.3460991)
(-0.69009189 3.9850814 4.9109199e-13 0.34579079 1.9703194e-11 0.3443011)
(-0.69925793 4.0063339 1.2643695e-13 0.35045418 1.8231337e-11 0.34880375)
(-0.71078405 4.0168497 -4.4615224e-13 0.35636752 1.7127031e-11 0.35441653)
(-0.71832841 4.0172999 -1.8180388e-13 0.36027999 1.802046e-11 0.35804842)
(-0.71980017 4.008779 -7.6590861e-13 0.36112437 1.7762393e-11 0.3586758)
(-0.71619848 3.9921382 -2.6790714e-13 0.35942779 1.7281377e-11 0.35677069)
(-0.71047045 3.9675851 -2.1891601e-14 0.3567219 1.9995232e-11 0.35374855)
(-0.70637255 3.9344268 -1.0755155e-12 0.35495664 1.8881177e-11 0.35141591)
(-0.70772016 3.8909972 2.2269479e-13 0.35610929 1.7942177e-11 0.35161087)
(-0.71568104 3.8346029 9.8169876e-14 0.36080017 1.8379048e-11 0.35488087)
(-0.7251335 3.7621562 -1.2605513e-13 0.36646204 1.7594084e-11 0.35867146)
(-0.71774053 3.6714664 -1.6489379e-13 0.3642293 1.5793752e-11 0.35351123)
(-0.68272998 3.5603727 9.7643426e-14 0.35110532 1.7455377e-11 0.33162466)
(-0.7139781 3.4001994 -1.5906284e-12 0.3821216 1.6143614e-11 0.3318565)
(-1.1444623 3.002021 -5.9907159e-12 0.62393403 1.9667959e-11 0.52052826)
(-2.1352852 2.187791 -1.2309382e-11 1.1259673 3.470573e-11 1.0093179)
(-3.2669017 1.4631809 -1.5800912e-11 1.6601439 6.0254646e-11 1.6067579)
(-4.1522333 1.2772822 -1.4036521e-11 2.0626105 8.4432042e-11 2.0896228)
(-4.807941 1.5771875 -1.2618931e-11 2.3580611 1.0339066e-10 2.4498799)
(-5.1524881 2.2586697 -9.979368e-12 2.5069102 1.1587665e-10 2.6455779)
(-5.4438039 3.2422434 -3.4238532e-12 2.6302814 1.2717688e-10 2.8135225)
(-4.3641764 4.7842883 9.4941214e-12 2.0517914 1.1593213e-10 2.312385)
(0.042776757 3.8776697 3.5742436e-11 -0.55265178 4.6459647e-11 0.50987503)
(0.68861849 1.8066684 -3.2278507e-11 0.74822152 -6.6831987e-11 -1.43684)
(-1.328124 -16.445479 4.5256461e-11 0.1763453 1.9039705e-09 1.1517787)
(3.4312129 -13.8261 1.3094641e-11 -1.9592096 4.2470281e-10 -1.4720032)
(2.6216202 -10.80512 -1.2391699e-10 -1.4850413 -3.3371982e-10 -1.136579)
(5.9582977 -6.1271012 1.241925e-10 -1.6663626 3.8197369e-10 -4.2919351)
(-6.3386813 -18.29138 -4.5439895e-11 0.38879103 -2.4980518e-09 5.9498902)
(-1.9700663 3.0710631 -1.5307756e-11 0.64451067 6.6683761e-11 1.3255557)
(-1.7504627 3.48037 -5.2059201e-12 0.79524332 6.0806777e-11 0.95521941)
(-1.5058776 3.5320782 -1.2843608e-12 0.73859735 4.3752742e-11 0.76728025)
(-1.2569777 3.5950149 2.4222501e-13 0.62772121 3.2129092e-11 0.62925648)
(-1.0584529 3.670858 1.0688807e-12 0.53091921 2.7588575e-11 0.52753371)
(-0.90946878 3.7405136 1.356797e-12 0.45704001 2.0266922e-11 0.45242878)
(-0.8030653 3.7985954 6.1738782e-13 0.4038238 2.1341801e-11 0.39924149)
(-0.73714864 3.8465844 3.888744e-13 0.37052711 2.0244581e-11 0.36662154)
(-0.70736633 3.8857712 4.3147937e-13 0.35531972 1.8667045e-11 0.35204661)
(-0.70373546 3.9156145 5.6228734e-13 0.35340156 1.9106363e-11 0.3503339)
(-0.71355144 3.9351618 6.4558208e-13 0.35839285 1.7623597e-11 0.3551586)
(-0.72590484 3.9443426 3.2254658e-14 0.36471668 1.686886e-11 0.36118816)
(-0.73418608 3.9440811 -2.1318557e-13 0.36897601 1.7835111e-11 0.36521007)
(-0.73618208 3.9356278 -1.0896296e-12 0.37004454 1.6601744e-11 0.36613754)
(-0.73290214 3.9198985 4.5351449e-13 0.36846622 1.7592314e-11 0.36443592)
(-0.72739824 3.897108 -5.4923304e-15 0.36584155 1.940445e-11 0.36155669)
(-0.7235854 3.8665449 2.4758821e-13 0.36421861 1.8374969e-11 0.35936679)
(-0.72548433 3.826481 6.5437113e-13 0.3656987 1.8273673e-11 0.35978564)
(-0.73447971 3.7740253 -6.4323941e-13 0.37103864 1.7455929e-11 0.36344107)
(-0.74572056 3.7053643 -5.8882292e-13 0.3778604 1.6744976e-11 0.36786016)
(-0.741343 3.616327 -1.9467766e-13 0.37772123 1.6062064e-11 0.36362176)
(-0.71267068 3.5006162 -9.1566151e-13 0.36932607 1.6720484e-11 0.34334461)
(-0.76069749 3.324582 -2.5713924e-12 0.41252257 1.5816055e-11 0.34817492)
(-1.218955 2.9100425 -7.7004061e-12 0.67253521 1.9020665e-11 0.54641983)
(-2.2134597 2.1292237 -1.4663314e-11 1.175527 3.3619413e-11 1.0379327)
(-3.3125835 1.4648985 -1.7343094e-11 1.6872858 5.9215441e-11 1.6252977)
(-4.1624248 1.3128508 -1.6321348e-11 2.0654369 8.3802277e-11 2.0969879)
(-4.7879504 1.6157244 -1.4448977e-11 2.3402206 1.0284939e-10 2.4477298)
(-5.1013804 2.2846486 -1.1860355e-11 2.4691401 1.1545675e-10 2.6322403)
(-5.3671174 3.2385812 -4.6451247e-12 2.5738945 1.271492e-10 2.7932229)
(-4.2656116 4.7811205 8.7590715e-12 1.9777511 1.1697514e-10 2.2878605)
(0.14117252 3.9085299 3.6267805e-11 -0.69696193 5.0982609e-11 0.5557894)
(0.69953828 1.7197055 -3.1762812e-11 0.69233558 -6.3141215e-11 -1.3918739)
(-1.1215558 -17.666685 6.0730409e-11 0.097670271 3.5091574e-10 1.0238855)
(3.5207117 -15.262485 -1.2284113e-11 -1.9785461 -1.1935987e-10 -1.5421655)
(2.869026 -12.855454 -9.7355177e-11 -1.682436 -1.4452911e-11 -1.1865899)
(3.9938923 -6.846344 6.6921076e-11 -0.48166883 8.8990086e-10 -3.5122235)
(-5.0636184 -29.699522 -2.1843324e-11 -1.8802603 -1.913858e-09 6.9438787)
(-1.787258 2.6736684 -1.2287489e-11 0.45359794 6.2923772e-11 1.3336601)
(-1.7075121 3.3415086 -6.8949955e-12 0.74221782 6.3940403e-11 0.96529433)
(-1.5143795 3.4493319 -2.6690972e-12 0.73538104 4.2833775e-11 0.77899847)
(-1.277279 3.5226384 -6.2127932e-13 0.63714913 3.1679317e-11 0.64012989)
(-1.0792668 3.598727 9.2283721e-13 0.54201505 2.790815e-11 0.5372517)
(-0.92897066 3.6673795 1.4379062e-12 0.46774499 2.1565261e-11 0.46122567)
(-0.82111455 3.7242934 7.2201816e-13 0.41384509 2.1293169e-11 0.40726947)
(-0.7539978 3.7706795 3.8057204e-13 0.37992848 2.0254124e-11 0.37406932)
(-0.72365277 3.8077559 1.4310791e-12 0.36441354 2.0370131e-11 0.35923923)
(-0.72022952 3.8351896 1.6337384e-12 0.36258969 1.952788e-11 0.35763983)
(-0.73080024 3.8523728 7.2975503e-13 0.367954 1.7833565e-11 0.36284624)
(-0.74407911 3.8596091 4.0337465e-14 0.374719 1.7205381e-11 0.36936012)
(-0.75315463 3.8581296 -2.8568328e-13 0.37932634 1.765737e-11 0.37382829)