0 	0.007142642303 	2.382675615
0.0002557009757 	0.007142820703 	2.382829422
0.0005113919539 	0.007143110014 	2.382987092
0.0007670729221 	0.007143291857 	2.383176137
0.001022743869 	0.007143475638 	2.383343429
0.001278404782 	0.007143659747 	2.383494472
0.001534055652 	0.007143843459 	2.383631279
0.001789696467 	0.007144026241 	2.383753995
0.00204532722 	0.007144207987 	2.383862588
0.0023009479 	0.007144389017 	2.383957099
0.002556558499 	0.007144570009 	2.384037568
0.002812159009 	0.007144751933 	2.384104031
0.003067749424 	0.007144936001 	2.384156521
0.003323329736 	0.007145123629 	2.384195073
0.003578899939 	0.00714531641 	2.384219721
0.003834460028 	0.007145516096 	2.384230503
0.004090009997 	0.007145724575 	2.384227456
0.004345549843 	0.007145943858 	2.384210619
0.004601079561 	0.007146176063 	2.384180034
0.004856599149 	0.007146423409 	2.384135743
0.005112108602 	0.007146688198 	2.384077791
0.005367607921 	0.007146972808 	2.384006226
0.005623097102 	0.007147279664 	2.383921095
0.005878576144 	0.007147611222 	2.383822451
0.006134045048 	0.007147969932 	2.383710348
0.006389503814 	0.007148358199 	2.383584839
0.006644952442 	0.007148778326 	2.38344598
0.006900390934 	0.007149232437 	2.383293833
0.007155819291 	0.007149722351 	2.383128492
0.007411237516 	0.00715024938 	2.382949998
0.007666645613 	0.007150891999 	2.382721157
0.008063470858 	0.007151760544 	2.382418081
0.008467729309 	0.007152817331 	2.382055337
0.008879559741 	0.007153984212 	2.381652597
0.009299103509 	0.00715526704 	2.381208243
0.009726504592 	0.007156672821 	2.380720612
0.01016190964 	0.007158209099 	2.380187935
0.01060546805 	0.007159883646 	2.379608408
0.01105733195 	0.007161704289 	2.378980198
0.01151765634 	0.007163679474 	2.378301441
0.01198659909 	0.007165817623 	2.377570247
0.01246432098 	0.007168126772 	2.376784698
0.0129509858 	0.007170615239 	2.375942852
0.01344676039 	0.007173291449 	2.375042751
0.01395181468 	0.007176162187 	2.374082415
0.01446632177 	0.007179237468 	2.373059857
0.01499045798 	0.007182528387 	2.371973077
0.0155244029 	0.007186042854 	2.370820072
0.01606833949 	0.007189790316 	2.369598838
0.0166224541 	0.007193777797 	2.368307377
0.01718693655 	0.007198017204 	2.366943701
0.017501235 	0.007200488822 	2.366166921
0.01776198023 	0.007203230697 	2.366093531
0.0183477821 	0.007209522863 	2.365885524
0.01894454283 	0.007216016853 	2.365604533
0.01955246683 	0.007222724708 	2.365246785
0.02017340551 	0.007229706353 	2.364800775
0.0208221775 	0.007237055844 	2.364274695
0.02148308759 	0.007244750572 	2.363651402
0.02215636195 	0.007252831259 	2.362935393
0.02284223095 	0.00726136885 	2.36212299
0.02354092921 	0.007270373199 	2.361210528
0.02425269569 	0.00727981661 	2.360194368
0.02497777378 	0.007289659688 	2.359070834
0.02571641135 	0.007299896368 	2.357836256
0.02646886086 	0.007310556036 	2.356486989
0.02723537944 	0.007321666288 	2.355019269
0.02801622896 	0.007333253953 	2.35342915
0.02881167614 	0.007345341895 	2.351712603
0.02962199261 	0.007357953465 	2.349865556
0.03044745503 	0.007371113726 	2.347883905
0.03128834514 	0.007384849795 	2.345763507
0.03214494992 	0.007399190187 	2.343500187
0.0330175616 	0.007414162436 	2.341089737
0.03390647783 	0.007429789271 	2.338527925
0.03481200173 	0.007446086218 	2.335810501
0.03573444201 	0.007463067031 	2.332933205
0.03587241249 	0.007465684414 	2.332498555
0.0366741131 	0.007482500082 	2.330307367
0.03763133517 	0.007502969738 	2.327573888
0.03860643434 	0.007524172259 	2.324658075
0.03959974269 	0.007546187468 	2.321549352
0.04062400414 	0.00756920862 	2.318218042
0.04168283372 	0.007593283712 	2.314659054
0.04276144567 	0.007618276482 	2.310895936
0.04386020784 	0.007644143664 	2.306937545
0.04497949488 	0.007670916353 	2.302783122
0.04611968834 	0.007698595569 	2.298432444
0.04728117681 	0.007727144573 	2.293885603
0.04846435607 	0.007756480489 	2.289142947
0.04966962917 	0.007786519018 	2.284205013
0.05089740661 	0.007817387003 	2.27907207
0.05214810645 	0.007853597009 	2.272909787
0.05406782216 	0.007899415075 	2.265317387
0.05513320521 	0.00792840582 	2.260623326
0.05600859261 	0.007954087646 	2.25825089
0.05797064725 	0.008013511895 	2.252576697
0.05995421803 	0.008074980256 	2.246180676
0.06200681815 	0.008139467515 	2.239096892
0.06408691672 	0.008206624314 	2.231349395
0.06618987659 	0.008275003472 	2.22303246
0.06831594804 	0.008343435144 	2.214189937
0.07046538408 	0.008411667892 	2.204859377
0.07263844047 	0.008480255638 	2.195076248
0.07483537574 	0.008549325567 	2.184873569
0.0754127317 	0.008567500883 	2.182200061
0.07705645122 	0.008614435616 	2.174481819
0.07930193109 	0.008678705989 	2.16376307
0.08160880446 	0.008743928821 	2.152591766
0.08396062845 	0.008809870656 	2.141014192
0.08633835572 	0.008873930484 	2.129113304
0.08874227105 	0.008933596381 	2.116931719
0.09117266232 	0.008992749273 	2.104489679
0.09362982052 	0.009054816677 	2.091807183
0.09611403982 	0.009118249314 	2.078903223
0.09688748113 	0.009137923198 	2.074927638
0.09862561757 	0.009196261341 	2.067088217
0.1011920893 	0.00928110056 	2.055368862
0.1038191753 	0.009366318544 	2.043145745
0.1064752665 	0.009451139297 	2.030491646
0.109160683 	0.009535173171 	2.017503085
0.1118757483 	0.009618620002 	2.004218543
0.1146207897 	0.009701898071 	1.990674716
0.1173961376 	0.009784921221 	1.976889724
0.1197757982 	0.009854985168 	1.96501443
0.1207963587 	0.009881404696 	1.960597464
0.1275403631 	0.01005258872 	1.932256523
0.1342391852 	0.01021881845 	1.904620452
0.140893539 	0.01037998649 	1.877777779
0.1453217662 	0.01048510026 	1.860313941
0.147333769 	0.01053056347 	1.848884813
0.1534017841 	0.01066601083 	1.815495412
0.1594491581 	0.01079903533 	1.783411165
0.1655335554 	0.01093101708 	1.75235218
0.1716619615 	0.0110623056 	1.722289936
0.174327366 	0.01111904114 	1.709619354
0.1774180535 	0.01118320105 	1.69697798
0.182898331 	0.01129664313 	1.675188061
0.1883762778 	0.01140975077 	1.654035463
0.1938522197 	0.01152277353 	1.633468672
0.199367316 	0.01163660247 	1.613361841
0.2049440104 	0.01175171004 	1.593669064
0.2079442965 	0.01181392053 	1.58334225
0.2102620741 	0.01186185752 	1.574468033
0.2152872941 	0.01196634776 	1.555826729
0.2203176812 	0.0120715621 	1.537784259
0.2253537677 	0.01217779097 	1.520266358
0.2304676361 	0.01228609997 	1.503136331
0.2356044139 	0.01239585937 	1.48646556
0.2380121438 	0.01244775217 	1.478880124
0.2406778059 	0.01250534488 	1.470541948
0.2457009026 	0.01261479833 	1.455273473
0.2507352132 	0.01272564857 	1.440385591
0.2558326136 	0.01283867341 	1.425787994
0.2609722273 	0.01295365712 	1.411499567
0.2661224414 	0.01307008479 	1.397572531
0.2712839648 	0.01318788425 	1.384006355
0.2730852849 	0.01322944645 	1.37938663
0.2763941728 	0.01330588734 	1.370607577
0.2815470354 	0.01342559398 	1.357381136
0.2867304847 	0.01354722612 	1.344453022
0.2919294453 	0.01367038388 	1.331855617
0.2971447241 	0.0137950945 	1.319572458
0.3023972473 	0.01392181532 	1.307550574
0.3077176544 	0.01405090759 	1.295756918
0.3130544986 	0.01418168415 	1.284240733
0.3139884766 	0.01420474667 	1.282278664
0.318341507 	0.014312486 	1.272970953
0.3236377412 	0.01444483531 	1.261941878
0.329018133 	0.01457974397 	1.251105948
0.3344194409 	0.01471646646 	1.24051193
0.3398426982 	0.01485474221 	1.230172332
0.3452905103 	0.01499486959 	1.220056306
0.3508198046 	0.01513749509 	1.21011824
0.356371968 	0.01528192599 	1.20039862
0.3619481867 	0.01542796615 	1.190904361
0.3629567935 	0.01545455049 	1.189232217
0.3675346092 	0.01557518741 	1.181552767
0.3731844789 	0.0157245952 	1.172369066
0.3788622376 	0.01587584842 	1.163393855
0.3845691399 	0.01602893791 	1.154624011
0.3903361868 	0.01618433651 	1.146032844
0.3961520669 	0.01634194036 	1.137625805
0.4019987344 	0.01650145696 	1.129415448
0.4078847797 	0.01666310727 	1.121393842
0.4138401465 	0.01682732022 	1.113556099
0.4198282831 	0.01699399133 	1.105931732
0.4258507383 	0.01716374091 	1.098511256
0.4319424286 	0.01733737246 	1.091254634
0.4322940321 	0.01734751869 	1.090847271
0.4380348799 	0.01751325787 	1.084139476
0.4441642181 	0.01769191018 	1.077182345
0.4503583711 	0.01787357439 	1.070375266
0.4566034608 	0.01805805289 	1.063725626
0.462890644 	0.01824521313 	1.057235364
0.4692414091 	0.01843527995 	1.050893696
0.4756461128 	0.01862810648 	1.044701279
0.4820960229 	0.01882355422 	1.038656952
0.4886119968 	0.01902178866 	1.032750839
0.4951819788 	0.01922260074 	1.02698407
0.5018006509 	0.01942586948 	1.021354236
0.5084901092 	0.01963172855 	1.015852463
0.5152322346 	0.01983988983 	1.010481159
0.5220303678 	0.02005026143 	1.005237033
0.5288981407 	0.02026236338 	1.000125395
0.5357442293 	0.02047404201 	0.9951898317
0.5425033993 	0.02068348746 	0.9904632219
0.54917695 	0.02089029152 	0.9859440021
0.5557596698 	0.02109432825 	0.9816212927
0.5622641408 	0.02129551408 	0.9774824826
0.5686845018 	0.0214936386 	0.9735192141
0.5711034876 	0.0215680751 	0.9720694528
0.5750137094 	0.02168838975 	0.9697182109
0.5812675106 	0.02187992167 	0.9660712122
0.5874418731 	0.02206821843 	0.962574452
0.5935393313 	0.02225324276 	0.9592201639
0.5995679216 	0.02243503254 	0.9560001968
0.6055216396 	0.02261349068 	0.9529091749
0.6114029498 	0.0227886062 	0.9499407725
0.6172180073 	0.02296041669 	0.9470884603
0.6229624231 	0.0231288578 	0.9443476678
0.6286378851 	0.02329393107 	0.9417132023
0.6342501181 	0.02345568217 	0.9391796376
0.6397954387 	0.02361407098 	0.9367431401
0.6452752783 	0.02376910249 	0.9343993901
0.6506936946 	0.0239208205 	0.9321440293
0.6560491717 	0.02406921616 	0.929973594
0.6613423175 	0.02421429622 	0.9278844832
0.666575636 	0.02435609859 	0.9258732256
0.6717497121 	0.02449464079 	0.9239366449
0.6768642909 	0.02462993037 	0.922071754
0.6819206149 	0.02476200036 	0.920275673
0.6869210409 	0.02489088918 	0.9185455055
0.6918645409 	0.02501660924 	0.9168788094
0.6967520833 	0.02513918772 	0.9152730881
0.7015852786 	0.025258667 	0.9137259449
0.7063646349 	0.02537507787 	0.9122351491
0.7110902946 	0.02548844752 	0.9107985655
0.7157631011 	0.02559881605 	0.9094141682
0.7203845678 	0.02570622895 	0.9080799603
0.724954626 	0.0258107214 	0.9067941314
0.7294738497 	0.02591233217 	0.9055548862
0.7339429834 	0.0260111103 	0.9043605373
0.7383632802 	0.02610710682 	0.9032095069
0.7427346679 	0.02620036618 	0.9021004442
0.7470577928 	0.0262909374 	0.9010319262
0.7513333208 	0.02637887712 	0.9000025247
0.7546589326 	0.02644600835 	0.899222685
0.7555616042 	0.02646423118 	0.8990101103
0.7597410829 	0.02654702355 	0.8980513071
0.7638746978 	0.02662736253 	0.897127637
0.7679630619 	0.02670531412 	0.8962379321
0.7720069354 	0.02678094706 	0.8953810483
0.7760066541 	0.02685433035 	0.89455587
0.7799626764 	0.02692553669 	0.8937613286
0.7838755599 	0.02699464406 	0.8929964374
0.7877458894 	0.02706173475 	0.8922602473
0.7915742016 	0.02712689368 	0.8915518318
0.7953608212 	0.02719020872 	0.8908702973
0.7991062606 	0.02725177266 	0.8902148215
0.8028110201 	0.02731168325 	0.8895846096
0.8064756394 	0.02737004209 	0.8889789085
0.8101004996 	0.0274269539 	0.8883969747
0.8136860098 	0.02748252764 	0.8878380959
0.8172326346 	0.0275368769 	0.8873016211
0.8207408289 	0.02759011958 	0.8867869142
0.8242110679 	0.02764237733 	0.8862933739
0.82764371 	0.02769377491 	0.8858204055
0.8310391573 	0.02774444082 	0.8853674413
0.834397836 	0.02779450724 	0.8849339622
0.8377201645 	0.02784410946 	0.8845194597
0.8410065655 	0.02789338525 	0.8841234546
0.8442574054 	0.02794247417 	0.8837454714
0.8474730517 	0.02799151738 	0.88338505
0.8506538989 	0.02804065723 	0.8830417671
0.8538003351 	0.02809003636 	0.8827152089
0.8569127423 	0.02813979681 	0.882404975
0.8599914988 	0.02819007893 	0.8821106723
0.8630369351 	0.0282410202 	0.8818319024
0.8660494164 	0.02829275456 	0.8815682745
0.8690293052 	0.02834541102 	0.8813194337
0.8719769585 	0.02839911223 	0.8810850593
0.8748927286 	0.02845397288 	0.8808648184
0.8777769585 	0.02851009793 	0.8806583361
0.8806299683 	0.0285675809 	0.8804652088
0.8834520978 	0.02862650236 	0.8802850184
0.8862436824 	0.02868692811 	0.8801173302
0.8890050531 	0.02874890723 	0.8799616659
0.8917365366 	0.02881247035 	0.8798174994
0.8944384543 	0.02887762781 	0.8796842793
0.8971111109 	0.02894436813 	0.8795614162
0.8997548203 	0.02901265697 	0.8794482757
0.9023698945 	0.02908243628 	0.8793441572
0.9049566418 	0.02915362373 	0.8792482521
0.9075153668 	0.02922611273 	0.879159676
0.9100463706 	0.02929977299 	0.8790775007
0.9125499477 	0.02937445193 	0.879000736
0.915026385 	0.02944997696 	0.8789283193
0.9174759739 	0.02952615867 	0.8788591208
0.9198990025 	0.02960279489 	0.8787919414
0.9222957555 	0.02967967594 	0.87872554
0.9246665145 	0.02975659099 	0.8786587395
0.927011558 	0.02983333526 	0.8785909559
0.9293311606 	0.02990971726 	0.8785233155
0.9316255902 	0.02998556518 	0.878456709
0.9338951161 	0.03006073382 	0.8783902974
0.9361400048 	0.03012887186 	0.8783288741
0.9376025477 	0.030183361 	0.8782871422
0.9390382776 	0.0302306246 	0.8782527811
0.9404476833 	0.03027672132 	0.8782223618
0.9418312445 	0.03032149857 	0.8781954653
0.9431894324 	0.03036475996 	0.8781715949
0.9445227099 	0.03040627679 	0.8781500507
0.9458315311 	0.03044580618 	0.8781299665
0.9471163418 	0.03048311764 	0.878110407
0.9483775794 	0.03051802624 	0.8780905613
0.9496156744 	0.03055042559 	0.8780701084
0.9508310491 	0.03058031025 	0.8780496015
0.9520241183 	0.03060777657 	0.8780278702
0.9531952895 	0.03063299367 	0.8779994933
0.9543449624 	0.03065613919 	0.8779623239
0.9554735298 	0.03067732019 	0.8779232451
0.9565813773 	0.03069654602 	0.8778885259
0.9576688834 	0.03071377129 	0.8778571751
0.9587364201 	0.03072893951 	0.8778263608
0.9597843522 	0.03074199546 	0.8777951196
0.9608130382 	0.03075288714 	0.8777634774
0.9618228299 	0.03076156608 	0.8777316903
0.9628140729 	0.03076798576 	0.8777000439
0.9637871065 	0.03077209484 	0.8776687813
0.9647422635 	0.03077385557 	0.8776380925
0.9656798711 	0.03077324024 	0.8776081236
0.9666002503 	0.03077020483 	0.8775789895
0.9675037164 	0.03076470315 	0.8775507831
0.9683905791 	0.03075669417 	0.8775235808
0.9692611423 	0.03074613625 	0.8774974455
0.9701157045 	0.03073299111 	0.8774724312
0.9709545587 	0.03071722598 	0.877448589
0.9717779925 	0.0306987921 	0.87742597
0.9725862884 	0.0306776202 	0.8774046236
0.9733797239 	0.03065364754 	0.877384592
0.974158571 	0.03062682042 	0.8773659069
0.9749230972 	0.03059707919 	0.8773485915
0.9756735649 	0.03056435245 	0.8773326625
0.9764102318 	0.03052855801 	0.8773181315
0.9771333509 	0.03048960249 	0.8773050047
0.9778431705 	0.03044737905 	0.8772932817
0.9785399345 	0.03040176466 	0.8772829555
0.9792238823 	0.03035261701 	0.8772740124
0.979895249 	0.03029977082 	0.8772664314
0.9805542653 	0.03024303348 	0.8772601839
0.9812011577 	0.03018217987 	0.8772552324
0.9818361488 	0.03011694627 	0.8772515294
0.9824594567 	0.030047023 	0.8772490146
0.9830712959 	0.02997204561 	0.8772476122
0.9836718769 	0.02989158442 	0.8772472268
0.9842614063 	0.02980513185 	0.8772477384
0.984840087 	0.02971208727 	0.8772489959
0.985408118 	0.02961173872 	0.8772508087
0.9859656949 	0.02950324093 	0.8772529375
0.9865130097 	0.02938559002 	0.8772550847
0.9870502507 	0.02925759218 	0.8772568985
0.987577603 	0.02911782242 	0.8772579548
0.9880952481 	0.02896457288 	0.8772577552
0.9886033645 	0.02879578961 	0.8772558576
0.9891021269 	0.02860900836 	0.8772484111
0.9895917074 	0.02841990796 	0.8772330311
0.9899068098 	0.02825158436 	0.8772177251
0.9902219201 	0.02808950681 	0.8772067105
0.9905370383 	0.02791212906 	0.8771958752
0.9908521645 	0.02771722675 	0.8771822351
0.9911672986 	0.02750214629 	0.8771648933
0.9914824405 	0.02726371283 	0.8771427546
0.9917975905 	0.02699811474 	0.8771144897
0.9921127483 	0.0267007564 	0.8770788324
0.992427914 	0.02636607636 	0.8770341777
0.9927430877 	0.02598722793 	0.8769719273
0.9930582692 	0.02555535211 	0.8768782501
0.9933734587 	0.0250590997 	0.8767514613
0.9936886561 	0.02448469989 	0.8765991689
0.9940038614 	0.02381557837 	0.8764213485
0.9943190746 	0.02303159407 	0.8762116261
0.9946342958 	0.02210842458 	0.8759629835
0.9949495248 	0.0210171734 	0.8756685414
0.9952647618 	0.01972462315 	0.8753225457
0.9955800066 	0.01819474198 	0.8748965384
0.9958952594 	0.01638868971 	0.8743309769
0.99621052 	0.0142722618 	0.8735994279
0.9965257886 	0.01184191478 	0.8727400697
0.9968410651 	0.009163952331 	0.8718322271
0.9971563494 	0.006419002877 	0.8709997984
0.9974716417 	0.003912189311 	0.8703812471
0.9977869419 	0.001973687258 	0.8700387322
0.99810225 	0.0007692574344 	0.8699137451
0.9984175659 	0.0002052880296 	0.8698921212
0.9987328898 	2.905573419e-05 	0.8698949665
0.9990482216 	1.766188812e-06 	0.8698983465
