0.4709558481 	3.579161154e-06 	-2.441024746e-08 	6.563633231e-15 	3.572351573e-06 	-6.163154613e-13 	6.809894982e-09
0.4711314108 	4.017698569e-05 	-1.068675905e-06 	2.943157753e-13 	4.010067818e-05 	-6.924013245e-12 	7.644303802e-08
0.4713069734 	0.0002235108363 	-1.37729522e-05 	3.848637822e-12 	0.0002230894594 	-3.849649689e-11 	4.252705142e-07
0.471482536 	0.0007382400373 	-8.283782082e-05 	2.301218362e-11 	0.00073685484 	-1.263319127e-10 	1.404650123e-06
0.4716580986 	0.001785420133 	-0.0003114647459 	8.328767484e-11 	0.001781981325 	-2.994718457e-10 	3.396951681e-06
0.4718336613 	0.003500206708 	-0.0008402971377 	2.080923933e-10 	0.003493094292 	-5.643249165e-10 	6.658808577e-06
0.4720092239 	0.005874085342 	-0.001765067638 	3.905925892e-10 	0.005861889507 	-8.94782561e-10 	1.117439063e-05
0.4721847865 	0.008739775043 	-0.003061855751 	5.911160714e-10 	0.008722453152 	-1.250129081e-09 	1.662741999e-05
0.4723603491 	0.01184434891 	-0.004599179054 	7.695948428e-10 	0.01182260959 	-1.603985366e-09 	2.253717979e-05
0.4725359118 	0.01494938211 	-0.006214769957 	9.122538741e-10 	0.01492308669 	-1.953234541e-09 	2.844755088e-05
0.4727114744 	0.01788855813 	-0.007779311523 	1.029775367e-09 	0.01785689162 	-2.307454361e-09 	3.40401985e-05
0.472887037 	0.02057319533 	-0.009215684749 	1.142749792e-09 	0.02053491685 	-2.664671973e-09 	3.914525889e-05
0.4730625996 	0.02297229009 	-0.01049039838 	1.265642641e-09 	0.02292879761 	-3.021205127e-09 	4.370866097e-05
0.4732381623 	0.02508960458 	-0.01160045619 	1.517263322e-09 	0.0250446154 	-3.387643496e-09 	4.774199774e-05
0.4734137249 	0.02694784182 	-0.01251876242 	1.783612536e-09 	0.02689785458 	-3.735689675e-09 	5.12747867e-05
0.4735892875 	0.02857719232 	-0.01327567682 	1.939006086e-09 	0.02851952033 	-4.043175214e-09 	5.436613235e-05
0.4737648501 	0.03000600735 	-0.01393943276 	2.086919279e-09 	0.0299464548 	-4.33951464e-09 	5.708626603e-05
0.4739404128 	0.03125927935 	-0.01452164716 	2.227451712e-09 	0.03119937289 	-4.627373207e-09 	5.947467615e-05
0.4741159754 	0.03236010048 	-0.01503306149 	2.36158884e-09 	0.03229792825 	-4.896622728e-09 	6.156882799e-05
0.474291538 	0.03332913942 	-0.01548325066 	2.490766624e-09 	0.03326495691 	-5.154177102e-09 	6.341225338e-05
0.4744671006 	0.03418448225 	-0.01588056661 	2.61719964e-09 	0.03411860522 	-5.405662777e-09 	6.503954432e-05
0.4746426632 	0.03494176156 	-0.01623230521 	2.744391713e-09 	0.03487438366 	-5.657336794e-09 	6.64802681e-05
0.4748182259 	0.03561439088 	-0.01654473764 	2.875961942e-09 	0.03554501052 	-5.911995535e-09 	6.775866928e-05
0.4749937885 	0.03621383843 	-0.01682318116 	3.015267478e-09 	0.03614329525 	-6.189022503e-09 	6.889916627e-05
0.4751693511 	0.03674991924 	-0.01707219067 	3.165531855e-09 	0.03668022004 	-6.49409531e-09 	6.992269414e-05
0.4753449137 	0.0372311854 	-0.01727930965 	3.241238949e-09 	0.0371601659 	-6.803788687e-09 	7.083760434e-05
0.4755204764 	0.03766501589 	-0.01744995806 	3.38503832e-09 	0.03759097461 	-7.154041439e-09 	7.165884548e-05
0.475696039 	0.03805739644 	-0.01760369414 	3.687602995e-09 	0.03798316562 	-7.559809778e-09 	7.240647055e-05
0.4758716016 	0.03841320052 	-0.01774146524 	4.029499724e-09 	0.03833842954 	-7.985780411e-09 	7.308370231e-05
0.4760471642 	0.03873660024 	-0.01786548805 	4.402130565e-09 	0.03865953237 	-8.453491793e-09 	7.369581356e-05
0.4762227269 	0.03907005061 	-0.01800235729 	4.717862003e-09 	0.03899359729 	-9.023616076e-09 	7.433263415e-05
0.4764955107 	0.03944071049 	-0.01815128932 	4.891418738e-09 	0.03936510937 	-9.708448977e-09 	7.504083942e-05
0.4767734216 	0.03980144491 	-0.01828385198 	4.96564161e-09 	0.03972344246 	-1.044376191e-08 	7.572392189e-05
0.4770565557 	0.04012114872 	-0.01839925888 	5.046185222e-09 	0.04004166876 	-1.119085004e-08 	7.633054966e-05
0.4773450114 	0.04040464487 	-0.01849982218 	5.180671786e-09 	0.04032498392 	-1.194871203e-08 	7.687062709e-05
0.4776388886 	0.040656043 	-0.01858783724 	5.380947252e-09 	0.04057567305 	-1.271569775e-08 	7.734851027e-05
0.4779382892 	0.04087885189 	-0.01866503502 	5.645501499e-09 	0.04079782885 	-1.34961548e-08 	7.777200096e-05
0.4782433171 	0.04107607541 	-0.01873264843 	5.96825069e-09 	0.0409944311 	-1.42911305e-08 	7.814677948e-05
0.4785540779 	0.0412502968 	-0.01879174567 	6.342320199e-09 	0.04116805845 	-1.509903629e-08 	7.847776147e-05
0.4788706795 	0.04140374674 	-0.01884323921 	6.760839887e-09 	0.04132094442 	-1.591668464e-08 	7.876920463e-05
0.4791932316 	0.04153835885 	-0.01888791242 	7.217013569e-09 	0.04145501715 	-1.673976021e-08 	7.902478451e-05
0.4795218461 	0.0416558153 	-0.01892644068 	7.704096382e-09 	0.04157195497 	-1.756313595e-08 	7.92477005e-05
0.4798566368 	0.04175758446 	-0.01895940777 	8.215378311e-09 	0.04167322285 	-1.838106551e-08 	7.944074523e-05
0.48019772 	0.04184495208 	-0.01898732017 	8.744166954e-09 	0.04176010349 	-1.918730577e-08 	7.960636387e-05
0.4805452138 	0.04191904734 	-0.01901061891 	9.283758191e-09 	0.04183372327 	-1.997519531e-08 	7.974670364e-05
0.4808992388 	0.04198086451 	-0.01902968931 	9.827401881e-09 	0.04189507399 	-2.073770541e-08 	7.986365515e-05
0.4812599177 	0.04203128135 	-0.01904486906 	1.036826662e-08 	0.04194503105 	-2.146747209e-08 	7.99588872e-05
0.4816273755 	0.0420710744 	-0.01905645482 	1.089940761e-08 	0.0419843689 	-2.215681456e-08 	8.003387608e-05
0.4820017397 	0.04210093217 	-0.01906470783 	1.141374087e-08 	0.04201377405 	-2.279774556e-08 	8.008993047e-05
0.48238314 	0.04212146612 	-0.01906985857 	1.190402625e-08 	0.04203385616 	-2.338197966e-08 	8.012821255e-05
0.4827717088 	0.04213322021 	-0.01907211058 	1.236286064e-08 	0.04204515749 	-2.390093985e-08 	8.014975603e-05
0.4831675807 	0.04213667901 	-0.01907164383 	1.278267922e-08 	0.04204816103 	-2.434576765e-08 	8.01554816e-05
0.4835708931 	0.04213227464 	-0.01906861744 	1.315578978e-08 	0.04204329745 	-2.470737031e-08 	8.014621027e-05
0.4839817856 	0.04212039272 	-0.01906317206 	1.347437077e-08 	0.04203095101 	-2.497635604e-08 	8.012267452e-05
0.4844004009 	0.04210137764 	-0.01905543181 	1.373051503e-08 	0.04201146484 	-2.51431226e-08 	8.008552847e-05
0.4848268841 	0.04207553711 	-0.01904550603 	1.391627891e-08 	0.04198514552 	-2.51979537e-08 	8.003535653e-05
0.485261383 	0.04204314604 	-0.01903349065 	1.402370132e-08 	0.04195226687 	-2.513098107e-08 	7.997268069e-05
0.4857040484 	0.04200444994 	-0.01901946946 	1.404487347e-08 	0.04191307344 	-2.493227745e-08 	7.989796711e-05
0.4861550336 	0.04195966794 	-0.01900351513 	1.397198367e-08 	0.0418677835 	-2.45919268e-08 	7.98116319e-05
0.4866144951 	0.04190899549 	-0.01898569007 	1.379737352e-08 	0.04181659169 	-2.410010856e-08 	7.971404609e-05
0.4870825921 	0.04185260662 	-0.01896604721 	1.351358665e-08 	0.04175967138 	-2.344719499e-08 	7.960554015e-05
0.487559487 	0.04179065606 	-0.0189446306 	1.311338912e-08 	0.04169717669 	-2.262385458e-08 	7.948640791e-05
0.4880453452 	0.04172328108 	-0.0189214759 	1.258977366e-08 	0.04162924441 	-2.162117239e-08 	7.935691009e-05
0.4885403351 	0.04165060311 	-0.01889661087 	1.193590812e-08 	0.04155599556 	-2.043078151e-08 	7.921727744e-05
0.4890446283 	0.04157272923 	-0.01887005561 	1.114499535e-08 	0.04147753696 	-1.90449981e-08 	7.906771354e-05
0.4895583997 	0.0414897535 	-0.0188418229 	1.021009448e-08 	0.0413939625 	-1.745697687e-08 	7.890839739e-05
0.4900818274 	0.04140175819 	-0.01881191833 	9.124091984e-09 	0.0413053544 	-1.566087917e-08 	7.873948571e-05
0.4906150929 	0.04130881485 	-0.01878034057 	7.880204845e-09 	0.04121178425 	-1.365164151e-08 	7.856111499e-05
0.4911583811 	0.04121098534 	-0.01874708154 	6.474089787e-09 	0.04111331404 	-1.142520954e-08 	7.837340342e-05
0.4917118805 	0.04110832229 	-0.01871212679 	4.906811e-09 	0.04100999677 	-8.975660045e-09 	7.817645199e-05
0.4922757829 	0.04100086848 	-0.01867545463 	3.176578523e-09 	0.04090187584 	-6.278989028e-09 	7.797034344e-05
0.4928502838 	0.04088866046 	-0.01863703526 	1.272441483e-09 	0.04078898864 	-3.330352055e-09 	7.775514906e-05
0.4934355824 	0.04077173561 	-0.01859683112 	-8.079753915e-10 	0.04067137376 	-2.135393268e-10 	7.753094242e-05
0.4940318817 	0.04065012635 	-0.01855479577 	-3.069860146e-09 	0.0405490651 	3.024597711e-09 	7.729778812e-05
0.4946393885 	0.04052385246 	-0.01851087351 	-5.532671726e-09 	0.0404220841 	6.467782724e-09 	7.705572703e-05
0.4952583133 	0.04039292757 	-0.01846500191 	-8.1829051e-09 	0.04029044641 	1.013086352e-08 	7.680478902e-05
0.4958888709 	0.04025736445 	-0.01841711113 	-1.099976885e-08 	0.04015416705 	1.396045326e-08 	7.654500267e-05
0.4965312797 	0.04011717441 	-0.01836712171 	-1.398283724e-08 	0.04001325951 	1.794025052e-08 	7.627639373e-05
0.4971857627 	0.03997236727 	-0.01831494394 	-1.712171259e-08 	0.03986773599 	2.204667005e-08 	7.599898547e-05
0.4978525466 	0.03982295215 	-0.01826047815 	-2.039553836e-08 	0.03971760828 	2.625248077e-08 	7.571280032e-05
0.4985318627 	0.03966893846 	-0.01820361487 	-2.377031212e-08 	0.03956288838 	3.053015657e-08 	7.541786119e-05
0.4992239466 	0.03951033697 	-0.01814423531 	-2.71952848e-08 	0.03940358933 	3.485020113e-08 	7.511419292e-05
0.4999290382 	0.03934716109 	-0.01808221231 	-3.059891839e-08 	0.03923972617 	3.918110606e-08 	7.480182419e-05
0.5006473819 	0.03917942826 	-0.01801741152 	-3.388489543e-08 	0.03907131717 	4.348977353e-08 	7.448078984e-05
0.501379227 	0.03900716148 	-0.01794969532 	-3.692977748e-08 	0.03889838948 	4.774285563e-08 	7.41511416e-05
0.502124827 	0.03883039085 	-0.01787893583 	-3.958910115e-08 	0.03872097853 	5.191166933e-08 	7.381294701e-05
0.5028844406 	0.03864915497 	-0.01780505219 	-4.172031218e-08 	0.03853913092 	5.595218762e-08 	7.346629493e-05
0.5036583311 	0.03846350164 	-0.01772822345 	-4.32675847e-08 	0.03835305643 	5.984668813e-08 	7.311158523e-05
0.5044467669 	0.03827348581 	-0.01764920165 	-4.454174755e-08 	0.03816221499 	6.354066502e-08 	7.274778841e-05
0.5052500214 	0.03807916042 	-0.01756969983 	-4.603589318e-08 	0.037966282 	6.541399951e-08 	7.237428567e-05
0.506068373 	0.03785505969 	-0.01748671999 	-4.908289076e-08 	0.03774053304 	6.874224581e-08 	7.194394541e-05
0.507324668 	0.03757562049 	-0.01738997209 	-5.877571414e-08 	0.03746102622 	7.592316533e-08 	7.141112773e-05
0.5085949819 	0.03726709126 	-0.01728340172 	-4.986255188e-08 	0.03715466058 	7.767048772e-08 	7.082710967e-05
0.5098794711 	0.03695464907 	-0.01715705776 	-3.364373851e-08 	0.03684229494 	7.673469177e-08 	7.023165394e-05
0.5111782938 	0.03663777656 	-0.01700989608 	-3.384560668e-08 	0.03652353775 	8.10029048e-08 	6.962401413e-05
0.5124916099 	0.0363162529 	-0.01686053349 	-3.378155079e-08 	0.03620278683 	8.426516352e-08 	6.901257374e-05
0.5138195812 	0.03598996752 	-0.01670878904 	-3.364001723e-08 	0.03587748009 	8.633096803e-08 	6.839244867e-05
0.5151623712 	0.03565878769 	-0.01655449357 	-3.363069233e-08 	0.03554506984 	9.07079318e-08 	6.775878235e-05
0.5165201452 	0.03532248281 	-0.01639748002 	-3.394470072e-08 	0.03520612186 	9.623837847e-08 	6.711265329e-05
0.5178930705 	0.0349806315 	-0.0162375905 	-3.46884108e-08 	0.03486040065 	1.017380603e-07 	6.645361258e-05
0.5192813161 	0.03463258603 	-0.01607470035 	-3.579521356e-08 	0.03450800011 	1.050836847e-07 	6.578183921e-05
0.520685053 	0.03427752222 	-0.0159087524 	-3.695769517e-08 	0.03414948 	1.035720792e-07 	6.509840024e-05
0.522104454 	0.0339146199 	-0.01573979564 	-3.762342486e-08 	0.03378584721 	9.488712754e-08 	6.440521507e-05
0.523539694 	0.03354339647 	-0.01556801169 	-3.710878437e-08 	0.033418334 	7.860917754e-08 	6.370463275e-05
0.5249909497 	0.03316409212 	-0.0153937071 	-3.484433524e-08 	0.0330480043 	5.730962577e-08 	6.299868141e-05
0.5264583998 	0.03277788462 	-0.01521725798 	-3.066104745e-08 	0.03267530638 	3.632719389e-08 	6.22882156e-05
0.527942225 	0.03238682766 	-0.01503900963 	-2.499738093e-08 	0.03229968181 	2.27731845e-08 	6.157217075e-05
0.5294426081 	0.03199351352 	-0.01485914689 	-1.897669028e-08 	0.03191935442 	2.383203878e-08 	6.084716106e-05
0.5309597337 	0.03160049118 	-0.01467755787 	-1.434183404e-08 	0.03153132695 	4.562924806e-08 	6.010747285e-05
0.5324937889 	0.03120940318 	-0.01449371997 	-1.321675609e-08 	0.03113174154 	9.017941732e-08 	5.9345752e-05
0.5340449624 	0.03081982824 	-0.01430664947 	-1.760274057e-08 	0.03071690907 	1.508877644e-07 	5.855496601e-05
0.5356134452 	0.03042828956 	-0.01411496451 	-2.860013194e-08 	0.03028451593 	2.142309917e-07 	5.773070452e-05
0.5371994306 	0.03002826603 	-0.01391708331 	-4.56717726e-08 	0.02983429488 	2.646351301e-07 	5.687245805e-05
0.5388031139 	0.02961155533 	-0.01371151799 	-6.642907888e-08 	0.02936791723 	2.898267526e-07 	5.598341263e-05
0.5404246925 	0.02917050012 	-0.01349717007 	-8.717866629e-08 	0.02888807802 	2.860630544e-07 	5.506870574e-05
0.5420643661 	0.0287002003 	-0.01327353533 	-1.040793324e-07 	0.0283972262 	2.589878906e-07 	5.413300573e-05
0.5437223366 	0.02820016818 	-0.01304086438 	-1.144293119e-07 	0.02789676796 	2.210700578e-07 	5.317899324e-05
0.5453988083 	0.02767508487 	-0.01280042965 	-1.176650561e-07 	0.02738760347 	1.866291682e-07 	5.22083842e-05
0.5470939875 	0.02713365359 	-0.01255452109 	-1.155696598e-07 	0.02687115733 	1.665857655e-07 	5.122389431e-05
0.5488080831 	0.02658573016 	-0.01230584871 	-1.110500064e-07 	0.02634945297 	1.652922728e-07 	5.022938082e-05
0.5505413061 	0.02604023881 	-0.01205714939 	-1.064673782e-07 	0.02582542494 	1.795545469e-07 	4.923043774e-05
0.5522938699 	0.02550503184 	-0.01181138325 	-1.030346752e-07 	0.02530404544 	2.014925975e-07 	4.82365435e-05
0.5540659904 	0.02498738962 	-0.01157188112 	-1.010005358e-07 	0.0247924341 	2.232056825e-07 	4.726127009e-05
0.5558578859 	0.02449405964 	-0.01134211929 	-9.998543772e-08 	0.02429642612 	2.399968486e-07 	4.631574102e-05
0.5576697768 	0.02403067193 	-0.01112524436 	-9.934249428e-08 	0.02382071731 	2.428430017e-07 	4.540890783e-05
0.5595018865 	0.02360076867 	-0.01092353862 	-9.860410377e-08 	0.02339374896 	2.341286441e-07 	4.459498748e-05
0.5613544406 	0.02320332508 	-0.01068975192 	-1.318598361e-07 	0.02301394919 	2.331498315e-07 	4.387098354e-05
0.563227667 	0.02282853639 	-0.01025759488 	-1.500436093e-07 	0.02262000882 	2.292190491e-07 	4.312002371e-05
0.5651217966 	0.02246685464 	-0.009740828621 	-1.267092731e-07 	0.02223343323 	2.158846945e-07 	4.23831032e-05
0.5670370626 	0.02211660549 	-0.009320283008 	-1.139700996e-07 	0.02189652972 	2.120480484e-07 	4.174087146e-05
0.5689737009 	0.02177808127 	-0.008936519878 	-1.059321401e-07 	0.0215678931 	2.127613354e-07 	4.111439874e-05
0.5709319499 	0.02145140659 	-0.008576431277 	-1.010287862e-07 	0.0212375445 	2.110563364e-07 	4.048466249e-05
0.5729120508 	0.0211366768 	-0.008231340626 	-9.794235517e-08 	0.02092141937 	2.100573932e-07 	3.988204012e-05
0.5749142474 	0.02083399903 	-0.007896664429 	-9.550986344e-08 	0.0206173959 	2.093259216e-07 	3.930248689e-05
0.5769387863 	0.02054346595 	-0.007571267486 	-9.336005131e-08 	0.02032553331 	2.088179274e-07 	3.874611568e-05
0.5789859169 	0.02026514788 	-0.007254463689 	-9.132532752e-08 	0.0200457983 	2.084894984e-07 	3.8212863e-05
0.5810558911 	0.01999908504 	-0.006945721386 	-8.931594417e-08 	0.01977813649 	2.082803948e-07 	3.77026252e-05
0.583148964 	0.01974527897 	-0.00664457592 	-8.727691377e-08 	0.01952254135 	2.081554786e-07 	3.721538982e-05
0.5852653933 	0.01950368567 	-0.006350617154 	-8.518309625e-08 	0.01927896096 	2.080933391e-07 	3.67510579e-05
0.5874054395 	0.01927421432 	-0.006063483399 	-8.302616925e-08 	0.01904729623 	2.080838262e-07 	3.630944054e-05
0.5895693664 	0.01905673301 	-0.005782844266 	-8.079727498e-08 	0.01882740568 	2.081157651e-07 	3.589026803e-05
0.5917574402 	0.01885107809 	-0.005508386196 	-7.848690881e-08 	0.01861911595 	2.081739247e-07 	3.549320992e-05
0.5939699306 	0.01865706248 	-0.005239804547 	-7.608744005e-08 	0.01842223195 	2.082474418e-07 	3.511789429e-05
0.5962071099 	0.0184744815 	-0.004976801074 	-7.359399244e-08 	0.01823654363 	2.083327447e-07 	3.476392074e-05
0.5984692536 	0.01830311688 	-0.004719083537 	-7.100670412e-08 	0.01806183017 	2.084292583e-07 	3.443086832e-05
0.6007566404 	0.01814274013 	-0.004466365511 	-6.833076287e-08 	0.01789786311 	2.085348749e-07 	3.411830154e-05
0.6030695519 	0.0179931155 	-0.004218366138 	-6.557460756e-08 	0.0177444093 	2.086444697e-07 	3.382577593e-05
0.6054082729 	0.01785400282 	-0.003974810034 	-6.274883898e-08 	0.01760123374 	2.087499032e-07 	3.355284351e-05
0.6077730914 	0.01772516019 	-0.003735427354 	-5.986526093e-08 	0.01746810211 	2.088394575e-07 	3.329905763e-05
0.6101642987 	0.01760634651 	-0.00349995393 	-5.693510144e-08 	0.01734478306 	2.088971628e-07 	3.306397724e-05
0.6125821893 	0.01749732378 	-0.003268131416 	-5.396632485e-08 	0.01723105009 	2.089023649e-07 	3.28471706e-05
0.6150270608 	0.01739785935 	-0.003039707297 	-5.096075336e-08 	0.01712668278 	2.088319652e-07 	3.26482175e-05
0.6174992144 	0.01730772794 	-0.002814434703 	-4.791095995e-08 	0.01703146943 	2.086550942e-07 	3.246671439e-05
0.6199989545 	0.01722671348 	-0.002592073356 	-4.479588431e-08 	0.01694520443 	2.083542742e-07 	3.230226932e-05
0.622526589 	0.01715461078 	-0.002372371699 	-4.166748791e-08 	0.0168676911 	2.07944646e-07 	3.215450736e-05
0.625082429 	0.01709122791 	-0.002155125074 	-3.829273136e-08 	0.01679874936 	2.074497633e-07 	3.202308526e-05
0.6276667894 	0.01703637686 	-0.001940100328 	-3.469811096e-08 	0.01673821105 	2.068918871e-07 	3.190768241e-05
0.6302799884 	0.01698987524 	-0.001727036453 	-3.119782933e-08 	0.01668591827 	2.062539245e-07 	3.180799783e-05
0.6329223478 	0.01695155406 	-0.001515726749 	-2.767174547e-08 	0.01664172768 	2.054455059e-07 	3.172375828e-05
0.6355941931 	0.01692125473 	-0.001305963426 	-2.404986246e-08 	0.01660550591 	2.044035541e-07 	3.165470953e-05
0.6382958531 	0.01689883001 	-0.001097541235 	-2.038548935e-08 	0.01657712774 	2.031429576e-07 	3.160061285e-05
0.6410276607 	0.0168841422 	-0.0008902499099 	-1.67471141e-08 	0.01655647811 	2.016888101e-07 	3.156124891e-05
0.6437899523 	0.01687706396 	-0.0006838864749 	-1.316860268e-08 	0.01654345057 	2.000516228e-07 	3.15364148e-05
0.646583068 	0.01687747734 	-0.0004782540232 	-9.646100364e-09 	0.01653794718 	1.982275581e-07 	3.15259238e-05
0.6494073518 	0.01688527075 	-0.0002731557324 	-6.202454067e-09 	0.01653988004 	1.9620362e-07 	3.152960838e-05
0.6522631514 	0.01690034094 	-6.840145514e-05 	-2.849996075e-09 	0.01654916973 	1.939670194e-07 	3.15473171e-05
0.6551508186 	0.01692259062 	0.0001362005935 	4.005304005e-10 	0.01656574326 	1.915075515e-07 	3.157891086e-05
0.658070709 	0.0169519263 	0.0003408471599 	3.538506392e-09 	0.01658953681 	1.888180478e-07 	3.162426798e-05
0.6610231822 	0.01698825974 	0.0005457243381 	6.556068294e-09 	0.01662049023 	1.85895845e-07 	3.168327381e-05
0.6640086017 	0.01703150636 	0.0007510128517 	9.447114164e-09 	0.01665854762 	1.827414844e-07 	3.175582177e-05
0.6670273351 	0.01708158431 	0.0009568955216 	1.22065229e-08 	0.01670365918 	1.793569477e-07 	3.184181694e-05
0.6700797543 	0.01713841359 	0.001163552772 	1.483217579e-08 	0.01675577751 	1.757451082e-07 	3.194116895e-05
0.6731662352 	0.01720191521 	0.001371162746 	1.732844917e-08 	0.01681485748 	1.719148581e-07 	3.205379181e-05
0.6762871577 	0.01727201018 	0.001579905193 	1.966641217e-08 	0.01688085675 	1.678692981e-07 	3.217960476e-05
0.6794429063 	0.0173486169 	0.001789963841 	2.175421901e-08 	0.01695373734 	1.635926931e-07 	3.231853541e-05
0.6826338695 	0.01743164995 	0.002001520072 	2.351213893e-08 	0.01703346362 	1.590735142e-07 	3.247051586e-05
0.6858604404 	0.0175210213 	0.002214751057 	2.494810174e-08 	0.01712000084 	1.543271821e-07 	3.263547987e-05
0.6891230163 	0.01761664267 	0.002429832513 	2.611322592e-08 	0.0172133136 	1.493923596e-07 	3.281335991e-05
0.6924219988 	0.01771842463 	0.002646938362 	2.701662882e-08 	0.01731336406 	1.4431365e-07 	3.300408391e-05
0.6957577944 	0.0178262737 	0.002866242024 	2.762783418e-08 	0.0174201138 	1.39142443e-07 	3.320757857e-05
0.6991308138 	0.01794009199 	0.003087917603 	2.790825498e-08 	0.01753352518 	1.339433891e-07 	3.342377218e-05
0.7025414724 	0.01805977676 	0.003312135447 	2.78542458e-08 	0.01765355896 	1.288051723e-07 	3.365258993e-05
0.7059901901 	0.01818522085 	0.003539061957 	2.750025127e-08 	0.01778017353 	1.238220722e-07 	3.38939525e-05
0.7094773917 	0.01831631214 	0.003768866534 	2.684417772e-08 	0.01791332804 	1.190483241e-07 	3.414778199e-05
0.7130035066 	0.01845293244 	0.00400172177 	2.58496623e-08 	0.01805298182 	1.145205298e-07 	3.441400091e-05
0.7165689691 	0.01859495721 	0.004237801162 	2.448488421e-08 	0.01819909257 	1.102943855e-07 	3.469252862e-05
0.7201742182 	0.01874225529 	0.004477280935 	2.272522956e-08 	0.01835161605 	1.064406941e-07 	3.498328077e-05
0.7238196978 	0.01889468875 	0.004720342049 	2.05653277e-08 	0.01851050134 	1.030466147e-07 	3.528616029e-05
0.727505857 	0.0190521133 	0.00496716874 	1.80108917e-08 	0.01867568952 	1.002100908e-07 	3.560105487e-05
0.7312331497 	0.0192143777 	0.005217917921 	1.502597169e-08 	0.01884715875 	9.804666488e-08 	3.592792286e-05
0.7350020349 	0.01938087448 	0.005471898564 	1.157119683e-08 	0.01902442897 	9.667739143e-08 	3.626584918e-05
0.7387709215 	0.01954996047 	0.005726620596 	7.697828761e-09 	0.01920581815 	9.608909913e-08 	3.661162738e-05
0.7424982157 	0.01971991362 	0.005979489607 	3.476045037e-09 	0.01938950779 	9.609280368e-08 	3.696179088e-05
0.7461843763 	0.01988997924 	0.006229575573 	-1.087472068e-09 	0.019574772 	9.643622502e-08 	3.731495595e-05
0.7498298574 	0.02005987572 	0.006476750218 	-6.001210858e-09 	0.0197613877 	9.685010108e-08 	3.767069735e-05
0.7534351078 	0.02022934874 	0.006720891935 	-1.123058469e-08 	0.01994912576 	9.709861979e-08 	3.802857826e-05
0.7570005716 	0.0203981736 	0.006961862343 	-1.66848308e-08 	0.02013778212 	9.698589512e-08 	3.838820973e-05
0.7605266877 	0.02056615668 	0.007199499872 	-2.223445508e-08 	0.02032717591 	9.629565539e-08 	3.874924693e-05
0.7640138905 	0.02073313565 	0.007433615929 	-2.77266193e-08 	0.02051714387 	9.476942892e-08 	3.911137867e-05
0.7674626093 	0.02089897925 	0.007663989788 	-3.299416379e-08 	0.02070753827 	9.210226352e-08 	3.947432331e-05
0.770873269 	0.02106358707 	0.007890362159 	-3.786979748e-08 	0.02089822694 	8.792512978e-08 	3.98378289e-05
0.7742462894 	0.02122689053 	0.008112426571 	-4.219511465e-08 	0.02108908244 	8.19051577e-08 	4.020165253e-05
0.777582086 	0.02138886179 	0.008329817272 	-4.580118605e-08 	0.0212799666 	7.387821073e-08 	4.05655308e-05
0.7808810695 	0.02154953735 	0.008542091572 	-4.848077823e-08 	0.02147075952 	6.362418251e-08 	4.092923514e-05
0.7841436462 	0.02170903305 	0.008748658621 	-4.965772712e-08 	0.02166137039 	5.08872334e-08 	4.129259243e-05
0.787370218 	0.02186756555 	0.008948449621 	-4.553998858e-08 	0.02185142719 	3.777128918e-08 	4.165489352e-05
0.7905611821 	0.02202539159 	0.009140280495 	-3.183204999e-08 	0.0220405208 	2.526922607e-08 	4.20153585e-05
0.7937169314 	0.02218278915 	0.009323570871 	-1.031628652e-08 	0.02222861715 	1.033432056e-08 	4.237392241e-05
0.7968378547 	0.02234012446 	0.009497869577 	1.484772035e-08 	0.02241549301 	-8.036513377e-09 	4.273015974e-05
0.7999243362 	0.02249783822 	0.009662410156 	4.224181766e-08 	0.02260071234 	-2.847778753e-08 	4.308323927e-05
0.8029767561 	0.02265632535 	0.009816468152 	7.350814833e-08 	0.02278408232 	-4.844214582e-08 	4.343279341e-05
0.8059954902 	0.02281577106 	0.009959750818 	1.099426616e-07 	0.02296570018 	-6.518100158e-08 	4.377900752e-05
0.8089809102 	0.02297620861 	0.01009233891 	1.498554376e-07 	0.02314579411 	-7.838515857e-08 	4.412231661e-05
0.8119333839 	0.023137746 	0.01021447173 	1.92462354e-07 	0.02332445948 	-8.794983306e-08 	4.446290248e-05
0.8148532749 	0.02330065882 	0.01032668784 	2.38045552e-07 	0.0235016133 	-9.249332173e-08 	4.480060689e-05
0.8177409426 	0.0234652845 	0.0104298358 	2.831322069e-07 	0.02367712812 	-8.995888951e-08 	4.513518691e-05
0.8205967427 	0.02363183301 	0.01052496265 	3.245994709e-07 	0.02385141183 	-6.031690842e-08 	4.54674201e-05
0.8234210268 	0.0238003703 	0.01061337968 	3.614460445e-07 	0.02402602194 	-6.329995098e-09 	4.580027551e-05
0.8262141429 	0.02397128972 	0.01069772098 	4.018033506e-07 	0.02420306967 	-7.809656629e-08 	4.613777769e-05
0.8289764348 	0.02414817089 	0.01078560731 	6.661037611e-07 	0.02436910248 	-3.655530034e-07 	4.645428237e-05
0.8317082427 	0.02434666133 	0.01089702778 	1.617582745e-06 	0.02450519223 	-8.94935105e-07 	4.671370726e-05
0.8344099031 	0.02460394536 	0.01108152499 	2.331853755e-06 	0.02458713323 	-1.780635346e-06 	4.686990958e-05
0.8370817486 	0.02496929932 	0.01130075397 	1.992894639e-06 	0.02457459491 	-2.685897362e-06 	4.684600806e-05
0.8397241082 	0.02545004452 	0.01151278234 	8.842078259e-07 	0.02448085829 	-2.663292759e-06 	4.666732001e-05
0.8423373074 	0.02597065913 	0.01166597644 	2.180636199e-07 	0.02438152126 	-9.309831182e-07 	4.647795602e-05
0.844921668 	0.02640509097 	0.01175513135 	4.321096225e-07 	0.02439069644 	2.039335712e-06 	4.649544646e-05
0.8474775082 	0.02665027145 	0.01186102198 	5.709383454e-07 	0.02461683748 	4.910567986e-06 	4.692653413e-05
0.8500051427 	0.02667382891 	0.01198091387 	4.986044095e-07 	0.0250702374 	6.781851322e-06 	4.779084041e-05
0.8525048829 	0.02651877037 	0.01210119947 	2.488033511e-07 	0.02567907799 	7.110143605e-06 	4.895145978e-05
0.8549770366 	0.02628781306 	0.01220156648 	-3.410295441e-07 	0.0263354096 	5.748353258e-06 	5.020261025e-05
0.8574219081 	0.02610043734 	0.01226829292 	-8.810213179e-07 	0.02692462763 	3.530161603e-06 	5.132582357e-05
0.8598397987 	0.02603661082 	0.01230614504 	-9.862399308e-07 	0.02738138176 	1.527142163e-06 	5.21965239e-05
0.862231006 	0.02610352314 	0.01233454197 	-7.418417633e-07 	0.02770886279 	2.676147969e-07 	5.282079376e-05
0.8645958245 	0.02625770586 	0.01237830397 	-3.744209618e-07 	0.02795263625 	-2.877400157e-07 	5.328549372e-05
0.8669345455 	0.02645431154 	0.01244597396 	-2.533625721e-07 	0.02816085131 	-5.056116752e-07 	5.368240951e-05
0.8692474569 	0.02666827256 	0.01252443421 	-2.619440176e-07 	0.0283560563 	-5.94018045e-07 	5.405452447e-05
0.8715348435 	0.02689112389 	0.01260282514 	-2.694971958e-07 	0.02854664216 	-6.406345566e-07 	5.441783409e-05
0.8737969871 	0.02712288129 	0.0126817311 	-2.589640591e-07 	0.02873688388 	-6.864577768e-07 	5.478048768e-05
0.8760341663 	0.02736368334 	0.0127641479 	-2.448272242e-07 	0.02892794104 	-7.04902334e-07 	5.514469573e-05
0.8782466565 	0.02761106267 	0.01285168076 	-2.483393106e-07 	0.02912287614 	-6.808543341e-07 	5.551629621e-05
0.8804347301 	0.02786099166 	0.01294393647 	-2.692570154e-07 	0.02932570646 	-6.151539543e-07 	5.590294718e-05
0.8825986568 	0.02810982226 	0.0130406588 	-3.128302923e-07 	0.0295401597 	-5.348162037e-07 	5.631175466e-05
0.8847387028 	0.02835631368 	0.01314094004 	-3.945211091e-07 	0.02976759415 	-4.823049309e-07 	5.674530792e-05
0.8868551318 	0.02860242421 	0.01324288721 	-5.080265291e-07 	0.03000598973 	-4.772759672e-07 	5.719975615e-05
0.8889482045 	0.02885203554 	0.01334488325 	-6.219744738e-07 	0.03025169593 	-5.04577878e-07 	5.766814046e-05
0.8910181784 	0.02910847684 	0.01344801587 	-7.221004456e-07 	0.03050222201 	-5.409226307e-07 	5.81457128e-05
0.8930653087 	0.02937293831 	0.01355631068 	-8.181924665e-07 	0.03075794696 	-5.66224601e-07 	5.863319564e-05
0.8950898473 	0.02964473635 	0.01367725619 	-9.047001752e-07 	0.03102399651 	-5.579131288e-07 	5.914036003e-05
0.8970920436 	0.02992296993 	0.01382202383 	-9.745860823e-07 	0.03128366788 	-5.754636887e-07 	5.963536583e-05
0.8990721441 	0.03020761245 	0.01401067379 	-9.447106616e-07 	0.03154702727 	-6.121151858e-07 	6.013740201e-05
0.9010303927 	0.0305021867 	0.01433230588 	-4.674201366e-07 	0.03185125729 	-5.878078658e-07 	6.071734898e-05
0.9029670306 	0.03084513149 	0.01461860374 	-3.621160576e-08 	0.03211604333 	-7.589445879e-07 	6.122210477e-05
0.9048822962 	0.03128384753 	0.01477328402 	2.849095838e-09 	0.03229663842 	-1.217547244e-06 	6.156636921e-05
0.9067764254 	0.03183071762 	0.01494405641 	5.879593421e-08 	0.03245780317 	-1.636012557e-06 	6.187359403e-05
0.9086496514 	0.03247761548 	0.01513256712 	1.310291693e-07 	0.03261387961 	-1.857219742e-06 	6.21711191e-05
0.910502205 	0.03320595341 	0.01533931612 	2.223449067e-07 	0.03277752732 	-1.85651026e-06 	6.248307711e-05
0.9123343142 	0.033987311 	0.01556321118 	3.274828377e-07 	0.03298379801 	-1.535342592e-06 	6.287628638e-05
0.9141462048 	0.03476574146 	0.01580036786 	4.177355774e-07 	0.03326446972 	-8.059892665e-07 	6.341132467e-05
0.9159380997 	0.03544469221 	0.01604102221 	4.348283561e-07 	0.03365444314 	3.138195388e-07 	6.41547224e-05
0.9177102197 	0.03589754324 	0.01626835349 	3.22757887e-07 	0.03418138199 	1.705962726e-06 	6.51592143e-05
0.9194627831 	0.0360189608 	0.01646271611 	7.12353495e-08 	0.03485609915 	3.286751667e-06 	6.644541272e-05
0.9211960055 	0.03581784503 	0.01660961608 	-2.6203359e-07 	0.03566289107 	4.332532096e-06 	6.798338238e-05
0.9229101006 	0.03547977725 	0.01667581438 	-1.961503051e-06 	0.03647681992 	3.215202422e-06 	6.953495698e-05
0.9246052793 	0.03528077334 	0.01653836032 	-3.581931053e-06 	0.03704985973 	9.146030534e-07 	7.062733012e-05
0.9262817504 	0.03533403693 	0.01629863499 	-1.930522028e-06 	0.03733201101 	8.02578141e-08 	7.116518887e-05
0.9279397204 	0.03553137124 	0.01627890876 	1.032786006e-07 	0.03751654076 	2.327457173e-08 	7.151695388e-05
0.9295793934 	0.03576553581 	0.0164621794 	6.545971748e-07 	0.03767912045 	-2.912524577e-07 	7.182687595e-05
0.9312009714 	0.03601656559 	0.01671473307 	1.417396947e-06 	0.03780817218 	-3.196736787e-07 	7.207288442e-05
0.9328046541 	0.03630555264 	0.01702889894 	1.42191625e-06 	0.03792150011 	-5.592370356e-07 	7.228891895e-05
0.9343906389 	0.03666390437 	0.0172949125 	4.780531411e-07 	0.03798457732 	-1.104304512e-06 	7.240916164e-05
0.9359591211 	0.03708191068 	0.01744667035 	5.681674655e-08 	0.03798985534 	-1.157137219e-06 	7.241922301e-05
0.937510294 	0.03750779387 	0.0175540811 	1.105194639e-07 	0.03800161747 	-8.182276752e-07 	7.24416449e-05