0.3443842407 	1.434080913e-06 	-0.6829829034
0.3446065432 	2.080936565e-05 	-0.6831056286
0.3448288532 	0.0001258910968 	-0.683206547
0.3450511696 	0.0004381926653 	-0.6833071174
0.3452734914 	0.001105636981 	-0.6833916041
0.3453683896 	0.00160028635 	-0.6834035859
0.3454955589 	0.002264654573 	-0.6834187673
0.3457174369 	0.003991813136 	-0.6833212245
0.3459393173 	0.006258684289 	-0.6830323212
0.346161199 	0.008929630365 	-0.6825280404
0.3463830811 	0.01181427272 	-0.6818451339
0.3466049627 	0.01473446929 	-0.6810578907
0.3468268426 	0.01756276853 	-0.680240852
0.3470487201 	0.02022650728 	-0.6794467874
0.347270594 	0.02269457238 	-0.6787041761
0.3474924634 	0.02496175515 	-0.6780238214
0.3477143274 	0.02703679246 	-0.6774061931
0.347936185 	0.02893477827 	-0.6768466722
0.3481580352 	0.03067285476 	-0.6763386908
0.348379877 	0.03226797633 	-0.6758754104
0.3486017095 	0.0337358695 	-0.6754505124
0.3488235318 	0.03509064099 	-0.6750584949
0.3490453428 	0.03634471752 	-0.6746947175
0.3492671416 	0.03750894252 	-0.6743553346
0.3494889273 	0.03859273689 	-0.6740371749
0.3497106988 	0.0396042751 	-0.6737375923
0.3499324553 	0.04055065319 	-0.673454361
0.3501541958 	0.04143804181 	-0.6731856186
0.3503759193 	0.0422718236 	-0.6729297858
0.3505976249 	0.0430567103 	-0.6726854881
0.3508193117 	0.0437968396 	-0.6724496688
0.3510409786 	0.04458953532 	-0.6721741924
0.3513853564 	0.0455123339 	-0.6718794545
0.3517361516 	0.04645883415 	-0.6715582894
0.3520934788 	0.04734537628 	-0.6712504922
0.3524574545 	0.04817634406 	-0.6709521319
0.3528281968 	0.04895555793 	-0.6706624778
0.3532058255 	0.04968635879 	-0.6703809833
0.3535904623 	0.05037168116 	-0.6701072691
0.3539822304 	0.05101411904 	-0.6698410569
0.3543812548 	0.05161597953 	-0.6695821021
0.3547876624 	0.05217932639 	-0.6693301477
0.3552015816 	0.05270601472 	-0.6690849045
0.3556231425 	0.05319771979 	-0.6688460784
0.356052477 	0.05365596244 	-0.6686133896
0.3564897188 	0.05408213118 	-0.6683865704
0.3569350029 	0.05447750116 	-0.6681653656
0.3573884662 	0.05484325072 	-0.6679495529
0.3578502473 	0.05518047582 	-0.6677388787
0.358320486 	0.05549056579 	-0.6675324182
0.3588016631 	0.05577495838 	-0.6673300223
0.359293396 	0.05603422307 	-0.6671314057
0.3597942051 	0.05626856715 	-0.6669365017
0.3603042555 	0.05647861771 	-0.6667453203
0.3608237152 	0.05666519616 	-0.6665574458
0.3613527551 	0.05682909532 	-0.6663725336
0.3618915494 	0.05697108357 	-0.6661902557
0.362440275 	0.05709190882 	-0.6660102795
0.3629991123 	0.05719230163 	-0.6658322595
0.3635682448 	0.0572729777 	-0.6656558394
0.3641478591 	0.05733463988 	-0.6654806539
0.3647381453 	0.05737797956 	-0.6653063351
0.3653392967 	0.05740367771 	-0.6651325171
0.3659515103 	0.05741244817 	-0.6649588255
0.3665749862 	0.05740502177 	-0.6647848659
0.3672099285 	0.05738194793 	-0.6646102333
0.3678565445 	0.05734376509 	-0.6644345248
0.3685150454 	0.05729117473 	-0.6642573466
0.3691856462 	0.05722487139 	-0.6640783186
0.3698685656 	0.05714541983 	-0.6638970657
0.370564026 	0.05705336468 	-0.6637132113
0.3712722542 	0.05694932802 	-0.6635263553
0.3719934806 	0.05683383426 	-0.6633357603
0.3727294247 	0.05670717346 	-0.6631407251
0.3734830113 	0.05656969583 	-0.6629418089
0.3742503944 	0.05642213187 	-0.662737929
0.375031822 	0.05626518334 	-0.6625294073
0.3758275468 	0.05609935137 	-0.6623158185
0.3766378254 	0.05592511667 	-0.6620968839
0.3774629195 	0.05574293872 	-0.6618723368
0.3783030949 	0.05555325523 	-0.6616419375
0.3791586226 	0.05535648206 	-0.6614054775
0.3800297781 	0.05515301337 	-0.66116278
0.3809168418 	0.05494322223 	-0.6609137
0.3818200992 	0.05472746177 	-0.6606581196
0.3827398406 	0.05450606677 	-0.660395928
0.3836763618 	0.05427935565 	-0.6601269737
0.3846299636 	0.05404763228 	-0.6598509185
0.3856009522 	0.05381112081 	-0.6595667014
0.3865907222 	0.05356967224 	-0.6592720086
0.387604356 	0.05332322648 	-0.6589648878
0.3886364169 	0.05304050824 	-0.6585428864
0.3902195767 	0.05269001904 	-0.6581421833
0.3918189307 	0.05230701829 	-0.6576384173
0.3934346495 	0.05192393531 	-0.6571296307
0.3950669062 	0.05154102979 	-0.6566125952
0.3967158762 	0.05115847262 	-0.6560871506
0.398381737 	0.05077633931 	-0.6555533011
0.4000646689 	0.0503940878 	-0.6550096075
0.4017744432 	0.05001103532 	-0.654458797
0.4035026989 	0.04962757792 	-0.6539000058
0.4052485868 	0.04924413118 	-0.6533356555
0.4070122955 	0.04886054682 	-0.6527666461
0.407690136 	0.04871451533 	-0.6525494486
0.408792624 	0.04847679919 	-0.6521882723
0.4105903171 	0.04809260449 	-0.6516038455
0.4124064297 	0.0477075605 	-0.6510172952
0.4142429688 	0.04732095847 	-0.6504283101
0.4161069656 	0.04693230599 	-0.6498394871
0.417989985 	0.04654210492 	-0.6492510256
0.4198922341 	0.0461507757 	-0.6486661272
0.4218139229 	0.0457583862 	-0.6480859761
0.4237552645 	0.045365126 	-0.6475098906
0.4257164752 	0.04497127313 	-0.6469327509
0.4276986919 	0.04457675945 	-0.6463441785
0.4297104706 	0.04418163245 	-0.6457424428
0.4317427659 	0.04378678443 	-0.6451445279
0.4337958054 	0.04339261445 	-0.6445840877
0.4358698202 	0.04299882738 	-0.6440724764
0.4379650448 	0.04260538148 	-0.6435924189
0.4400817173 	0.04221238533 	-0.6431233648
0.4422255123 	0.04181990513 	-0.6426586646
0.4443955983 	0.04142854748 	-0.6421981027
0.4465878315 	0.04103929254 	-0.6417421482
0.4488024631 	0.04065283458 	-0.6412911335
0.4510397483 	0.04026966866 	-0.6408447998
0.4532999463 	0.03989009319 	-0.6404025349
0.4555878644 	0.0395141947 	-0.6399643922
0.4579040328 	0.03914245601 	-0.6395303247
0.4602438632 	0.03877573085 	-0.6391001381
0.4626076297 	0.03841462075 	-0.6386743025
0.4649956106 	0.03805951484 	-0.6382525747
0.4674080891 	0.03771052577 	-0.6378339816
0.4698526333 	0.03736768558 	-0.637419368
0.4723238069 	0.03703158034 	-0.6370077167
0.4748202848 	0.03670282309 	-0.6365997158
0.4773423667 	0.03638173394 	-0.6361952397
0.4798903572 	0.03606843224 	-0.6357936372
0.4824688066 	0.03576289816 	-0.6353949575
0.4850778683 	0.03546537921 	-0.6349991071
0.4877136985 	0.03517632907 	-0.6346059722
0.4903766202 	0.03489601618 	-0.6342158011
0.4930669622 	0.03462447908 	-0.6338279566
0.4957890047 	0.0343616512 	-0.6334424683
0.498542954 	0.03410767187 	-0.6330592969
0.501325243 	0.03386283356 	-0.6326783631
0.5041362209 	0.03362728303 	-0.632299858
0.5069762428 	0.03340095859 	-0.6319230289
0.5098513058 	0.03318376033 	-0.6315483912
0.5127576566 	0.03297582768 	-0.631175441
0.515694038 	0.03277730831 	-0.6308045841
0.5163520982 	0.03273535235 	-0.6307231654
0.5186599183 	0.0325882581 	-0.6304344563
0.5216583595 	0.03240850738 	-0.6300656634
0.5246926629 	0.03223799019 	-0.6296989039
0.5277584632 	0.03207679518 	-0.6293338649
0.5308561613 	0.03192493838 	-0.6289708195
0.533986392 	0.03178230437 	-0.6286090701
0.5371552072 	0.03164878665 	-0.6282492737
0.5403570304 	0.03152442532 	-0.6278908625
0.5435922885 	0.03140921919 	-0.627534311
0.5468614163 	0.03130306532 	-0.6271788924
0.5501702641 	0.03120586786 	-0.6268251598
0.5535138574 	0.03111763286 	-0.6264726354
0.5568925193 	0.03103833977 	-0.626121664
0.5603072062 	0.03096791194 	-0.6257716511
0.5637623821 	0.03090629016 	-0.6254230043
0.5672538805 	0.03085347167 	-0.6250753999
0.5707821855 	0.03080943297 	-0.624728947
0.5743495265 	0.03077413436 	-0.6243833486
0.577957345 	0.03074756059 	-0.6240387733
0.5816033051 	0.03072971265 	-0.623695144
0.5852879225 	0.03072058379 	-0.6233521871
0.5890150047 	0.0307200607 	-0.6230099767
0.5927823599 	0.03072816767 	-0.6226682695
0.5965897945 	0.03074517637 	-0.6223268726
0.6004392764 	0.03077108824 	-0.6219852684
0.6043319749 	0.0308057993 	-0.6216432619
0.6082662433 	0.03084933939 	-0.6213003983
0.6122429764 	0.03090175191 	-0.6209559152
0.6162651862 	0.03096309332 	-0.6206094315
0.620330528 	0.03103340212 	-0.6202604486
0.6244396024 	0.03111272901 	-0.619908517
0.6285955101 	0.03120114286 	-0.6195534
0.6327963996 	0.03129868422 	-0.6191949917
0.6370426866 	0.03140540077 	-0.6188332918
0.6413370089 	0.03152135784 	-0.6184682843
0.6456781654 	0.03164659041 	-0.6181000839
0.6500664637 	0.03178114047 	-0.6177287144
0.6545043509 	0.03192506889 	-0.6173540508
0.6589907485 	0.03207840674 	-0.6169760248
0.6635261572 	0.0322411986 	-0.6165944147
0.6681128654 	0.03241350865 	-0.6162089004
0.6727497425 	0.03259488481 	-0.6158215529
0.6773861214 	0.0327836827 	-0.6154345793
0.6819716458 	0.03297804885 	-0.6150503708
0.6865058683 	0.03317712151 	-0.6146711666
0.6909899831 	0.03338056127 	-0.6142968145
0.6954247659 	0.03358804802 	-0.6139273824
0.6998101865 	0.03379926692 	-0.6135629841
0.7041473543 	0.034013929 	-0.6132035011
0.708436817 	0.03423175202 	-0.61284903
0.7126787351 	0.03445245853 	-0.6124996968
0.7168740637 	0.03467579818 	-0.6121553632
0.7210233433 	0.03490154002 	-0.6118160722
0.7251267892 	0.03512948074 	-0.6114818648
0.7291851807 	0.03535947609 	-0.611152506
0.73319916 	0.03559144715 	-0.6108279235
0.7371689229 	0.03582537421 	-0.6105081032
0.7410950781 	0.03606131263 	-0.6101928323
0.7449784111 	0.03629941046 	-0.6098820729
0.7488190624 	0.03653990457 	-0.6095759754
0.7526175557 	0.03678313958 	-0.6092746486
0.7563746203 	0.03702957125 	-0.6089783263
0.7600905322 	0.03727970821 	-0.6086875597
0.7636007819 	0.03752266668 	-0.6084157402
0.7637656988 	0.03753408315 	-0.6084030458
0.7674002605 	0.03779326312 	-0.6081262937
0.7709951809 	0.03805778579 	-0.6078572715
0.7745507588 	0.03832812596 	-0.6075968336
0.7780674581 	0.03860463621 	-0.6073456502
0.7815458334 	0.03888747634 	-0.6071042186
0.7849862318 	0.03917653522 	-0.6068727191
0.7883890421 	0.03947138206 	-0.606650753
0.7917546993 	0.03977125731 	-0.60643732
0.7950837181 	0.04007510573 	-0.6062311776
0.7983763974 	0.04038166644 	-0.6060309593
0.8016331439 	0.04068963596 	-0.605835177
0.8048543671 	0.0409978713 	-0.6056423888
0.8080405314 	0.04130558153 	-0.6054514562
0.8111919383 	0.04161243083 	-0.6052615985
0.8143089796 	0.04191860121 	-0.605072348
0.8173920419 	0.04222473547 	-0.6048836005
0.8204415432 	0.04253190579 	-0.6046957184
0.8234578018 	0.04284152571 	-0.6045092793
0.8264411824 	0.04315521381 	-0.6043245952
0.8293920517 	0.04347473923 	-0.6041419166
0.8323107879 	0.04380201838 	-0.603962125
0.8351977266 	0.04413914529 	-0.6037871685
0.838053203 	0.04448835229 	-0.6036203012
0.8408775654 	0.0448516348 	-0.6034660965
0.8436711583 	0.04522972975 	-0.6033302499
0.8464343327 	0.0456209169 	-0.6032188873
0.8491673941 	0.04602044731 	-0.6031369653
0.8518706739 	0.04642111485 	-0.6030866025
0.8545444993 	0.04681530113 	-0.6030649651
0.8571891969 	0.0471973962 	-0.6030630959
0.8598050829 	0.04756462179 	-0.6030668981
0.8623924596 	0.04791776094 	-0.6030603639
0.864951639 	0.0482609562 	-0.6030306661
0.8674829292 	0.04860001162 	-0.6029721914
0.8699866364 	0.0489405284 	-0.6028868142
0.8724630593 	0.04928682634 	-0.6027799666
0.8749124865 	0.04964210944 	-0.6026559707
0.8773352122 	0.05000869465 	-0.6025160491
0.8797315274 	0.05038834266 	-0.6023588366
0.8821017194 	0.05078242018 	-0.6021820812
0.8844460737 	0.05119200641 	-0.6019854534
0.8867648633 	0.05161807412 	-0.601773682
0.889058366 	0.05206120814 	-0.6015589554
0.8913268564 	0.05252037202 	-0.6013614992
0.8935706063 	0.05299104555 	-0.6012066072
0.8957898846 	0.05346406262 	-0.6011193937
0.8979849547 	0.05392752602 	-0.6011174409
0.9001560763 	0.05437062251 	-0.6012023498
0.9023035092 	0.05478661361 	-0.6013544682
0.9044275105 	0.05517459198 	-0.6015344353
0.9065283342 	0.05553854538 	-0.6016957088
0.9086062317 	0.0558855429 	-0.6018022602
0.9106614501 	0.05622309913 	-0.6018404147
0.9126942333 	0.05655677688 	-0.6018182591
0.9147048246 	0.05688961174 	-0.6017547163
0.9166934645 	0.0572223585 	-0.6016679556
0.9186603909 	0.05755445301 	-0.6015694485
0.9206058391 	0.05788435008 	-0.6014640558
0.9225300416 	0.05820981605 	-0.6013528562
0.924433227 	0.05852840432 	-0.601236097
0.9263156229 	0.05883750979 	-0.6011156224
0.9281774546 	0.05913385728 	-0.6009964299
0.9300189449 	0.0594135107 	-0.6008869276
0.9318403144 	0.05967286895 	-0.6007975994
0.9336417811 	0.0599097109 	-0.6007380367
0.9354235603 	0.06012389139 	-0.6007125594
0.9371858648 	0.06031753929 	-0.6007163926
0.9389289053 	0.06049456689 	-0.6007422954
0.9406528909 	0.06065949436 	-0.6007891828
0.9423580282 	0.06081617732 	-0.6008484604
0.9440445214 	0.06096688733 	-0.6008971492
0.9457125728 	0.06111218302 	-0.600922256
0.9473623823 	0.06125158534 	-0.6009306956
0.9489941474 	0.06138419539 	-0.6009312909
0.9506080637 	0.06150892254 	-0.6009279474
0.9522043246 	0.06162448952 	-0.6009259334
0.9537831219 	0.06172937713 	-0.6009306069
0.955344645 	0.06181460466 	-0.6009440572
0.9563619032 	0.06187541875 	-0.6009605201
0.957360456 	0.06192268472 	-0.6009930065
0.9583406462 	0.06196352776 	-0.6010476619
0.9593028105 	0.0619978587 	-0.6011161852
0.9602472794 	0.06202558872 	-0.601186748
0.9611743772 	0.06204660262 	-0.6012559358
0.9620844225 	0.06206076183 	-0.6013243538
0.962977728 	0.06206790312 	-0.6013925395
0.9638546008 	0.06206784825 	-0.6014609881
0.9647153423 	0.0620603948 	-0.6015300605
0.9655602484 	0.06204530991 	-0.6016000284
0.9663896097 	0.06202235694 	-0.6016711299
0.9672037114 	0.06199129362 	-0.6017435887
0.9680028336 	0.06195186195 	-0.6018176201
0.9687872512 	0.06190379568 	-0.6018934275
0.969557234 	0.06184682239 	-0.601971201
0.9703130471 	0.06178066555 	-0.6020511143
0.9710549506 	0.06170504639 	-0.6021333245
0.9717831999 	0.06161967709 	-0.6022179717
0.9724980456 	0.0615242766 	-0.6023051785
0.9731997339 	0.06141857422 	-0.602395051
0.9738885064 	0.06130229594 	-0.6024876803
0.9745646003 	0.06117517127 	-0.6025831427
0.9752282485 	0.06103693358 	-0.6026814997
0.9758796795 	0.06088732098 	-0.6027827991
0.9765191179 	0.06072607627 	-0.602887076
0.977146784 	0.06055294664 	-0.6029943534
0.977762894 	0.06036768314 	-0.6031046431
0.9783676604 	0.06017003983 	-0.6032179463
0.9789612914 	0.05995977265 	-0.6033342538
0.9795439919 	0.05973663803 	-0.6034535472
0.9801159626 	0.05950039118 	-0.6035757993
0.9806774008 	0.05925078409 	-0.6037009748
0.9812285001 	0.05898756321 	-0.6038290313
0.9817694505 	0.05871046679 	-0.6039599201
0.9823004386 	0.05841922181 	-0.6040935871
0.9828216476 	0.05811354058 	-0.6042299739
0.9833332573 	0.05779311686 	-0.6043690189
0.9838354441 	0.05745762145 	-0.6045106586
0.9843283814 	0.05710669732 	-0.6046548288
0.9848122392 	0.05673995398 	-0.604801466
0.9852871845 	0.05635696121 	-0.6049505091
0.9857533812 	0.05595724187 	-0.6051019009
0.9862109903 	0.05554026368 	-0.6052555903
0.9866601697 	0.05510542989 	-0.6054115342
0.9871010743 	0.05465206838 	-0.6055697001
0.9875338566 	0.05417941918 	-0.605730069
0.9879586658 	0.05368661983 	-0.6058926386
0.9883756487 	0.05317268824 	-0.6060574277
0.9887849493 	0.05263650252 	-0.6062244812
0.9891867089 	0.05207677701 	-0.6063938764
0.9895810663 	0.05149203372 	-0.6065657307
0.9899681576 	0.05088056802 	-0.6067402107
0.9903481166 	0.05024040715 	-0.6069175427
0.9907210746 	0.04956925982 	-0.6070980125
0.9910871604 	0.04886445425 	-0.6072820001
0.9912986501 	0.04842798811 	-0.607392688
0.9914464996 	0.04812286179 	-0.6074701325
0.9917992161 	0.04734080717 	-0.6076631546
0.9921454333 	0.04651396223 	-0.6078661739
0.9924852705 	0.04571408158 	-0.6080655728
0.9927039924 	0.04502999973 	-0.60823444
0.9929227172 	0.04439354794 	-0.6083844613
0.993141445 	0.04372013855 	-0.6085385353
0.9933601758 	0.04300580675 	-0.6087004679
0.9935789096 	0.04224592949 	-0.6088717092
0.9937976463 	0.04143509805 	-0.6090540831
0.9940163861 	0.04056696155 	-0.6092498216
0.9942351288 	0.03963403489 	-0.6094617085
0.9944538745 	0.03862746851 	-0.609693228
0.9946726231 	0.0375367761 	-0.6099487314
0.9948913747 	0.03634952 	-0.6102336435
0.9951101294 	0.03505096396 	-0.6105546939
0.995328887 	0.03362372182 	-0.6109201471
0.9955476475 	0.03204746874 	-0.6113399706
0.9957664111 	0.03029885446 	-0.6118258221
0.9959851776 	0.02835189083 	-0.6123906377
0.9962039471 	0.02617932174 	-0.6130474384
0.9964227196 	0.02375587189 	-0.6138067357
0.996641495 	0.0210648303 	-0.6146715953
0.9968602735 	0.01810996961 	-0.6156292731
0.9970790549 	0.01493447915 	-0.6166395415
0.9972978393 	0.01164507281 	-0.6176251628
0.9975166266 	0.00842921247 	-0.6184795162
0.997735417 	0.005538661059 	-0.6191059547
0.9979542103 	0.003216221216 	-0.6194728148
0.9981730066 	0.001592809978 	-0.6196325311
0.9983918059 	0.0006347860313 	-0.6196787476
0.9986106081 	0.0001821220003 	-0.6196858947
0.9988294134 	2.98874832e-05 	-0.6196876591
0.9990482216 	2.537987452e-06 	-0.6196865654
