0.3362433877 	6.151906781e-06 	-5.688628887e-08 	1.009820962e-13 	6.099588257e-06 	-7.963831057e-12 	1.162751051e-08
0.3363017955 	2.902898588e-05 	-9.490411893e-07 	-3.895199373e-08 	2.829708622e-05 	9.691253962e-07 	5.394211111e-08
0.3364356309 	8.156899891e-05 	-2.997886465e-06 	1.907862141e-11 	7.927665556e-05 	-3.679081167e-10 	1.511233393e-07
0.3366277463 	0.0004748876251 	-3.967744961e-05 	6.838208654e-10 	0.0004456977756 	-5.506791762e-09 	8.496238355e-07
0.3368198693 	0.001615439356 	-0.0002337605563 	6.485187868e-09 	0.001445606008 	-2.875164099e-08 	2.755726837e-06
0.3370119991 	0.003941109622 	-0.000825643152 	2.989041868e-08 	0.003344088424 	-8.742357089e-08 	6.374761978e-06
0.3372041348 	0.007599594565 	-0.00202680756 	8.466963836e-08 	0.0061382587 	-1.871546894e-07 	1.170122712e-05
0.3373962757 	0.0122739626 	-0.003813597268 	1.699620304e-07 	0.009531786998 	-3.134901751e-07 	1.817023524e-05
0.3375884208 	0.01735914977 	-0.005928274499 	2.688956685e-07 	0.01310466683 	-4.434333362e-07 	2.498113724e-05
0.3377805694 	0.0222968962 	-0.008068837495 	3.638522279e-07 	0.01651511527 	-5.594337605e-07 	3.148239984e-05
0.3379727207 	0.02674339719 	-0.01000850852 	4.105450571e-07 	0.01958103157 	-6.636758938e-07 	3.732688843e-05
0.3381648737 	0.03053905023 	-0.01155675754 	4.326322989e-07 	0.02226527556 	-7.539095405e-07 	4.244380354e-05
0.3383570277 	0.03370734641 	-0.01275673146 	4.760031197e-07 	0.02456673696 	-8.196954283e-07 	4.683102861e-05
0.3385491818 	0.03634441979 	-0.01376236175 	5.096412626e-07 	0.02649042724 	-8.596366677e-07 	5.049811695e-05
0.3387413353 	0.03850952017 	-0.01459867442 	5.356777086e-07 	0.02806698381 	-8.720916673e-07 	5.350347195e-05
0.3389334873 	0.04026764936 	-0.0152944773 	5.5791018e-07 	0.02933297941 	-8.6093358e-07 	5.591681143e-05
0.3391256369 	0.0416658179 	-0.01583498153 	5.487798785e-07 	0.03035050896 	-8.371722826e-07 	5.785650557e-05
0.3393177834 	0.04275634093 	-0.0162308516 	5.1697059e-07 	0.03116415845 	-7.999981043e-07 	5.940754764e-05
0.3395099259 	0.04359921251 	-0.01653507422 	4.905683013e-07 	0.03179585639 	-7.38675122e-07 	6.061173948e-05
0.3397020636 	0.04423234625 	-0.01676429267 	4.535928657e-07 	0.03227144741 	-6.574711321e-07 	6.151834816e-05
0.3398941957 	0.04468485248 	-0.0169279541 	4.053524222e-07 	0.03261319548 	-5.54968361e-07 	6.216981496e-05
0.3400863214 	0.04498126941 	-0.01703438403 	3.45491327e-07 	0.03283964515 	-4.30451095e-07 	6.260149096e-05
0.3402784399 	0.04514253078 	-0.01709090217 	2.74216417e-07 	0.03296646996 	-2.843470632e-07 	6.284325429e-05
0.3404705503 	0.04518590079 	-0.01710365588 	1.913598991e-07 	0.03300649515 	-1.163069823e-07 	6.291955344e-05
0.3406626518 	0.04512585572 	-0.01707787297 	9.664577884e-08 	0.03297042279 	7.424392984e-08 	6.285078948e-05
0.3408547436 	0.04497462646 	-0.01701801821 	-1.014432089e-08 	0.0328672733 	2.877367821e-07 	6.26541579e-05
0.3410468249 	0.04474270838 	-0.01692795428 	-1.291206854e-07 	0.03270477122 	5.243887379e-07 	6.234438377e-05
0.3412388949 	0.04443926304 	-0.01681107445 	-2.603455993e-07 	0.03248964747 	7.84330561e-07 	6.193429811e-05
0.3414309528 	0.04407236932 	-0.01667038361 	-4.038254577e-07 	0.03222781044 	1.06758389e-06 	6.143516395e-05
0.3416229978 	0.04364925403 	-0.01650857223 	-5.595423279e-07 	0.03192446956 	1.374108573e-06 	6.085691193e-05
0.341815029 	0.04317566577 	-0.01632781129 	-7.27740085e-07 	0.03158398734 	1.704374771e-06 	6.020785818e-05
0.3420070457 	0.04258038826 	-0.01610095343 	-9.305193608e-07 	0.03115538574 	2.100292776e-06 	5.939082442e-05
0.3423053646 	0.0417598522 	-0.01578860293 	-1.21804192e-06 	0.03056344495 	2.663137688e-06 	5.826242074e-05
0.3426092492 	0.04075837477 	-0.01540758932 	-1.564999131e-06 	0.029839187 	3.338785094e-06 	5.68817838e-05
0.3429187992 	0.03965388427 	-0.01498767823 	-1.953234735e-06 	0.02903932066 	4.092431218e-06 	5.535701624e-05
0.343234116 	0.03845121808 	-0.01453077885 	-2.385391925e-06 	0.02816765381 	4.929327682e-06 	5.369537696e-05
0.3435553022 	0.03715421368 	-0.01403835089 	-2.860466595e-06 	0.02722676633 	5.84819135e-06 	5.190178392e-05
0.3438824622 	0.03577237779 	-0.01351412426 	-3.350048179e-06 	0.02622382115 	6.792596569e-06 	4.998989164e-05
0.3442157019 	0.03432466003 	-0.01296554023 	-3.819717233e-06 	0.02517352201 	7.693325976e-06 	4.798772956e-05
0.3445551286 	0.03282955187 	-0.01239979878 	-4.275159601e-06 	0.024090222 	8.561555387e-06 	4.592265867e-05
0.3449008511 	0.03129999167 	-0.01182185973 	-4.723347803e-06 	0.02298384305 	9.411035943e-06 	4.381359288e-05
0.3452529799 	0.02974821667 	-0.0112363909 	-5.150516054e-06 	0.02186381705 	1.02127177e-05 	4.167851204e-05
0.3456116268 	0.028188307 	-0.01064877987 	-5.539144399e-06 	0.02074115288 	1.092989851e-05 	3.95384021e-05
0.3459769053 	0.02663702492 	-0.01006544131 	-5.863709177e-06 	0.01962897664 	1.151127218e-05 	3.741828507e-05
0.3463489302 	0.02511449379 	-0.009493932284 	-6.0978435e-06 	0.01854207993 	1.192387828e-05 	3.534635786e-05
0.346727818 	0.02364371469 	-0.008942826289 	-6.203584972e-06 	0.01749681636 	1.205671357e-05 	3.335379497e-05
0.3471136864 	0.02224845269 	-0.008422297567 	-6.145898617e-06 	0.01651926295 	1.174323236e-05 	3.149030648e-05
0.3475066549 	0.02094048844 	-0.007921973042 	-6.76089677e-06 	0.01563079934 	1.116992653e-05 	2.979664791e-05
0.347906844 	0.01969239123 	-0.007358162223 	-8.198679744e-06 	0.01483126365 	1.009645379e-05 	2.827251065e-05
0.348314376 	0.0184925866 	-0.006723450861 	-8.343966609e-06 	0.01410673334 	8.987053464e-06 	2.689135451e-05
0.3487293745 	0.01736997023 	-0.006115516616 	-7.362294096e-06 	0.01344828358 	7.937276964e-06 	2.563616626e-05
0.3491519642 	0.01633674732 	-0.005561856687 	-6.644396055e-06 	0.01285111703 	6.970376048e-06 	2.449780085e-05
0.3495822713 	0.01539347338 	-0.005051405805 	-5.955297282e-06 	0.01231133127 	5.996362392e-06 	2.346881915e-05
0.3500204234 	0.01454215375 	-0.004583025982 	-5.281844778e-06 	0.01183472705 	4.950550495e-06 	2.256027905e-05
0.3504665492 	0.01378293299 	-0.004155461779 	-4.641178073e-06 	0.01142555332 	3.943704367e-06 	2.17802802e-05
0.3509207785 	0.01311360782 	-0.003766785259 	-4.036588637e-06 	0.01108277776 	2.998470281e-06 	2.112685472e-05
0.3513845503 	0.01252658962 	-0.00341294472 	-3.475014597e-06 	0.01080274939 	2.132170104e-06 	2.059304282e-05
0.3518696828 	0.01201536052 	-0.003090223246 	-2.956352978e-06 	0.01058287225 	1.354912648e-06 	2.017389587e-05
0.3523637086 	0.0115787319 	-0.002798911555 	-2.490668803e-06 	0.01042247241 	6.820648708e-07 	1.98681292e-05
0.3528667873 	0.01121199378 	-0.002538827274 	-2.070471377e-06 	0.01031900744 	1.092762431e-07 	1.96708962e-05
0.3533790813 	0.01090711787 	-0.00230832551 	-1.682330164e-06 	0.01026935459 	-3.760751078e-07 	1.957624406e-05
0.3539007558 	0.0106576557 	-0.002105990335 	-1.350725064e-06 	0.01027117288 	-7.657287525e-07 	1.957971024e-05
0.354431979 	0.01045788291 	-0.001927228642 	-1.09571638e-06 	0.01032017348 	-1.028870407e-06 	1.967311901e-05
0.3549729218 	0.0103011616 	-0.001766137714 	-8.86425719e-07 	0.01040822714 	-1.161385708e-06 	1.984097375e-05
0.3555237583 	0.01018015907 	-0.001619818157 	-7.045236292e-07 	0.01052621899 	-1.191372298e-06 	2.0065899e-05
0.3560846653 	0.0100879005 	-0.001486611535 	-5.508761843e-07 	0.01066703894 	-1.145351906e-06 	2.033434096e-05
0.3566558229 	0.01001853696 	-0.001364424604 	-4.209596411e-07 	0.01082563391 	-1.039981496e-06 	2.063666707e-05
0.3572374142 	0.009967299561 	-0.001251426855 	-3.100564506e-07 	0.01099811987 	-8.863270801e-07 	2.096547325e-05
0.3578296256 	0.009930122409 	-0.001146088299 	-2.142831324e-07 	0.01118115324 	-6.950834559e-07 	2.131438572e-05
0.3584326466 	0.009903952495 	-0.00104715623 	-1.306003904e-07 	0.01137227353 	-4.73635599e-07 	2.167871411e-05
0.35904667 	0.00988650324 	-0.0009536000507 	-5.663617657e-08 	0.01156972485 	-2.267061805e-07 	2.205511121e-05
0.3595770964 	0.009877464621 	-0.000878069447 	6.09609702e-07 	0.01174137141 	1.244756888e-06 	2.238231724e-05
0.3596716997 	0.009875846034 	-0.0008645643747 	-1.003949428e-08 	0.01177206139 	-4.000415982e-08 	2.244082088e-05
0.3603070346 	0.00987042693 	-0.0007793697996 	-7.293397916e-08 	0.01197822158 	-3.164370054e-07 	2.28338195e-05
0.3609539542 	0.009868828495 	-0.0006973413453 	-1.302508126e-07 	0.01218707538 	-6.097951469e-07 	2.323195289e-05
0.3616126648 	0.009869970845 	-0.0006179661169 	-1.83107585e-07 	0.01239788267 	-9.178465706e-07 	2.363381019e-05
0.3622833765 	0.009872955741 	-0.0005408053635 	-2.324099043e-07 	0.01261005538 	-1.238847934e-06 	2.403827034e-05
0.3629663027 	0.009877031579 	-0.0004654804377 	-2.789008149e-07 	0.01282312469 	-1.571426821e-06 	2.444443967e-05
0.3636616609 	0.009881565145 	-0.0003916582643 	-3.231999995e-07 	0.01303671117 	-1.914493687e-06 	2.485159485e-05
0.364369672 	0.009886024957 	-0.0003190645691 	-3.658332861e-07 	0.01325060047 	-2.267172802e-06 	2.52593273e-05
0.3650905608 	0.009889941662 	-0.000247382556 	-4.072626858e-07 	0.01346442365 	-2.62875462e-06 	2.566693371e-05
0.3658245562 	0.009892949933 	-0.0001761907285 	-4.478909094e-07 	0.01367863065 	-2.998792237e-06 	2.60752718e-05
0.3665815357 	0.009894747592 	-0.000104892858 	-4.888143794e-07 	0.01389480899 	-3.382177947e-06 	2.648736779e-05
0.3673642267 	0.009894967274 	-3.308808876e-05 	-5.305186308e-07 	0.01411260725 	-3.779777369e-06 	2.690255182e-05
0.3681610793 	0.009893332314 	3.89048329e-05 	-5.725001164e-07 	0.0143302308 	-4.184609389e-06 	2.731740279e-05
0.3689723428 	0.009889653184 	0.0001108962015 	-6.151851315e-07 	0.01454688426 	-4.596104871e-06 	2.77304045e-05
0.369798271 	0.009883735349 	0.0001831169931 	-6.589536674e-07 	0.0147624288 	-5.013876377e-06 	2.814129229e-05
0.3706391218 	0.009875430788 	0.0002557296768 	-7.041961435e-07 	0.01497684989 	-5.437496073e-06 	2.855003849e-05
0.3714951578 	0.00986461363 	0.0003289073452 	-7.513714128e-07 	0.01519008531 	-5.866273395e-06 	2.895652446e-05
0.372366646 	0.009851181356 	0.0004028132597 	-7.72759301e-07 	0.01540212618 	-6.079960214e-06 	2.93607333e-05
0.3732538578 	0.009835052824 	0.0004775956005 	-7.173299777e-07 	0.01561306343 	-5.677027107e-06 	2.976283833e-05
0.3741570696 	0.009816181111 	0.0005533501583 	-6.631351185e-07 	0.0158230847 	-5.256043477e-06 	3.016319723e-05
0.3750765622 	0.009791325085 	0.0006405333431 	-6.262834943e-07 	0.01605821916 	-4.819492145e-06 	3.061142886e-05
0.376486773 	0.009758048676 	0.0007500631228 	-5.278868461e-07 	0.01632870721 	-3.709261482e-06 	3.112705427e-05
0.3779110756 	0.009733155443 	0.0008646234566 	-3.501499671e-07 	0.01653968315 	-2.135717561e-06 	3.152923306e-05
0.3793496129 	0.009727415913 	0.0009683800969 	-2.265914019e-07 	0.01663896218 	-1.272094518e-06 	3.171848648e-05
0.3808025294 	0.009727730153 	0.001066253937 	-1.495695593e-07 	0.01669533923 	-9.438152336e-07 	3.18259568e-05
0.3823059562 	0.009727342733 	0.001160109362 	-7.685006506e-08 	0.01674610027 	-6.274507166e-07 	3.192272145e-05
0.3838280091 	0.009726587728 	0.001248262151 	-2.710414469e-08 	0.01679166424 	-3.256301297e-07 	3.200957905e-05
0.3853651093 	0.00972558577 	0.001329803259 	-1.626318721e-09 	0.01683237675 	-3.860112939e-08 	3.20871884e-05
0.3855803392 	0.009725392854 	0.001340199044 	4.230896902e-07 	0.01683735162 	-1.546279908e-07 	3.209667188e-05
0.3869151756 	0.009724181349 	0.001404873398 	-7.333797622e-09 	0.01686830058 	-2.330446099e-07 	3.215566921e-05
0.3884802461 	0.009722496084 	0.001473809639 	6.473370746e-09 	0.01690004599 	-4.903659939e-07 	3.221618477e-05
0.3900608389 	0.009720598252 	0.001536947531 	4.357453676e-08 	0.01692813606 	-7.342564961e-07 	3.226973226e-05
0.3916571133 	0.009718589189 	0.001594575506 	1.025229539e-07 	0.01695316912 	-9.657108664e-07 	3.231745223e-05
0.3932692312 	0.009716446742 	0.001647291676 	1.814090358e-07 	0.01697538536 	-1.186003025e-06 	3.235980255e-05
0.3948973565 	0.009714310457 	0.001695440602 	2.779579917e-07 	0.01699550496 	-1.39623398e-06 	3.239815611e-05
0.3965690669 	0.009712287906 	0.001739653809 	3.910064782e-07 	0.01701419542 	-1.601513407e-06 	3.243378533e-05
0.3982718105 	0.009710314751 	0.001780579764 	5.177603372e-07 	0.01703143525 	-1.800689326e-06 	3.246664923e-05
0.3999912797 	0.009708514741 	0.0018181645 	6.404002436e-07 	0.01704756404 	-1.949945752e-06 	3.249739519e-05
0.4017276483 	0.009706962787 	0.001852738822 	6.17817678e-07 	0.01706290978 	-1.68615933e-06 	3.252664843e-05
0.4034810924 	0.009705697462 	0.001884788298 	5.754609793e-07 	0.01707773554 	-1.433865152e-06 	3.255491045e-05
0.4052517911 	0.009704782672 	0.001914675763 	5.162276259e-07 	0.01709234767 	-1.191791362e-06 	3.258276524e-05
0.4070399258 	0.009704205135 	0.001942881525 	4.429406211e-07 	0.0171068179 	-9.588872173e-07 	3.261034952e-05
0.4088456808 	0.009704003204 	0.001969707568 	3.581559043e-07 	0.01712138602 	-7.341336766e-07 	3.263812039e-05
0.4106892378 	0.009704303406 	0.001995404535 	2.627696047e-07 	0.01713655349 	-5.139099667e-07 	3.266703381e-05
0.4125745154 	0.009705060059 	0.002020524718 	1.584305128e-07 	0.01715223134 	-2.974840767e-07 	3.269692015e-05
0.4144781776 	0.009706274541 	0.002045092877 	4.826809768e-08 	0.01716838261 	-8.749685305e-08 	3.272770895e-05
0.4152956098 	0.00970700804 	0.002055265367 	2.196785163e-07 	0.01717552972 	-1.078614864e-06 	3.274133334e-05
0.4163989494 	0.009707988648 	0.00206900524 	6.498424959e-08 	0.0171851453 	-1.166316658e-07 	3.275966331e-05
0.4183374299 	0.0097102204 	0.002092512032 	1.809172591e-07 	0.01720259168 	-3.153713114e-07 	3.279292096e-05
0.4202949142 	0.009713035977 	0.002115717639 	2.996832268e-07 	0.01722091594 	-5.091998706e-07 	3.282785208e-05
0.4222716086 	0.009716340545 	0.002138955188 	4.20589439e-07 	0.01723987261 	-6.986175697e-07 	3.286398877e-05
0.4242727255 	0.009720308415 	0.002162001856 	5.433629087e-07 	0.01726004807 	-8.844281976e-07 	3.29024488e-05
0.4263330869 	0.009724984981 	0.002185242327 	6.700193148e-07 	0.017281552 	-1.07037264e-06 	3.294344127e-05
0.4284134725 	0.009730224229 	0.002208898081 	7.975326235e-07 	0.01730391725 	-1.252530925e-06 	3.298607566e-05
0.4305141024 	0.009736113734 	0.002232497142 	9.255643005e-07 	0.01732739433 	-1.431011137e-06 	3.303082949e-05
0.4326352002 	0.009742663678 	0.002256165698 	9.80839151e-07 	0.01735199938 	-1.494625987e-06 	3.307773357e-05
0.4347769937 	0.009749841865 	0.002280020178 	8.623781806e-07 	0.01737763972 	-1.296432176e-06 	3.312661117e-05
0.4369397142 	0.009757663018 	0.002304051632 	7.427751102e-07 	0.01740440268 	-1.102543443e-06 	3.317762881e-05
0.4391442892 	0.009766270133 	0.002328240248 	6.208279759e-07 	0.01743271066 	-9.104122113e-07 	3.323159169e-05
0.4413946634 	0.00977561618 	0.002352909796 	4.966607122e-07 	0.017462362 	-7.19855143e-07 	3.328811538e-05
0.443666834 	0.00978562474 	0.002377915241 	3.720391513e-07 	0.01749315045 	-5.332657756e-07 	3.334680672e-05
0.4459610492 	0.009796334641 	0.002403000033 	2.470311003e-07 	0.01752521127 	-3.503422699e-07 	3.340792356e-05
0.448277562 	0.009807713718 	0.002428308546 	1.217309736e-07 	0.01755843212 	-1.708948284e-07 	3.347125174e-05
0.4505459865 	0.009819394143 	0.002453083489 	1.310747214e-08 	0.01759180509 	-6.976077487e-08 	3.353486989e-05
0.4506165593 	0.009819757352 	0.00245385382 	3.747281618e-09 	0.01759284193 	-5.268949682e-09 	3.353684639e-05
0.4529933429 	0.009832579849 	0.002479525038 	1.287276878e-07 	0.01762880822 	-1.793275503e-07 	3.360540814e-05
0.4554208951 	0.009846201322 	0.002505684469 	2.553473066e-07 	0.01766626415 	-3.52498934e-07 	3.367680956e-05
0.4578719627 	0.009860498824 	0.002532252781 	3.817845631e-07 	0.01770489615 	-5.224807252e-07 	3.375045289e-05
0.4603468233 	0.00987551542 	0.002558884784 	5.079740582e-07 	0.01774489521 	-6.893728823e-07 	3.382670221e-05
0.4628457593 	0.009891156228 	0.002585863872 	6.339170025e-07 	0.01778594411 	-8.534133633e-07 	3.390495282e-05
0.4653690586 	0.009907537855 	0.002612969481 	7.595206974e-07 	0.01782847845 	-1.014687625e-06 	3.39860351e-05
0.4679520536 	0.009924802687 	0.002640411181 	8.868041683e-07 	0.01787277851 	-1.175726432e-06 	3.407048332e-05
0.470569172 	0.009942787786 	0.002668474923 	1.014070154e-06 	0.01791831614 	-1.334656995e-06 	3.41572907e-05
0.4732116477 	0.009961473423 	0.002696699474 	9.559309518e-07 	0.01796519512 	-1.249294532e-06 	3.424665507e-05
0.4758797916 	0.009980796389 	0.002725229199 	8.341300322e-07 	0.01801319902 	-1.082777749e-06 	3.433816385e-05
0.478573921 	0.01000082999 	0.002753961518 	7.128104314e-07 	0.01806260617 	-9.193496838e-07 	3.44323476e-05
0.4813208668 	0.01002172709 	0.002783019106 	5.905694376e-07 	0.01811374759 	-7.568741904e-07 	3.452983737e-05
0.4841109496 	0.01004339055 	0.002812698049 	4.682335041e-07 	0.01816623752 	-5.96437903e-07 	3.462989776e-05
0.4869280722 	0.01006575378 	0.002842664324 	3.467553135e-07 	0.01822004271 	-4.391287866e-07 	3.473246541e-05
0.4897725782 	0.01008873105 	0.002872991885 	2.261646009e-07 	0.01827491941 	-2.848304763e-07 	3.483707565e-05
0.4926448178 	0.01011244182 	0.002903528815 	1.064682223e-07 	0.01833128807 	-1.33385368e-07 	3.494452997e-05
0.4952388018 	0.01013420036 	0.00293092438 	5.483766821e-08 	0.01838268135 	-2.388533136e-07 	3.504249986e-05
0.4955778201 	0.01013704404 	0.002934501074 	1.368622884e-08 	0.01838939518 	-1.727854952e-08 	3.505529828e-05
0.4985460505 	0.01016236504 	0.002966102698 	1.311203144e-07 	0.01844869572 	-1.647570285e-07 	3.516834159e-05
0.50154319 	0.01018834415 	0.002998033751 	2.472279386e-07 	0.01850920517 	-3.092681915e-07 	3.528368942e-05
0.5045696182 	0.01021497497 	0.003030334601 	3.619932761e-07 	0.01857089697 	-4.509590628e-07 	3.540129114e-05
0.5076367908 	0.01024242287 	0.003062976776 	4.758934708e-07 	0.0186342037 	-5.905446015e-07 	3.552197136e-05
0.5107623923 	0.01027073312 	0.003096281678 	5.895125313e-07 	0.01869901276 	-7.288087886e-07 	3.564551544e-05
0.5139184742 	0.01029975911 	0.00313017619 	7.013739594e-07 	0.01876499379 	-8.641791189e-07 	3.577129362e-05
0.5171054487 	0.01032939226 	0.003164530946 	8.114724603e-07 	0.01883197684 	-9.967745907e-07 	3.589898194e-05
0.520325042 	0.01035979875 	0.003199227281 	9.19791527e-07 	0.01890045936 	-1.126761919e-06 	3.602952865e-05
0.523612288 	0.01039114164 	0.00323459725 	1.027667171e-06 	0.01897054836 	-1.255653249e-06 	3.616313776e-05
0.5269316876 	0.01042322841 	0.003270762182 	9.398810616e-07 	0.01904168181 	-1.145931114e-06 	3.62987379e-05
0.5302836887 	0.0104559248 	0.003307440482 	8.350503588e-07 	0.01911375367 	-1.016270754e-06 	3.643612689e-05
0.533669638 	0.01048940281 	0.003344552149 	7.319994502e-07 	0.01918722582 	-8.89586781e-07 	3.657618522e-05
0.5371230183 	0.01052384203 	0.003382413732 	6.295922301e-07 	0.01926220893 	-7.641877615e-07 	3.671912387e-05
0.5406103399 	0.01055902611 	0.003421195772 	5.294084686e-07 	0.01933805706 	-6.421161694e-07 	3.686371149e-05
0.5441320894 	0.01059486541 	0.003460523765 	4.314835794e-07 	0.0194148622 	-5.23151637e-07 	3.701012344e-05
0.5476960233 	0.01063154753 	0.003500455604 	3.355386947e-07 	0.01949295969 	-4.068397804e-07 	3.715899895e-05
0.5513203417 	0.01066917277 	0.00354127295 	2.411863628e-07 	0.01957227974 	-2.925448979e-07 	3.731020501e-05
0.5549805169 	0.01070752714 	0.003583045637 	1.495048162e-07 	0.0196522754 	-1.815023151e-07 	3.746269899e-05
0.5586770766 	0.01074661965 	0.003625418198 	6.050545646e-08 	0.01973325922 	-7.355224569e-08 	3.761707665e-05
0.5612874305 	0.01077447852 	0.003655474466 	2.223809656e-07 	0.01979041476 	-6.326115148e-07 	3.7726031e-05
0.5624282509 	0.01078665419 	0.003668598345 	2.577693448e-08 	0.01981539141 	-3.182297493e-08 	3.777364344e-05
0.5662275028 	0.01082755538 	0.003712813336 	1.08097544e-07 	0.01989824986 	-1.337469304e-07 	3.793159467e-05
0.5700647233 	0.01086919376 	0.003757892936 	1.873470575e-07 	0.01998171578 	-2.324293447e-07 	3.80907039e-05
0.5739448569 	0.01091170726 	0.003803747671 	2.636548459e-07 	0.02006609942 	-3.281506499e-07 	3.825156259e-05
0.5778866303 	0.01095523342 	0.00385066997 	3.372898113e-07 	0.02015131072 	-4.21334771e-07 	3.841399899e-05
0.5818679746 	0.01099956779 	0.003898737506 	4.074291511e-07 	0.02023680508 	-5.111312595e-07 	3.857697502e-05
0.5858894948 	0.01104473893 	0.00394760132 	4.741042893e-07 	0.02032295212 	-5.976421843e-07 	3.874119521e-05
0.5899727857 	0.0110909751 	0.003997547233 	5.377143373e-07 	0.02040977956 	-6.814300339e-07 	3.890671244e-05
0.5941006535 	0.01113811181 	0.004048777219 	5.975135107e-07 	0.02049668246 	-7.617462052e-07 	3.907237352e-05
0.5982704142 	0.01118611151 	0.004100916189 	6.534883589e-07 	0.0205839428 	-8.385748497e-07 	3.923871598e-05
0.6024979472 	0.0112351961 	0.004154173026 	7.059022511e-07 	0.02067159963 	-9.123031794e-07 	3.940581427e-05
0.6067750414 	0.01128526161 	0.004208776855 	7.542415985e-07 	0.02075911524 	-9.824150457e-07 	3.957264334e-05
0.6110958307 	0.01133625297 	0.00426440531 	7.98453508e-07 	0.02084668682 	-1.048812995e-06 	3.973957912e-05
0.6154737333 	0.01138837155 	0.004321212084 	8.387427458e-07 	0.02093432935 	-1.11177082e-06 	3.990665013e-05
0.6199031021 	0.01144153691 	0.004379414668 	8.746926931e-07 	0.02102153076 	-1.170838189e-06 	4.007288026e-05
0.6243780584 	0.01149570244 	0.004438709358 	8.403997587e-07 	0.02110848487 	-1.13678137e-06 	4.023863897e-05
0.6289117321 	0.01155106155 	0.004499259234 	7.877001049e-07 	0.02119513462 	-1.077449381e-06 	4.040381747e-05
0.6334968048 	0.01160752428 	0.004561224333 	7.379970295e-07 	0.02128098852 	-1.021577887e-06 	4.056747887e-05
0.6381294517 	0.01166507486 	0.004624308253 	6.913049157e-07 	0.0213662815 	-9.691221062e-07 	4.073007099e-05
0.6428238051 	0.01172389137 	0.004688736316 	6.473719295e-07 	0.021450813 	-9.197492047e-07 	4.089121153e-05
0.6475684204 	0.01178387222 	0.004754525369 	6.064634571e-07 	0.02153423401 	-8.739267712e-07 	4.105023514e-05
0.6523649443 	0.01184506332 	0.004821463377 	5.684420022e-07 	0.02161672828 	-8.314329635e-07 	4.120749215e-05
0.6572223575 	0.01190739661 	0.004889607843 	5.332532002e-07 	0.02169771967 	-7.921900097e-07 	4.136188426e-05
0.6620766355 	0.01197021276 	0.004958184031 	5.01300019e-07 	0.02177649161 	-7.568258871e-07 	4.151204546e-05
0.6668799146 	0.01203306226 	0.005026529159 	4.725425686e-07 	0.02185249789 	-7.25301753e-07 	4.165693456e-05
0.6716326517 	0.01209576646 	0.005094599499 	4.4686462e-07 	0.0219252773 	-6.97535919e-07 	4.179567235e-05
0.6763304893 	0.01215824765 	0.005162155341 	4.240084367e-07 	0.02199508844 	-6.732538763e-07 	4.192875178e-05
0.680980885 	0.01222062731 	0.005229284218 	4.036114523e-07 	0.02206191605 	-6.520418207e-07 	4.205614379e-05
0.6855796658 	0.01228280847 	0.005296007107 	3.855663651e-07 	0.02212559197 	-6.338857648e-07 	4.217752778e-05
0.690125814 	0.01234475318 	0.005362098272 	3.696077913e-07 	0.02218644627 	-6.184518921e-07 	4.229353299e-05
0.6946265976 	0.01240657966 	0.005427693157 	3.554710146e-07 	0.02224439798 	-6.054436463e-07 	4.240400507e-05
0.6990762349 	0.01246817027 	0.005492738094 	3.430565765e-07 	0.02229940191 	-5.948088966e-07 	4.250885784e-05
0.7034757701 	0.01252952883 	0.005557081785 	3.321442104e-07 	0.02235174088 	-5.862317559e-07 	4.260863047e-05
0.7078302603 	0.01259075243 	0.005620865763 	3.225807433e-07 	0.02240130251 	-5.795487998e-07 	4.27031087e-05
0.7121354456 	0.01265173095 	0.005684009455 	3.142729965e-07 	0.02244813085 	-5.746702843e-07 	4.279237654e-05
0.7163924516 	0.012712498 	0.005746419878 	3.070273812e-07 	0.02249246212 	-5.71302977e-07 	4.287688425e-05
0.7206051784 	0.01277314564 	0.005808227659 	3.007234041e-07 	0.02253419497 	-5.693024558e-07 	4.295643866e-05
0.7247704865 	0.01283357674 	0.005869370429 	2.952965122e-07 	0.02257338133 	-5.685816729e-07 	4.303113875e-05
0.7288890892 	0.01289382466 	0.005929769869 	2.906109975e-07 	0.02261025384 	-5.688973313e-07 	4.310142801e-05
0.7329646301 	0.01295400445 	0.005989552 	2.865520676e-07 	0.02264473943 	-5.700818911e-07 	4.316716713e-05
0.7369945217 	0.01301403743 	0.006048698357 	2.830582872e-07 	0.02267684418 	-5.720449228e-07 	4.322836771e-05
0.7409793914 	0.01307392591 	0.006107112949 	2.800315539e-07 	0.02270682758 	-5.7457179e-07 	4.32855244e-05
0.7449217639 	0.01313381207 	0.006164909416 	2.773852846e-07 	0.02273465904 	-5.77504359e-07 	4.33385789e-05
0.7488205855 	0.01319365289 	0.006222121923 	2.750999016e-07 	0.02276028841 	-5.807908255e-07 	4.338743561e-05
0.7526760103 	0.01325341199 	0.006278642669 	2.73120098e-07 	0.02278398512 	-5.842563284e-07 	4.343260812e-05
0.7564895149 	0.01331324031 	0.006334558915 	2.713738449e-07 	0.02280577462 	-5.877384738e-07 	4.347414497e-05
0.7602614981 	0.01337315087 	0.006389944974 	2.698572132e-07 	0.02282558201 	-5.911944459e-07 	4.351190336e-05
0.763991624 	0.01343308112 	0.006444718138 	2.685498497e-07 	0.0228436142 	-5.944979255e-07 	4.354627771e-05
0.767680541 	0.01349313755 	0.00649890576 	2.674055879e-07 	0.02285999005 	-5.975015807e-07 	4.357749464e-05
0.7713298015 	0.013553411 	0.006552601454 	2.664113985e-07 	0.02287466326 	-6.001280949e-07 	4.360546586e-05
0.7749386674 	0.01361385616 	0.006605795258 	2.655725946e-07 	0.0228876986 	-6.023112136e-07 	4.363031483e-05
0.7785076447 	0.01367448369 	0.006658438327 	2.648776895e-07 	0.02289931377 	-6.039322012e-07 	4.365245659e-05
0.7820377123 	0.01373543143 	0.006710612442 	2.642998934e-07 	0.02290952536 	-6.048791912e-07 	4.367192272e-05
0.7855292473 	0.01379672455 	0.006762373179 	2.638573353e-07 	0.02291831036 	-6.051210947e-07 	4.368866937e-05
0.7889822604 	0.01385831544 	0.006813672969 	2.635609018e-07 	0.02292583819 	-6.045780592e-07 	4.37030195e-05
0.7923972207 	0.01392027621 	0.006864518825 	2.634057477e-07 	0.02293225309 	-6.031626497e-07 	4.371524807e-05
0.7957751119 	0.01398271863 	0.006914989853 	2.63387257e-07 	0.02293754501 	-6.008047861e-07 	4.372533595e-05
0.799115918 	0.01404563916 	0.006965109635 	2.635302582e-07 	0.02294174265 	-5.974839672e-07 	4.373333782e-05
0.8024199552 	0.01410900972 	0.007014837604 	2.638479038e-07 	0.02294502619 	-5.931375635e-07 	4.373959716e-05
0.8056876609 	0.01417291786 	0.007064201451 	2.643341278e-07 	0.02294749691 	-5.87698674e-07 	4.374430703e-05
0.808919881 	0.01423745299 	0.007113268182 	2.649874169e-07 	0.02294914429 	-5.81119005e-07 	4.37474474e-05
0.8121165911 	0.0143026002 	0.007162043905 	2.570135131e-07 	0.02295003133 	-5.543735659e-07 	4.374913834e-05
0.815278181 	0.01436833697 	0.007210497661 	2.458867255e-07 	0.02295032179 	-5.200882216e-07 	4.374969204e-05
0.8184050606 	0.01443472892 	0.007258648019 	2.353334994e-07 	0.02295011666 	-4.8656934e-07 	4.374930102e-05
0.8214979011 	0.01450184487 	0.007306544269 	2.253173843e-07 	0.02294942346 	-4.538693448e-07 	4.374797958e-05
0.824556818 	0.01456966154 	0.0073541855 	2.158126884e-07 	0.02294831498 	-4.22050625e-07 	4.37458665e-05
0.8275821714 	0.01463814184 	0.00740154241 	2.068145939e-07 	0.02294693851 	-3.912144739e-07 	4.374324257e-05
0.8305743473 	0.0147073217 	0.007448620559 	1.983002113e-07 	0.0229453999 	-3.614361421e-07 	4.374030955e-05
0.8335338579 	0.01477726939 	0.007495463122 	1.902196943e-07 	0.0229437074 	-3.327377621e-07 	4.373708317e-05
0.8364609812 	0.01484797996 	0.007542084148 	1.825006465e-07 	0.02294189312 	-3.050874146e-07 	4.373362466e-05
0.8393560156 	0.01491940207 	0.00758845556 	1.750751717e-07 	0.02294008318 	-2.784487959e-07 	4.373017441e-05
0.8422193257 	0.01499152368 	0.007634562888 	1.678615175e-07 	0.02293839527 	-2.527621993e-07 	4.372695678e-05
0.8450513006 	0.01506435594 	0.00768041167 	1.607819547e-07 	0.02293689651 	-2.279687423e-07 	4.372409974e-05
0.8478523485 	0.01513786173 	0.007725998963 	1.537865436e-07 	0.0229356376 	-2.040521232e-07 	4.37216999e-05
0.8506227078 	0.01521194422 	0.007771283274 	1.468994135e-07 	0.02293474961 	-1.811354209e-07 	4.372000714e-05
0.8533627237 	0.01528656035 	0.007816250449 	1.402193502e-07 	0.02293431133 	-1.594993237e-07 	4.371917166e-05
0.8560727368 	0.01536176773 	0.007860937746 	1.338977485e-07 	0.02293429455 	-1.395437511e-07 	4.371913966e-05
0.8587531258 	0.01543774905 	0.00790545133 	1.280877925e-07 	0.0229345013 	-1.216852149e-07 	4.371953379e-05
0.861404197 	0.01551472884 	0.007949922688 	1.228649159e-07 	0.02293464053 	-1.061826522e-07 	4.37197992e-05
0.8640262397 	0.01559292297 	0.007994457382 	1.18162973e-07 	0.02293447365 	-9.296427178e-08 	4.371948108e-05
0.8666195773 	0.01567248725 	0.008039119084 	1.137154695e-07 	0.02293384029 	-8.148633158e-08 	4.371827373e-05
0.8691845291 	0.0157533512 	0.008083851774 	1.090890182e-07 	0.02293284123 	-7.07795603e-08 	4.371636924e-05
0.8717214379 	0.01583509917 	0.00812844044 	1.03808248e-07 	0.0229319307 	-5.97208694e-08 	4.371463352e-05
0.8742305906 	0.01591690015 	0.008172500326 	9.754112636e-08 	0.0229319514 	-4.747075954e-08 	4.371467298e-05
0.8767122763 	0.01599769534 	0.008215564931 	9.028130964e-08 	0.02293397333 	-3.391544094e-08 	4.371852733e-05
0.8791667987 	0.01607660684 	0.008257286884 	8.239857906e-08 	0.02293880037 	-1.98562946e-08 	4.372772902e-05
0.881594458 	0.01615336715 	0.008297615124 	7.454474746e-08 	0.02294652383 	-6.826054059e-09 	4.374245207e-05
0.8839955611 	0.0162286848 	0.008336927879 	6.742630931e-08 	0.02295615918 	3.456106969e-09 	4.376081973e-05
0.8863703967 	0.01630425187 	0.008376005002 	6.153337675e-08 	0.0229656663 	9.768427433e-09 	4.377894295e-05
0.8887192369 	0.0163823593 	0.008415817052 	5.696194794e-08 	0.02297247245 	1.188062484e-08 	4.379191737e-05
0.891042368 	0.01646515551 	0.008457197014 	5.340281684e-08 	0.02297427461 	1.059554521e-08 	4.379535278e-05
0.8933400725 	0.01655369413 	0.00850045846 	5.033358266e-08 	0.0229700075 	7.289352352e-09 	4.378721847e-05
0.8956126298 	0.01664724926 	0.008545161122 	4.728733064e-08 	0.02296051226 	3.247385289e-09 	4.376911791e-05
0.8978603256 	0.01674324437 	0.008590168705 	4.400932782e-08 	0.02294848138 	-7.379218354e-10 	4.374618372e-05
0.900083417 	0.01683789769 	0.008633976823 	4.04103465e-08 	0.02293770554 	-4.235220825e-09 	4.372564197e-05