0 	0 	0 	0 	1.347390426 	-5.504226508e-14 	-8.271134115e-20 	0 	0 	0
0.0003175062148 	0 	0 	0 	1.347391928 	-5.141068983e-05 	1.498587542e-09 	0 	0 	0
0.0006350119572 	0 	0 	0 	1.347397288 	-9.675802488e-05 	2.658599395e-09 	0 	0 	0
0.0009525172266 	0 	0 	0 	1.347407441 	-0.0001417074503 	3.661516154e-09 	0 	0 	0
0.001270022022 	0 	0 	0 	1.347422085 	-0.0001883233552 	4.559250766e-09 	0 	0 	0
0.001587526344 	0 	0 	0 	1.347441052 	-0.0002349497334 	5.305952351e-09 	0 	0 	0
0.001905030191 	0 	0 	0 	1.347464331 	-0.0002816491812 	5.902839523e-09 	0 	0 	0
0.002222533564 	0 	0 	0 	1.347491931 	-0.000328364964 	6.348351527e-09 	0 	0 	0
0.00254003646 	0 	0 	0 	1.347523872 	-0.0003750979106 	6.642398608e-09 	0 	0 	0
0.002857538881 	0 	0 	0 	1.347560184 	-0.0004218366211 	6.784711593e-09 	0 	0 	0
0.003175040826 	0 	0 	0 	1.3476009 	-0.0004685751987 	6.775209469e-09 	0 	0 	0
0.003492542294 	0 	0 	0 	1.34764606 	-0.0005153091418 	6.613898498e-09 	0 	0 	0
0.003810043285 	0 	0 	0 	1.347695707 	-0.0005620352217 	6.300860044e-09 	0 	0 	0
0.0041275438 	0 	0 	0 	1.347749887 	-0.0006087507961 	5.836232879e-09 	0 	0 	0
0.004445043838 	0 	0 	0 	1.347808651 	-0.0006554536239 	5.220206357e-09 	0 	0 	0
0.004762543398 	0 	0 	0 	1.347872053 	-0.0007021417266 	4.45301544e-09 	0 	0 	0
0.005080042481 	0 	0 	0 	1.347940149 	-0.0007488133093 	3.534937428e-09 	0 	0 	0
0.005397541087 	0 	0 	0 	1.348012997 	-0.0007954667056 	2.466289501e-09 	0 	0 	0
0.005715039215 	0 	0 	0 	1.348090658 	-0.000842100343 	1.247426551e-09 	0 	0 	0
0.00600461998 	0 	0 	0 	1.348165938 	-0.0008846140567 	7.442406267e-10 	0 	0 	0
0.006032536866 	0 	0 	0 	1.34817318 	-0.0008887127857 	1.342746726e-10 	0 	0 	0
0.00635003404 	0 	0 	0 	1.348260475 	-0.0009353032434 	1.686760374e-09 	0 	0 	0
0.006667530737 	0 	0 	0 	1.348352777 	-0.0009818696672 	3.391564409e-09 	0 	0 	0
0.006985026957 	0 	0 	0 	1.348450152 	-0.001028410688 	5.248190051e-09 	0 	0 	0
0.0073025227 	0 	0 	0 	1.348552668 	-0.001074924969 	7.256111988e-09 	0 	0 	0
0.007620017967 	0 	0 	0 	1.34866039 	-0.0011214112 	9.414778314e-09 	0 	0 	0
0.007937512757 	0 	0 	0 	1.348773386 	-0.001167868096 	1.172361303e-08 	0 	0 	0
0.008255007072 	0 	0 	0 	1.348891723 	-0.001214294406 	1.418201816e-08 	0 	0 	0
0.008572500911 	0 	0 	0 	1.349015464 	-0.001260688866 	1.678937533e-08 	0 	0 	0
0.008889994275 	0 	0 	0 	1.349144674 	-0.001307050291 	1.954504734e-08 	0 	0 	0
0.009207487165 	0 	0 	0 	1.349279413 	-0.001353377322 	2.244843591e-08 	0 	0 	0
0.00952497958 	0 	0 	0 	1.349439885 	-0.001406161208 	2.56154982e-08 	0 	0 	0
0.0100182887 	0 	0 	0 	1.34965058 	-0.001472040674 	3.053928282e-08 	0 	0 	0
0.01052086838 	0 	0 	0 	1.349897881 	-0.001545159542 	3.602577665e-08 	0 	0 	0
0.01103289284 	0 	0 	0 	1.350164284 	-0.001619550001 	4.198730404e-08 	0 	0 	0
0.01155453952 	0 	0 	0 	1.350450787 	-0.001695229483 	4.844408554e-08 	0 	0 	0
0.01208598925 	0 	0 	0 	1.350758408 	-0.001772213395 	5.541697644e-08 	0 	0 	0
0.01262742623 	0 	0 	0 	1.351088185 	-0.001850517779 	6.292765445e-08 	0 	0 	0
0.01317903811 	0 	0 	0 	1.351441176 	-0.001930158735 	7.099864414e-08 	0 	0 	0
0.01374101609 	0 	0 	0 	1.351818452 	-0.002011152462 	7.965339703e-08 	0 	0 	0
0.01431355496 	0 	0 	0 	1.352221094 	-0.002093515277 	8.891639415e-08 	0 	0 	0
0.01489685314 	0 	0 	0 	1.352650192 	-0.00217726368 	9.881326805e-08 	0 	0 	0
0.01549111282 	0 	0 	0 	1.353106837 	-0.002262414425 	1.093709416e-07 	0 	0 	0
0.01609653996 	0 	0 	0 	1.353592115 	-0.002348984592 	1.206177858e-07 	0 	0 	0
0.01671334441 	0 	0 	0 	1.354107108 	-0.002436991685 	1.325837958e-07 	0 	0 	0
0.01734173994 	0 	0 	0 	1.354652882 	-0.002526453712 	1.453007868e-07 	0 	0 	0
0.01798194435 	0 	0 	0 	1.355230483 	-0.002617389404 	1.588026102e-07 	0 	0 	0
0.01863417955 	0 	0 	0 	1.355840933 	-0.002709817897 	1.731253839e-07 	0 	0 	0
0.01929867159 	0 	0 	0 	1.356485221 	-0.002803759439 	1.883077013e-07 	0 	0 	0
0.01997565078 	0 	0 	0 	1.357164899 	-0.002899319124 	2.04399623e-07 	0 	0 	0
0.02066768554 	0 	0 	0 	1.357882007 	-0.002996660802 	2.214994953e-07 	0 	0 	0
0.02137441279 	0 	0 	0 	1.358637407 	-0.003095785814 	2.396677998e-07 	0 	0 	0
0.02209442102 	0 	0 	0 	1.359430957 	-0.003196582383 	2.589277919e-07 	0 	0 	0
0.02282795978 	0 	0 	0 	1.360262985 	-0.003299019757 	2.79336147e-07 	0 	0 	0
0.0235752833 	0 	0 	0 	1.361134187 	-0.003403126233 	3.009608156e-07 	0 	0 	0
0.02433665059 	0 	0 	0 	1.362045197 	-0.003508932642 	3.238752481e-07 	0 	0 	0
0.02511232554 	0 	0 	0 	1.362996578 	-0.003616471497 	3.481585956e-07 	0 	0 	0
0.02590257698 	0 	0 	0 	1.363988828 	-0.003725777525 	3.738959662e-07 	0 	0 	0
0.02670767879 	0 	0 	0 	1.365022377 	-0.00383688766 	4.011786229e-07 	0 	0 	0
0.02752791001 	0 	0 	0 	1.366097592 	-0.003949841132 	4.301041237e-07 	0 	0 	0
0.02836355491 	0 	0 	0 	1.367214774 	-0.004064679502 	4.607764143e-07 	0 	0 	0
0.02921490309 	0 	0 	0 	1.368374168 	-0.004181446675 	4.933058555e-07 	0 	0 	0
0.03008224962 	0 	0 	0 	1.369575966 	-0.004300188887 	5.278091864e-07 	0 	0 	0
0.03096589509 	0 	0 	0 	1.370820317 	-0.004420954655 	5.644094235e-07 	0 	0 	0
0.03186614574 	0 	0 	0 	1.372107327 	-0.004543794695 	6.032356985e-07 	0 	0 	0
0.03278331357 	0 	0 	0 	1.373437079 	-0.004668761803 	6.444230343e-07 	0 	0 	0
0.03371771642 	0 	0 	0 	1.374809635 	-0.004795910715 	6.881120649e-07 	0 	0 	0
0.03466967814 	0 	0 	0 	1.376225048 	-0.004925297924 	7.344487062e-07 	0 	0 	0
0.03563952862 	0 	0 	0 	1.377683377 	-0.00505698147 	7.519011287e-07 	0 	0 	0
0.03662760398 	0 	0 	0 	1.379184696 	-0.005191020764 	7.514252428e-07 	0 	0 	0
0.03763424664 	0 	0 	0 	1.380729106 	-0.005327476048 	7.497088836e-07 	0 	0 	0
0.03865980544 	0 	0 	0 	1.382316747 	-0.00546640817 	7.466310503e-07 	0 	0 	0
0.03970463579 	0 	0 	0 	1.383948408 	-0.005607931766 	7.420735874e-07 	0 	0 	0
0.04077060731 	0 	0 	0 	1.385626646 	-0.005752302796 	7.358703141e-07 	0 	0 	0
0.04186083134 	0 	0 	0 	1.387352981 	-0.005899676556 	7.277615283e-07 	0 	0 	0
0.0429715425 	0 	0 	0 	1.389125679 	-0.00604992799 	7.177367183e-07 	0 	0 	0
0.04410312573 	0 	0 	0 	1.390943663 	-0.006202978636 	7.056011528e-07 	0 	0 	0
0.04525597321 	0 	0 	0 	1.392807587 	-0.006358886726 	6.911839855e-07 	0 	0 	0
0.04643048447 	0 	0 	0 	1.394718221 	-0.006517711293 	6.743078778e-07 	0 	0 	0
0.04762706656 	0 	0 	0 	1.396676467 	-0.006679508054 	6.547894833e-07 	0 	0 	0
0.04884613415 	0 	0 	0 	1.398683364 	-0.006844330869 	6.324400368e-07 	0 	0 	0
0.05008810974 	0 	0 	0 	1.4007401 	-0.007012230972 	6.070659079e-07 	0 	0 	0
0.05135342372 	0 	0 	0 	1.402848012 	-0.007183256723 	5.784691697e-07 	0 	0 	0
0.05264251461 	0 	0 	0 	1.405008599 	-0.007357453262 	5.464481577e-07 	0 	0 	0
0.05395582914 	0 	0 	0 	1.407223521 	-0.007534862214 	5.107980217e-07 	0 	0 	0
0.05529382243 	0 	0 	0 	1.409494608 	-0.00771552144 	4.713112694e-07 	0 	0 	0
0.05665695817 	0 	0 	0 	1.41182386 	-0.007899464555 	4.277782778e-07 	0 	0 	0
0.05804570875 	0 	0 	0 	1.41421345 	-0.008086719652 	3.799878429e-07 	0 	0 	0
0.05946055542 	0 	0 	0 	1.416666209 	-0.008277348818 	3.27730195e-07 	0 	0 	0
0.06090309825 	0 	0 	0 	1.419187801 	-0.00847161513 	2.707352689e-07 	0 	0 	0
0.06237874528 	0 	0 	0 	1.421783251 	-0.008669712881 	2.084864707e-07 	0 	0 	0
0.06388212207 	0 	0 	0 	1.424798278 	-0.008897390432 	1.416675052e-07 	0 	0 	0
0.06619002595 	0 	0 	0 	1.428599835 	-0.009180686263 	3.001482677e-08 	0 	0 	0
0.06678417274 	0 	0 	0 	1.429680579 	-0.009259879029 	1.707221691e-07 	0 	0 	0
0.06852367155 	0 	0 	0 	1.432843875 	-0.009491881988 	9.433951679e-08 	0 	0 	0
0.07088334599 	0 	0 	0 	1.437197588 	-0.009805293646 	2.304738622e-07 	0 	0 	0
0.07326933959 	0 	0 	0 	1.441667811 	-0.01012073141 	3.775799478e-07 	0 	0 	0
0.07568194589 	0 	0 	0 	1.446260966 	-0.01043796207 	5.356881952e-07 	0 	0 	0
0.07812146171 	0 	0 	0 	1.450983457 	-0.01075678121 	7.047948111e-07 	0 	0 	0
0.08058818718 	0 	0 	0 	1.455846581 	-0.01107728705 	8.849019031e-07 	0 	0 	0
0.08309238437 	0 	0 	0 	1.460862804 	-0.01139960535 	1.076756988e-06 	0 	0 	0
0.08562559687 	0 	0 	0 	1.466034339 	-0.01172319512 	1.279508968e-06 	0 	0 	0
0.08818706663 	0 	0 	0 	1.471362284 	-0.01204745726 	1.49288719e-06 	0 	0 	0
0.09077710884 	0 	0 	0 	1.476852475 	-0.01237208962 	1.716711707e-06 	0 	0 	0
0.09339604224 	0 	0 	0 	1.482511234 	-0.01269682318 	1.950781467e-06 	0 	0 	0
0.0960441891 	0 	0 	0 	1.488344849 	-0.01302137352 	2.194869191e-06 	0 	0 	0
0.09872187527 	0 	0 	0 	1.494360625 	-0.01334550919 	2.44873965e-06 	0 	0 	0
0.1014313185 	0 	0 	0 	1.500571173 	-0.01366924501 	2.71236904e-06 	0 	0 	0
0.1041800627 	0 	0 	0 	1.506987639 	-0.01399247169 	2.648590924e-06 	0 	0 	0
0.106959471 	0 	0 	0 	1.513610056 	-0.01431451932 	2.496938056e-06 	0 	0 	0
0.1097698856 	0 	0 	0 	1.520439535 	-0.01463478897 	2.334101638e-06 	0 	0 	0
0.1126116523 	0 	0 	0 	1.527482198 	-0.01495292524 	2.160306975e-06 	0 	0 	0
0.1154851208 	0 	0 	0 	1.534744149 	-0.01526856739 	1.975807165e-06 	0 	0 	0
0.1183906449 	0 	0 	0 	1.5422321 	-0.01558136932 	1.780878597e-06 	0 	0 	0
0.1213295478 	0 	0 	0 	1.549959264 	-0.01589121199 	1.575747014e-06 	0 	0 	0
0.1243110402 	0 	0 	0 	1.557938696 	-0.01619790768 	1.359901825e-06 	0 	0 	0
0.1273257958 	0 	0 	0 	1.566169611 	-0.01650072425 	1.13481428e-06 	0 	0 	0
0.130374186 	0 	0 	0 	1.57465213 	-0.01679897424 	9.008716988e-07 	0 	0 	0
0.133456586 	0 	0 	0 	1.583392711 	-0.01709219047 	6.585345242e-07 	0 	0 	0
0.1365733752 	0 	0 	0 	1.592397983 	-0.01737990274 	4.083067768e-07 	0 	0 	0
0.1397249372 	0 	0 	0 	1.601679001 	-0.0176617331 	1.507282551e-07 	0 	0 	0
0.1415503984 	0 	0 	0 	1.607151861 	-0.01781932227 	2.450301784e-06 	0 	0 	0
0.1429174397 	0 	0 	0 	1.611250939 	-0.01793742501 	1.16725916e-07 	0 	0 	0
0.1461502511 	0 	0 	0 	1.621121137 	-0.01820638656 	3.938856481e-07 	0 	0 	0
0.1494191327 	0 	0 	0 	1.631290687 	-0.01846770255 	6.762246199e-07 	0 	0 	0
0.1527244869 	0 	0 	0 	1.641764881 	-0.01872061981 	9.632041225e-07 	0 	0 	0
0.1560667205 	0 	0 	0 	1.652553086 	-0.0189644119 	1.254417355e-06 	0 	0 	0
0.1594462451 	0 	0 	0 	1.663669464 	-0.01919825558 	1.549574161e-06 	0 	0 	0
0.1628683427 	0 	0 	0 	1.675134483 	-0.01942115386 	1.848532311e-06 	0 	0 	0
0.1663338415 	0 	0 	0 	1.68696148 	-0.0196311919 	2.145137651e-06 	0 	0 	0
0.1698380094 	0 	0 	0 	1.699150106 	-0.01982619295 	2.458174702e-06 	0 	0 	0
0.1733812778 	0 	0 	0 	1.711690752 	-0.02001406356 	2.774568268e-06 	0 	0 	0
0.1769640831 	0 	0 	0 	1.724553764 	-0.0201939714 	3.047878349e-06 	0 	0 	0
0.1805868663 	0 	0 	0 	1.737700595 	-0.02035365736 	3.334610195e-06 	0 	0 	0
0.1842579472 	0 	0 	0 	1.751114168 	-0.02049989497 	3.647357558e-06 	0 	0 	0
0.1879717484 	0 	0 	0 	1.764784102 	-0.02063781973 	3.83197909e-06 	0 	0 	0
0.191726992 	0 	0 	0 	1.778701873 	-0.0207627176 	3.541555045e-06 	0 	0 	0
0.1955241403 	0 	0 	0 	1.792865957 	-0.02087392417 	3.248191956e-06 	0 	0 	0
0.199363661 	0 	0 	0 	1.807279004 	-0.02097090452 	2.952587571e-06 	0 	0 	0
0.2032506277 	0 	0 	0 	1.821948146 	-0.02105306755 	2.65501962e-06 	0 	0 	0
0.2071854895 	0 	0 	0 	1.836871078 	-0.02111970634 	2.356790753e-06 	0 	0 	0
0.211164263 	0 	0 	0 	1.852035819 	-0.02117008803 	2.059439599e-06 	0 	0 	0
0.215187438 	0 	0 	0 	1.867434505 	-0.02120353107 	1.764028997e-06 	0 	0 	0
0.21925551 	0 	0 	0 	1.883066457 	-0.02121938071 	1.471643715e-06 	0 	0 	0
0.2233732866 	0 	0 	0 	1.898934999 	-0.02121697056 	1.183072884e-06 	0 	0 	0
0.2275412827 	0 	0 	0 	1.915033886 	-0.02119562365 	8.998363449e-07 	0 	0 	0
0.2317557943 	0 	0 	0 	1.931347021 	-0.02115470806 	6.235509883e-07 	0 	0 	0
0.2360173404 	0 	0 	0 	1.94786177 	-0.02109364087 	3.554053185e-07 	0 	0 	0
0.2403264457 	0 	0 	0 	1.964573576 	-0.02101184595 	9.658393068e-08 	0 	0 	0
0.2420011333 	0 	0 	0 	1.97106116 	-0.02097230531 	8.216415984e-06 	0 	0 	0
0.2446898491 	0 	0 	0 	1.981479415 	-0.02090883684 	1.556571146e-07 	0 	0 	0
0.2491037402 	0 	0 	0 	1.998560725 	-0.02078414056 	3.979156473e-07 	0 	0 	0
0.253566893 	0 	0 	0 	2.015794105 	-0.02063740771 	6.267090874e-07 	0 	0 	0
0.2580798569 	0 	0 	0 	2.033161783 	-0.0204683998 	8.410862927e-07 	0 	0 	0
0.2626453758 	0 	0 	0 	2.050650166 	-0.02027692186 	1.040369375e-06 	0 	0 	0
0.2672670702 	0 	0 	0 	2.068239057 	-0.02006295434 	1.223824686e-06 	0 	0 	0
0.2719403471 	0 	0 	0 	2.085893669 	-0.01982680697 	1.390760531e-06 	0 	0 	0
0.2766657819 	0 	0 	0 	2.103579374 	-0.019568984 	1.541295497e-06 	0 	0 	0
0.2814442057 	0 	0 	0 	2.121268 	-0.01929009267 	1.675937561e-06 	0 	0 	0
0.2862825281 	0 	0 	0 	2.138928317 	-0.01899099178 	1.795763429e-06 	0 	0 	0
0.2911748522 	0 	0 	0 	2.156510192 	-0.01867309248 	1.901694988e-06 	0 	0 	0
0.2961217802 	0 	0 	0 	2.173961626 	-0.01833813519 	1.995769705e-06 	0 	0 	0
0.3011239213 	0 	0 	0 	2.191237021 	-0.01798804246 	2.080458303e-06 	0 	0 	0
0.3061879732 	0 	0 	0 	2.208288776 	-0.017625046 	2.158373827e-06 	0 	0 	0
0.311308694 	0 	0 	0 	2.225053751 	-0.01725198945 	2.232176265e-06 	0 	0 	0
0.3164865689 	0 	0 	0 	2.241469654 	-0.01687199696 	2.049787528e-06 	0 	0 	0
0.3217227834 	0 	0 	0 	2.25748264 	-0.01648826631 	1.865358534e-06 	0 	0 	0
0.3270225453 	0 	0 	0 	2.273040571 	-0.01610432231 	1.699587394e-06 	0 	0 	0
0.3323814607 	0 	0 	0 	2.288087874 	-0.01572445518 	1.55518356e-06 	0 	0 	0
0.3378001894 	0 	0 	0 	2.302579038 	-0.01534329709 	1.400901763e-06 	0 	0 	0
0.3432813454 	0 	0 	0 	2.316472601 	-0.01497385534 	1.325179492e-06 	0 	0 	0
0.3488268274 	0 	0 	0 	2.329668855 	-0.01463852421 	1.299344586e-06 	0 	0 	0
0.3544342057 	0 	0 	0 	2.342034308 	-0.01431433928 	1.18415837e-06 	0 	0 	0
0.3601041707 	0 	0 	0 	2.353524653 	-0.0139973403 	1.075128226e-06 	0 	0 	0
0.3658411601 	0 	0 	0 	2.364194003 	-0.01370652365 	9.879685726e-07 	0 	0 	0
0.3716430055 	0 	0 	0 	2.374122383 	-0.0134345578 	8.727640667e-07 	0 	0 	0
0.3775096084 	0 	0 	0 	2.383375153 	-0.01317334542 	7.500621084e-07 	0 	0 	0
0.3834432947 	0 	0 	0 	2.392000036 	-0.01291899001 	6.227284463e-07 	0 	0 	0
0.3894456619 	0 	0 	0 	2.400032305 	-0.01266907609 	4.926462583e-07 	0 	0 	0
0.3955150249 	0 	0 	0 	2.407500371 	-0.01242174304 	3.608149302e-07 	0 	0 	0
0.4016524909 	0 	0 	0 	2.41443184 	-0.01217525339 	2.280320321e-07 	0 	0 	0
0.40786168 	0 	0 	0 	2.420852191 	-0.0119280634 	9.543666173e-08 	0 	0 	0
0.4124316736 	0 	0 	0 	2.42516784 	-0.01174683149 	5.09735176e-06 	0 	0 	0
0.4141401732 	0 	0 	0 	2.426781323 	-0.01167910822 	3.700769579e-08 	0 	0 	0
0.4204887431 	0 	0 	0 	2.432237939 	-0.01142757216 	1.704389928e-07 	0 	0 	0
0.42691107 	0 	0 	0 	2.437240647 	-0.01117259208 	3.007427023e-07 	0 	0 	0
0.433405319 	0 	0 	0 	2.441805522 	-0.01091360152 	4.268529025e-07 	0 	0 	0
0.4399720525 	0 	0 	0 	2.445948267 	-0.01065017472 	5.482377548e-07 	0 	0 	0
0.4466144165 	0 	0 	0 	2.449684108 	-0.01038198464 	6.643288148e-07 	0 	0 	0
0.4533313103 	0 	0 	0 	2.45302648 	-0.01010889197 	7.744155799e-07 	0 	0 	0
0.4601231728 	0 	0 	0 	2.455988754 	-0.009830845411 	8.783282115e-07 	0 	0 	0
0.4669929419 	0 	0 	0 	2.458584739 	-0.009547849657 	9.758274896e-07 	0 	0 	0
0.4739396404 	0 	0 	0 	2.460828241 	-0.009260043002 	1.066586251e-06 	0 	0 	0
0.480963919 	0 	0 	0 	2.462734179 	-0.008967599098 	1.150776226e-06 	0 	0 	0
0.4880685652 	0 	0 	0 	2.464318343 	-0.008670701572 	1.228366379e-06 	0 	0 	0
0.4952525067 	0 	0 	0 	2.465593726 	-0.008370326887 	1.299398834e-06 	0 	0 	0
0.5024368632 	0 	0 	0 	2.466570183 	-0.008069396189 	1.363497977e-06 	0 	0 	0
0.5095432157 	0 	0 	0 	2.467265631 	-0.007770817707 	1.420186267e-06 	0 	0 	0
0.5165711572 	0 	0 	0 	2.467706158 	-0.007475557299 	1.470071416e-06 	0 	0 	0
0.5235220958 	0 	0 	0 	2.467916938 	-0.007183804259 	1.513750586e-06 	0 	0 	0
0.5303971102 	0 	0 	0 	2.467919992 	-0.006895743353 	1.55141975e-06 	0 	0 	0
0.5371962645 	0 	0 	0 	2.467734549 	-0.006611535475 	1.583484263e-06 	0 	0 	0
0.5439209063 	0 	0 	0 	2.467377342 	-0.006331285469 	1.610274831e-06 	0 	0 	0
0.5505718664 	0 	0 	0 	2.466862939 	-0.006055109248 	1.631800456e-06 	0 	0 	0
0.557149437 	0 	0 	0 	2.466204053 	-0.005783102256 	1.648267271e-06 	0 	0 	0
0.5636548124 	0 	0 	0 	2.465411716 	-0.005515335648 	1.659834334e-06 	0 	0 	0
0.5700888185 	0 	0 	0 	2.46449552 	-0.0052518767 	1.666396727e-06 	0 	0 	0
0.5764518278 	0 	0 	0 	2.463463834 	-0.004992790175 	1.668037319e-06 	0 	0 	0
0.5827448459 	0 	0 	0 	2.462323899 	-0.004738123627 	1.664841131e-06 	0 	0 	0
0.5889688122 	0 	0 	0 	2.461082001 	-0.004487921987 	1.65668753e-06 	0 	0 	0
0.5951240984 	0 	0 	0 	2.459743652 	-0.004242232636 	1.64360926e-06 	0 	0 	0
0.6012115237 	0 	0 	0 	2.458313609 	-0.004001090112 	1.62569342e-06 	0 	0 	0
0.6072321765 	0 	0 	0 	2.456795968 	-0.003764523571 	1.602893381e-06 	0 	0 	0
0.6131863918 	0 	0 	0 	2.455194339 	-0.003532568029 	1.575242471e-06 	0 	0 	0
0.6190749025 	0 	0 	0 	2.453511807 	-0.003305248024 	1.542879818e-06 	0 	0 	0
0.6248987045 	0 	0 	0 	2.451750968 	-0.003082580364 	1.505910787e-06 	0 	0 	0
0.630658315 	0 	0 	0 	2.449914058 	-0.002864585195 	1.464415647e-06 	0 	0 	0
0.6363543676 	0 	0 	0 	2.448002941 	-0.002651275879 	1.418630514e-06 	0 	0 	0
0.6419876414 	0 	0 	0 	2.446019087 	-0.00244265712 	1.368825687e-06 	0 	0 	0
0.6475589271 	0 	0 	0 	2.443963625 	-0.002238731248 	1.315233296e-06 	0 	0 	0
0.6530687325 	0 	0 	0 	2.441837398 	-0.002039498411 	1.258215412e-06 	0 	0 	0
0.6585177359 	0 	0 	0 	2.439640902 	-0.001844950437 	1.18363903e-06 	0 	0 	0
0.6639067345 	0 	0 	0 	2.437374288 	-0.001655073951 	1.104159658e-06 	0 	0 	0
0.6692363211 	0 	0 	0 	2.435037418 	-0.001469855796 	1.026108496e-06 	0 	0 	0
0.6745070939 	0 	0 	0 	2.432629852 	-0.00128928024 	9.499690315e-07 	0 	0 	0
0.6797197019 	0 	0 	0 	2.430150808 	-0.001113329238 	8.763993774e-07 	0 	0 	0
0.6848749064 	0 	0 	0 	2.427599177 	-0.0009419896357 	8.062641795e-07 	0 	0 	0
0.6899732317 	0 	0 	0 	2.424973568 	-0.0007752555637 	7.407597314e-07 	0 	0 	0
0.6950152948 	0 	0 	0 	2.42227229 	-0.0006131351595 	6.813216259e-07 	0 	0 	0
0.7000017166 	0 	0 	0 	2.419493331 	-0.0004556630403 	6.294717488e-07 	0 	0 	0
0.7049332 	0 	0 	0 	2.416634346 	-0.0003029105548 	5.871924329e-07 	0 	0 	0
0.7098102633 	0 	0 	0 	2.413692671 	-0.0001550234137 	5.570373361e-07 	0 	0 	0
0.714633506 	0 	0 	0 	2.410665274 	-1.226549694e-05 	5.427296233e-07 	0 	0 	0
0.7194035216 	0 	0 	0 	2.407548674 	0.0001248910777 	5.502509517e-07 	0 	0 	0
0.7241209511 	0 	0 	0 	2.404338959 	0.0002556620874 	5.893664774e-07 	0 	0 	0
0.7287863289 	0 	0 	0 	2.401032028 	0.0003788615324 	6.754125919e-07 	0 	0 	0
0.7334002218 	0 	0 	0 	2.397624194 	0.0004928886389 	8.275659734e-07 	0 	0 	0
0.7379631978 	0 	0 	0 	2.394113187 	0.0005960397315 	1.062216914e-06 	0 	0 	0
0.7424758414 	0 	0 	0 	2.390499097 	0.0006870940814 	1.382101284e-06 	0 	0 	0
0.7469387029 	0 	0 	0 	2.386784634 	0.0007657587086 	1.771649313e-06 	0 	0 	0
0.7513523141 	0 	0 	0 	2.382974307 	0.0008327015872 	2.204395224e-06 	0 	0 	0
0.7557172184 	0 	0 	0 	2.379072873 	0.0008892823243 	2.653716658e-06 	0 	0 	0
0.7600339544 	0 	0 	0 	2.375083679 	0.0009367391525 	3.07896063e-06 	0 	0 	0
0.7643030771 	0 	0 	0 	2.37100696 	0.0009753692993 	3.454836619e-06 	0 	0 	0
0.7685250874 	0 	0 	0 	2.366838776 	0.001007716427 	3.905863729e-06 	0 	0 	0
0.7727005051 	0 	0 	0 	2.362562878 	0.001042359807 	4.541449823e-06 	0 	0 	0
0.7768298443 	0 	0 	0 	2.358104447 	0.001096496332 	5.560403413e-06 	0 	0 	0
0.780913618 	0 	0 	0 	2.353256569 	0.00121110578 	7.657600507e-06 	0 	0 	0
0.7849523359 	0 	0 	0 	2.347705939 	0.001452424123 	1.086633237e-05 	0 	0 	0
0.7889464839 	0 	0 	0 	2.341247242 	0.001858071703 	1.35813994e-05 	0 	0 	0
0.7928965538 	0 	0 	0 	2.334035547 	0.00237664984 	1.376055815e-05 	0 	0 	0
0.796803032 	0 	0 	0 	2.326596599 	0.002876942352 	1.075280963e-05 	0 	0 	0
0.8006664018 	0 	0 	0 	2.319503058 	0.003229833073 	6.09345515e-06 	0 	0 	0
0.8044871437 	0 	0 	0 	2.313006415 	0.003387632885 	1.968888029e-06 	0 	0 	0
0.8082657211 	0 	0 	0 	2.306981077 	0.003386885451 	-5.85940906e-07 	0 	0 	0
0.8120025992 	0 	0 	0 	2.301145561 	0.003296748777 	-1.663562822e-06 	0 	0 	0
0.8156982382 	0 	0 	0 	2.295274319 	0.003173692371 	-1.927339343e-06 	0 	0 	0
0.8193530933 	0 	0 	0 	2.289257873 	0.003044617139 	-1.988789327e-06 	0 	0 	0
0.8229676192 	0 	0 	0 	2.28306532 	0.002916334536 	-2.01633515e-06 	0 	0 	0
0.8265422566 	0 	0 	0 	2.27669281 	0.002790702489 	-2.038446485e-06 	0 	0 	0
0.8300774454 	0 	0 	0 	2.270138995 	0.002667912488 	-2.092376999e-06 	0 	0 	0
0.8335736208 	0 	0 	0 	2.263402109 	0.002547086092 	-2.161623823e-06 	0 	0 	0
0.8370312134 	0 	0 	0 	2.256480516 	0.002427672735 	-2.240336174e-06 	0 	0 	0
0.8404506497 	0 	0 	0 	2.249374041 	0.002308584015 	-2.35023522e-06 	0 	0 	0
0.843832352 	0 	0 	0 	2.242084223 	0.002186754921 	-2.553604977e-06 	0 	0 	0
0.8471767348 	0 	0 	0 	2.234612374 	0.002060137753 	-2.715646091e-06 	0 	0 	0
0.8504842098 	0 	0 	0 	2.226955597 	0.001933427223 	-2.659441347e-06 	0 	0 	0
0.8537551845 	0 	0 	0 	2.219070873 	0.001820506257 	-2.221790334e-06 	0 	0 	0
0.8569900615 	0 	0 	0 	2.210783134 	0.001757880327 	-6.136275442e-07 	0 	0 	0
0.8601892396 	0 	0 	0 	2.201736815 	0.001815430474 	2.935759896e-06 	0 	0 	0
0.8633531134 	0 	0 	0 	2.191507559 	0.002073212114 	8.084841326e-06 	0 	0 	0
0.8664820715 	0 	0 	0 	2.179861222 	0.002569886573 	1.320423464e-05 	0 	0 	0
0.8695764992 	0 	0 	0 	2.167036438 	0.003248035716 	1.580545524e-05 	0 	0 	0
0.8726367777 	0 	0 	0 	2.153801303 	0.003950575565 	1.427323216e-05 	0 	0 	0
0.8756632836 	0 	0 	0 	2.141089715 	0.004500952986 	9.579475779e-06 	0 	0 	0
0.8786563899 	0 	0 	0 	2.129429635 	0.004808077038 	4.432083204e-06 	0 	0 	0
0.8816164654 	0 	0 	0 	2.118708924 	0.004897878076 	9.006908739e-07 	0 	0 	0
0.8845438744 	0 	0 	0 	2.108464833 	0.004859373356 	-6.39039069e-07 	0 	0 	0
0.8874389772 	0 	0 	0 	2.098287443 	0.004773494879 	-1.104614332e-06 	0 	0 	0
0.8903021304 	0 	0 	0 	2.087980561 	0.00467663016 	-1.368824595e-06 	0 	0 	0
0.8931336866 	0 	0 	0 	2.077498874 	0.004575539818 	-1.565458596e-06 	0 	0 	0
0.8959339944 	0 	0 	0 	2.066843452 	0.004472284844 	-1.736062032e-06 	0 	0 	0
0.8987033988 	0 	0 	0 	2.056019555 	0.004367202993 	-1.928229636e-06 	0 	0 	0
0.9014422408 	0 	0 	0 	2.045030984 	0.004261177041 	-2.098737081e-06 	0 	0 	0
0.9041508577 	0 	0 	0 	2.033871177 	0.004154522555 	-2.262953411e-06 	0 	0 	0
0.906829583 	0 	0 	0 	2.022497775 	0.004050910102 	-2.263106633e-06 	0 	0 	0
0.9094787465 	0 	0 	0 	2.01084137 	0.003965631049 	-1.936448331e-06 	0 	0 	0
0.9120986745 	0 	0 	0 	1.998886801 	0.00391054088 	-1.432726718e-06 	0 	0 	0
0.9146896897 	0 	0 	0 	1.986732122 	0.003884681732 	-9.362545541e-07 	0 	0 	0
0.917252111 	0 	0 	0 	1.974541355 	0.003871338823 	-5.813534189e-07 	0 	0 	0
0.919786254 	0 	0 	0 	1.962429234 	0.003851408755 	-3.795858635e-07 	0 	0 	0
0.922292431 	0 	0 	0 	1.950395845 	0.003826466105 	-2.196386682e-07 	0 	0 	0
0.9247709504 	0 	0 	0 	1.93839076 	0.003796982938 	-1.167687198e-07 	0 	0 	0
0.9272221175 	0 	0 	0 	1.926386422 	0.003755690623 	-7.001185193e-08 	0 	0 	0
0.929646234 	0 	0 	0 	1.914372789 	0.003703715431 	-3.977916593e-08 	0 	0 	0
0.9320435987 	0 	0 	0 	1.903351018 	0.003649143612 	-3.370430184e-08 	0 	0 	0
0.9336052454 	0 	0 	0 	1.894429219 	0.003600231541 	-4.019691082e-08 	0 	0 	0
0.9351380825 	0 	0 	0 	1.88658909 	0.003553755833 	-5.050303876e-08 	0 	0 	0
0.9366426415 	0 	0 	0 	1.87882351 	0.003504541946 	-6.485563847e-08 	0 	0 	0
0.9381194438 	0 	0 	0 	1.871126625 	0.003452771624 	-8.186602131e-08 	0 	0 	0
0.9395690018 	0 	0 	0 	1.863492262 	0.003398656881 	-1.000211719e-07 	0 	0 	0
0.9409918179 	0 	0 	0 	1.855914225 	0.003342437217 	-1.183597967e-07 	0 	0 	0
0.9423883855 	0 	0 	0 	1.848386415 	0.003284340421 	-1.36219429e-07 	0 	0 	0
0.9437591889 	0 	0 	0 	1.840902882 	0.003224586272 	-1.531485117e-07 	0 	0 	0
0.9451047033 	0 	0 	0 	1.833457849 	0.003163384438 	-1.688498028e-07 	0 	0 	0
0.9464253953 	0 	0 	0 	1.826045717 	0.003100932623 	-1.831405267e-07 	0 	0 	0
0.9477217228 	0 	0 	0 	1.818661064 	0.00303741559 	-1.959244291e-07 	0 	0 	0
0.9489941353 	0 	0 	0 	1.811298636 	0.00297300484 	-2.071695514e-07 	0 	0 	0
0.950243074 	0 	0 	0 	1.803953328 	0.00290785886 	-2.16890492e-07 	0 	0 	0
0.9514689719 	0 	0 	0 	1.796620168 	0.002842123734 	-2.251343821e-07 	0 	0 	0
0.9526722541 	0 	0 	0 	1.78929429 	0.002775933958 	-2.31969982e-07 	0 	0 	0
0.9538533379 	0 	0 	0 	1.781970915 	0.002709413317 	-2.374801159e-07 	0 	0 	0
0.9550126327 	0 	0 	0 	1.774645322 	0.002642675852 	-2.417532458e-07 	0 	0 	0
0.9561505405 	0 	0 	0 	1.767312829 	0.002575826776 	-2.448756647e-07 	0 	0 	0
0.9572674559 	0 	0 	0 	1.759968766 	0.002508963188 	-2.46933324e-07 	0 	0 	0
0.9583637661 	0 	0 	0 	1.752608453 	0.002442175003 	-2.480157415e-07 	0 	0 	0
0.9594398513 	0 	0 	0 	1.745227182 	0.002375545931 	-2.482097185e-07 	0 	0 	0
0.9604960845 	0 	0 	0 	1.737820189 	0.002309153839 	-2.475912294e-07 	0 	0 	0
0.9615328321 	0 	0 	0 	1.730382644 	0.002243071019 	-2.462317335e-07 	0 	0 	0
0.9625504535 	0 	0 	0 	1.72290962 	0.002177364818 	-2.442083172e-07 	0 	0 	0
0.9635493016 	0 	0 	0 	1.715396084 	0.002112098217 	-2.415965855e-07 	0 	0 	0
0.9645297226 	0 	0 	0 	1.707836865 	0.002047330105 	-2.384590686e-07 	0 	0 	0
0.9654920565 	0 	0 	0 	1.70022664 	0.001983115409 	-2.348461671e-07 	0 	0 	0
0.9664366371 	0 	0 	0 	1.692559907 	0.001919505522 	-2.308042438e-07 	0 	0 	0
0.9673637917 	0 	0 	0 	1.684830962 	0.001856548794 	-2.263780909e-07 	0 	0 	0
0.968273842 	0 	0 	0 	1.677033872 	0.001794290689 	-2.216067992e-07 	0 	0 	0
0.9691671034 	0 	0 	0 	1.669162447 	0.001732773907 	-2.16523687e-07 	0 	0 	0
0.9700438857 	0 	0 	0 	1.661210212 	0.001672038611 	-2.111598388e-07 	0 	0 	0
0.9709044929 	0 	0 	0 	1.653170374 	0.001612122579 	-2.055455978e-07 	0 	0 	0
0.9717492233 	0 	0 	0 	1.645035785 	0.001553061303 	-1.997107788e-07 	0 	0 	0
0.9725783699 	0 	0 	0 	1.636798905 	0.001494888081 	-1.936849798e-07 	0 	0 	0
0.9733922202 	0 	0 	0 	1.628451759 	0.001437634097 	-1.874978666e-07 	0 	0 	0
0.9741910564 	0 	0 	0 	1.619985891 	0.001381328489 	-1.811793376e-07 	0 	0 	0
0.9749751554 	0 	0 	0 	1.61139231 	0.001325998427 	-1.747592746e-07 	0 	0 	0
0.9757447892 	0 	0 	0 	1.602661429 	0.001271669177 	-1.682667898e-07 	0 	0 	0
0.9765002245 	0 	0 	0 	1.593783005 	0.001218363928 	-1.617328127e-07 	0 	0 	0
0.9772417234 	0 	0 	0 	1.584746059 	0.001166106081 	-1.551677355e-07 	0 	0 	0
0.9779695429 	0 	0 	0 	1.575538792 	0.001114913765 	-1.485945185e-07 	0 	0 	0
0.9786839354 	0 	0 	0 	1.566148483 	0.001064804716 	-1.420568381e-07 	0 	0 	0
0.9793851485 	0 	0 	0 	1.556561378 	0.001015800786 	-1.355359495e-07 	0 	0 	0
0.9800734255 	0 	0 	0 	1.546762598 	0.0009679153268 	-1.290272684e-07 	0 	0 	0
0.980749005 	0 	0 	0 	1.536735993 	0.0009211615798 	-1.225697519e-07 	0 	0 	0
0.9814121212 	0 	0 	0 	1.52646397 	0.0008755547617 	-1.161644534e-07 	0 	0 	0
0.9820630041 	0 	0 	0 	1.515927311 	0.000831106014 	-1.098071814e-07 	0 	0 	0
0.9827018792 	0 	0 	0 	1.505104965 	0.0007878259362 	-1.035047647e-07 	0 	0 	0
0.9833289683 	0 	0 	0 	1.493973798 	0.0007457236867 	-9.726043339e-08 	0 	0 	0
0.9839444886 	0 	0 	0 	1.482508312 	0.0007048070343 	-9.107664284e-08 	0 	0 	0
0.9845486537 	0 	0 	0 	1.470680312 	0.0006650823151 	-8.495429871e-08 	0 	0 	0
0.9851416729 	0 	0 	0 	1.458458514 	0.0006265543403 	-7.889214192e-08 	0 	0 	0
0.985723752 	0 	0 	0 	1.44580809 	0.000589224918 	-7.288624777e-08 	0 	0 	0
0.9862950927 	0 	0 	0 	1.432690119 	0.0005530985575 	-6.692968122e-08 	0 	0 	0
0.9868558932 	0 	0 	0 	1.419060938 	0.0005181745962 	-6.10135328e-08 	0 	0 	0
0.9874063478 	0 	0 	0 	1.404871276 	0.0004844160839 	-5.513140181e-08 	0 	0 	0
0.9879466476 	0 	0 	0 	1.390065658 	0.0004523284888 	-4.927453807e-08 	0 	0 	0
0.9884769797 	0 	0 	0 	1.374581104 	0.0004204583345 	-4.333836487e-08 	0 	0 	0
0.9889975281 	0 	0 	0 	1.359761788 	0.0003920402127 	-3.779478639e-08 	0 	0 	0
0.9893325512 	0 	0 	0 	1.347209541 	0.0003710800635 	-3.321969098e-08 	0 	0 	0
0.9896675743 	0 	0 	0 	1.335623479 	0.0003525150407 	-2.917411657e-08 	0 	0 	0
0.9900025975 	0 	0 	0 	1.323460957 	0.0003336549607 	-2.515558532e-08 	0 	0 	0
0.9903376206 	0 	0 	0 	1.310667275 	0.0003153618493 	-2.112558242e-08 	0 	0 	0
0.9906726437 	0 	0 	0 	1.297180195 	0.00029736302 	-1.713136896e-08 	0 	0 	0
0.9910076668 	0 	0 	0 	1.282928318 	0.0002796690286 	-1.321904082e-08 	0 	0 	0
0.9913426899 	0 	0 	0 	1.267828959 	0.0002622874987 	-9.429540083e-09 	0 	0 	0
0.991677713 	0 	0 	0 	1.251785879 	0.0002452284824 	-5.803754106e-09 	0 	0 	0
0.9920127361 	0 	0 	0 	1.234686421 	0.0002285087232 	-2.384047114e-09 	0 	0 	0
0.9923477593 	0 	0 	0 	1.216397919 	0.0002121491337 	7.862536927e-10 	0 	0 	0
0.9926827824 	0 	0 	0 	1.196763164 	0.0001961776468 	3.665273861e-09 	0 	0 	0
0.9930178055 	0 	0 	0 	1.175594622 	0.0001806323437 	6.211178112e-09 	0 	0 	0
0.9933528286 	0 	0 	0 	1.152667056 	0.000165565716 	8.385748453e-09 	0 	0 	0
0.9936878517 	0 	0 	0 	1.127708058 	0.0001510497874 	1.015803165e-08 	0 	0 	0
0.9940228748 	0 	0 	0 	1.100385908 	0.0001371805295 	1.150599161e-08 	0 	0 	0
0.994357898 	0 	0 	0 	1.070294087 	0.0001240759104 	1.24187419e-08 	0 	0 	0
0.9946929211 	0 	0 	0 	1.036931742 	0.0001118512123 	1.289891713e-08 	0 	0 	0
0.9950279442 	0 	0 	0 	0.9996796289 	0.0001005277446 	1.29715169e-08 	0 	0 	0
0.9953629673 	0 	0 	0 	0.957771927 	8.975541987e-05 	1.269314879e-08 	0 	0 	0
0.9956979904 	0 	0 	0 	0.9102666284 	7.80038229e-05 	1.215274999e-08 	0 	0 	0
0.9960330135 	0 	0 	0 	0.8560230911 	6.057009292e-05 	1.14384104e-08 	0 	0 	0
0.9963680367 	0 	0 	0 	0.7937101829 	2.803423088e-05 	1.044182486e-08 	0 	0 	0
0.9967030598 	0 	0 	0 	0.7219075098 	-2.258703627e-05 	8.52846018e-09 	0 	0 	0
0.9970380829 	0 	0 	0 	0.6394386735 	-5.583800965e-05 	5.414782772e-09 	0 	0 	0
0.997373106 	0 	0 	0 	0.5460938154 	-1.620445831e-05 	3.290883907e-09 	0 	0 	0
0.9977081291 	0 	0 	0 	0.4434796426 	6.234958033e-05 	3.955533242e-09 	0 	0 	0
0.9980431522 	0 	0 	0 	0.334891691 	8.011840875e-05 	4.501965664e-09 	0 	0 	0
0.9983781754 	0 	0 	0 	0.2236949848 	3.716892144e-05 	2.694038698e-09 	0 	0 	0
0.9987131985 	0 	0 	0 	0.11185111 	5.185492484e-06 	7.060748102e-10 	0 	0 	0