0.4709558481 	6.062332232e-06 	-0.9950225678
0.4711314108 	6.804991409e-05 	-0.9950238094
0.4713069734 	0.0003784875966 	-0.9950251744
0.471482536 	0.001248983226 	-0.9950044545
0.4716580986 	0.003013672718 	-0.9948824889
0.4718336613 	0.005882960564 	-0.9945122822
0.4720092239 	0.009812535289 	-0.9937487591
0.4721847865 	0.01449428442 	-0.9925569467
0.4723603491 	0.01949780733 	-0.9910463219
0.4725359118 	0.02443982183 	-0.9894009787
0.4727114744 	0.02906796862 	-0.9877867041
0.472887037 	0.03325804122 	-0.9863058364
0.4730625996 	0.03697547155 	-0.985012085
0.4732381623 	0.04023820101 	-0.9839414528
0.4734137249 	0.04309003597 	-0.9830899518
0.4735892875 	0.04558048573 	-0.9823950297
0.4737648501 	0.04775486711 	-0.9817944378
0.4739404128 	0.04965425291 	-0.9812656245
0.4741159754 	0.05131599029 	-0.9808016085
0.474291538 	0.05277305114 	-0.9803941584
0.4744671006 	0.05405400764 	-0.9800353311
0.4746426632 	0.05518336133 	-0.9797183145
0.4748182259 	0.05618200418 	-0.9794373288
0.4749937885 	0.05706770759 	-0.9791871617
0.4751693511 	0.05785558456 	-0.9789628534
0.4753449137 	0.05855852324 	-0.9787670054
0.4755204764 	0.05918768658 	-0.9786100829
0.475696039 	0.05975267795 	-0.9784885954
0.4758716016 	0.06026135104 	-0.9783854372
0.4760471642 	0.06072013397 	-0.9782876964
0.4762227269 	0.0611889439 	-0.978178607
0.4764955107 	0.06170370172 	-0.9780605778
0.4767734216 	0.06219645741 	-0.9779593938
0.4770565557 	0.06262434916 	-0.9778784353
0.4773450114 	0.06299472429 	-0.9778087728
0.4776388886 	0.06331383745 	-0.9777486319
0.4779382892 	0.06358702155 	-0.9776966421
0.4782433171 	0.06381883405 	-0.9776517907
0.4785540779 	0.06401318609 	-0.9776132565
0.4788706795 	0.06417344664 	-0.9775803269
0.4791932316 	0.06430252753 	-0.9775523936
0.4795218461 	0.06440295334 	-0.9775289374
0.4798566368 	0.06447691899 	-0.9775095144
0.48019772 	0.06452633767 	-0.977493744
0.4805452138 	0.06455288063 	-0.977481299
0.4808992388 	0.06455801101 	-0.977471898
0.4812599177 	0.06454301186 	-0.9774652986
0.4816273755 	0.06450900765 	-0.977461292
0.4820017397 	0.06445698713 	-0.9774596996
0.48238314 	0.06438782139 	-0.9774603696
0.4827717088 	0.06430227603 	-0.9774631743
0.4831675807 	0.06420102477 	-0.9774680077
0.4835708931 	0.06408466035 	-0.9774747844
0.4839817856 	0.0639537041 	-0.9774834381
0.4844004009 	0.0638086141 	-0.9774939208
0.4848268841 	0.06364979248 	-0.9775062029
0.485261383 	0.06347759174 	-0.9775202727
0.4857040484 	0.06329232043 	-0.9775361368
0.4861550336 	0.06309424809 	-0.9775538207
0.4866144951 	0.0628836098 	-0.9775733698
0.4870825921 	0.06266061017 	-0.9775948505
0.487559487 	0.06242542712 	-0.9776183519
0.4880453452 	0.06217821506 	-0.9776439876
0.4885403351 	0.06191910794 	-0.9776718989
0.4890446283 	0.06164822236 	-0.9777022575
0.4895583997 	0.06136566018 	-0.9777352678
0.4900818274 	0.06107151107 	-0.9777711641
0.4906150929 	0.06076585485 	-0.9778101636
0.4911583811 	0.06044876352 	-0.9778523602
0.4917118805 	0.06012030144 	-0.977897509
0.4922757829 	0.05978052397 	-0.9779437333
0.4928502838 	0.05942947414 	-0.9779915249
0.4934355824 	0.05906703044 	-0.9780499366
0.4940318817 	0.05869275805 	-0.978125638
0.4946393885 	0.05830608733 	-0.9782127893
0.4952583133 	0.05790651284 	-0.9783041279
0.4958888709 	0.05749358122 	-0.9783983566
0.4965312797 	0.05706685416 	-0.9784960333
0.4971857627 	0.05662590677 	-0.9785973906
0.4978525466 	0.05617032942 	-0.9787025385
0.4985318627 	0.05569972607 	-0.9788115816
0.4992239466 	0.05521371093 	-0.9789246282
0.4999290382 	0.05471190561 	-0.9790417854
0.5006473819 	0.05419393669 	-0.9791631589
0.501379227 	0.05365943311 	-0.9792888552
0.502124827 	0.05310802243 	-0.9794189834
0.5028844406 	0.05253932405 	-0.9795536586
0.5036583311 	0.05195293734 	-0.9796930027
0.5044467669 	0.05134842173 	-0.9798371324
0.5052500214 	0.05072526605 	-0.9799861796
0.506068373 	0.04999969986 	-0.9801605401
0.507324668 	0.04908200076 	-0.9803820076
0.5085949819 	0.04805170128 	-0.9806316283
0.5098794711 	0.04699164938 	-0.9808897242
0.5111782938 	0.0459009926 	-0.9811565752
0.5124916099 	0.04477851406 	-0.9814325554
0.5138195812 	0.04362270949 	-0.9817181674
0.5151623712 	0.04243204568 	-0.9820139492
0.5165201452 	0.04120602115 	-0.9823200797
0.5178930705 	0.0399482879 	-0.9826355876
0.5192813161 	0.03866905376 	-0.9829578766
0.520685053 	0.0373826215 	-0.9832832061
0.522104454 	0.03610405706 	-0.9836074909
0.523539694 	0.03484873374 	-0.9839266165
0.5249909497 	0.03363202242 	-0.9842357429
0.5264583998 	0.03246783708 	-0.9845271669
0.527942225 	0.03136642928 	-0.9848027374
0.5294426081 	0.03033049466 	-0.9851335102
0.5309597337 	0.02935004379 	-0.9856121309
0.5324937889 	0.02841110653 	-0.9861825541
0.5340449624 	0.02750979926 	-0.9867233851
0.5356134452 	0.02664813532 	-0.9872193938
0.5371994306 	0.02582759297 	-0.9876949621
0.5388031139 	0.02504954095 	-0.9881529176
0.5404246925 	0.02431517166 	-0.9885925631
0.5420643661 	0.02362549891 	-0.9890120528
0.5437223366 	0.02298125268 	-0.9894098428
0.5453988083 	0.02238284491 	-0.9897849466
0.5470939875 	0.02183031385 	-0.9901368091
0.5488080831 	0.02132332603 	-0.9904652055
0.5505413061 	0.02086128466 	-0.9907701004
0.5522938699 	0.0204433733 	-0.9910516978
0.5540659904 	0.02006859028 	-0.9913104263
0.5558578859 	0.01973582881 	-0.9915468084
0.5576697768 	0.01944398551 	-0.9917614646
0.5595018865 	0.0191922638 	-0.9919554201
0.5613544406 	0.01897987531 	-0.9921301356
0.563227667 	0.01880487423 	-0.9922868858
0.5651217966 	0.01866405425 	-0.992426473
0.5670370626 	0.01855395656 	-0.9925496314
0.5689737009 	0.01847138415 	-0.9926572533
0.5709319499 	0.01841343216 	-0.992750271
0.5729120508 	0.01837747873 	-0.9928295715
0.5749142474 	0.01836117045 	-0.9928959849
0.5769387863 	0.01836239752 	-0.9929502808
0.5789859169 	0.01837929179 	-0.9929931669
0.5810558911 	0.01841020229 	-0.9930252894
0.583148964 	0.0184536539 	-0.9930472351
0.5852653933 	0.01850834268 	-0.9930595339
0.5874054395 	0.01857312091 	-0.9930626663
0.5895693664 	0.01864697654 	-0.9930570675
0.5917574402 	0.01872902263 	-0.9930431195
0.5939699306 	0.01881847107 	-0.9930211656
0.5962071099 	0.0189146232 	-0.9929915184
0.5984692536 	0.01901686879 	-0.9929544546
0.6007566404 	0.01912466773 	-0.9929102215
0.6030695519 	0.01923754159 	-0.9928590459
0.6054082729 	0.0193550657 	-0.9928011379
0.6077730914 	0.01947686515 	-0.9927366854
0.6101642987 	0.01960260826 	-0.9926658523
0.6125821893 	0.01973199952 	-0.9925887858
0.6150270608 	0.01986477511 	-0.9925056215
0.6174992144 	0.02000069889 	-0.9924164852
0.6199989545 	0.0201395588 	-0.9923214821
0.622526589 	0.02028116373 	-0.9922207209
0.625082429 	0.02042534059 	-0.9921143269
0.6276667894 	0.0205719319 	-0.9920023898
0.6302799884 	0.02072079355 	-0.9918849834
0.6329223478 	0.02087179288 	-0.9917621988
0.6355941931 	0.02102480701 	-0.9916341249
0.6382958531 	0.02117972137 	-0.9915008481
0.6410276607 	0.02133642844 	-0.9913624543
0.6437899523 	0.02149482662 	-0.9912190302
0.646583068 	0.02165481926 	-0.9910706644
0.6494073518 	0.02181631385 	-0.9909174485
0.6522631514 	0.02197922131 	-0.9907594784
0.6551508186 	0.02214345537 	-0.9905968548
0.658070709 	0.02230893209 	-0.9904296849
0.6610231822 	0.02247556946 	-0.9902580838
0.6640086017 	0.02264328711 	-0.9900821755
0.6670273351 	0.02281200605 	-0.9899020948
0.6700797543 	0.0229816486 	-0.9897179896
0.6731662352 	0.02315213828 	-0.9895300222
0.6762871577 	0.0233233999 	-0.9893383731
0.6794429063 	0.02349535968 	-0.9891432442
0.6826338695 	0.02366794545 	-0.9889448614
0.6858604404 	0.02384108692 	-0.988743479
0.6891230163 	0.02401471605 	-0.9885393867
0.6924219988 	0.02418876757 	-0.988332916
0.6957577944 	0.02436317967 	-0.9881244476
0.6991308138 	0.02453789466 	-0.987914422
0.7025414724 	0.02471285988 	-0.9877033512
0.7059901901 	0.02488802876 	-0.9874918335
0.7094773917 	0.02506336197 	-0.9872805705
0.7130035066 	0.02523882887 	-0.9870703869
0.7165689691 	0.02541440915 	-0.9868622527
0.7201742182 	0.02559009471 	-0.9866573065
0.7238196978 	0.02576589189 	-0.9864568759
0.727505857 	0.025941824 	-0.986262487
0.7312331497 	0.02611793426 	-0.9860758295
0.7350020349 	0.02629382266 	-0.9858990762
0.7387709215 	0.02646811354 	-0.9857349555
0.7424982157 	0.02663950769 	-0.9855849913
0.7461843763 	0.02680777102 	-0.9854460405
0.7498298574 	0.02697313928 	-0.9853116453
0.7534351078 	0.02713597697 	-0.9851881966
0.7570005716 	0.02729706481 	-0.9850930916
0.7605266877 	0.02745741372 	-0.9850227149
0.7640138905 	0.02761768411 	-0.9849570516
0.7674626093 	0.02777814098 	-0.984887786
0.770873269 	0.0279388829 	-0.9848149266
0.7742462894 	0.028099873 	-0.984738789
0.777582086 	0.02826089836 	-0.9846621692
0.7808810695 	0.02842151916 	-0.9845904311
0.7841436462 	0.02858108139 	-0.9845290612
0.787370218 	0.02873885756 	-0.984479715
0.7905611821 	0.02889431763 	-0.9844368318
0.7937169314 	0.02904743176 	-0.9843878636
0.7968378547 	0.02919882369 	-0.9843198689
0.7999243362 	0.02934961917 	-0.984230099
0.8029767561 	0.029501007 	-0.9841319054
0.8059954902 	0.02965373343 	-0.9840493697
0.8089809102 	0.02980782807 	-0.9840031989
0.8119333839 	0.02996277193 	-0.983995705
0.8148532749 	0.03011810218 	-0.9840020979
0.8177409426 	0.03027415112 	-0.983976469
0.8205967427 	0.03043238288 	-0.9838780578
0.8234210268 	0.03059486265 	-0.983704796
0.8262141429 	0.03076285433 	-0.9835055784
0.8289764348 	0.03093522579 	-0.9833584147
0.8317082427 	0.03110789227 	-0.9833305229
0.8344099031 	0.0312753058 	-0.9834413403
0.8370817486 	0.03143353918 	-0.9836348374
0.8397241082 	0.03158286829 	-0.9837794991
0.8423373074 	0.03172803043 	-0.9837347214
0.844921668 	0.03187630243 	-0.983459859
0.8474775082 	0.03203454204 	-0.983058093
0.8500051427 	0.03220600448 	-0.9827019777
0.8525048829 	0.03238802115 	-0.9825296806
0.8549770366 	0.0325725016 	-0.9826069456
0.8574219081 	0.0327502991 	-0.9829146641
0.8598397987 	0.03291688043 	-0.9833160103
0.862231006 	0.03307495144 	-0.9835806857
0.8645958245 	0.03323288819 	-0.9835230697
0.8669345455 	0.03340104792 	-0.9831464049
0.8692474569 	0.03358739028 	-0.9826330323
0.8715348435 	0.03379298908 	-0.982197009
0.8737969871 	0.03400969538 	-0.9819720143
0.8760341663 	0.03422310345 	-0.9820037076
0.8782466565 	0.03442057005 	-0.982260505
0.8804347301 	0.03459854167 	-0.9826373181
0.8825986568 	0.03476351575 	-0.9829509749
0.8847387028 	0.03492650101 	-0.9829653011
0.8868551318 	0.03509697939 	-0.9826069241
0.8889482045 	0.03528201268 	-0.9820848917
0.8910181784 	0.03548583162 	-0.9816386852
0.8930653087 	0.03570655112 	-0.9813714044
0.8950898473 	0.03593595897 	-0.9813190052
0.8970920436 	0.03616399667 	-0.9814732019
0.8990721441 	0.03638428229 	-0.9817767136
0.9010303927 	0.03659709255 	-0.9821346637
0.9029670306 	0.03680744492 	-0.9824373142
0.9048822962 	0.03702116665 	-0.9826161746
0.9067764254 	0.03724236276 	-0.9826259041
0.9086496514 	0.03747292893 	-0.9824177356
0.910502205 	0.03771507717 	-0.9820088724
0.9123343142 	0.03797440069 	-0.9815033773
0.9141462048 	0.03825916093 	-0.9810064918
0.9159380997 	0.03857552173 	-0.9805653681
0.9177102197 	0.03892361501 	-0.9802000699
0.9194627831 	0.0392974503 	-0.9799356396
0.9211960055 	0.03968680047 	-0.9797908992
0.9229101006 	0.04008016624 	-0.9797643804
0.9246052793 	0.04046865828 	-0.9798308347
0.9262817504 	0.04084892694 	-0.9799441916
0.9279397204 	0.04122325877 	-0.98004863
0.9295793934 	0.04159734013 	-0.9800963056
0.9312009714 	0.04197751396 	-0.9800651887
0.9328046541 	0.04236879334 	-0.9799591125
0.9343906389 	0.04277398706 	-0.9797985166
0.9359591211 	0.04319362634 	-0.9796107245
0.937510294 	0.04362626179 	-0.979416916
0.9390443485 	0.04406912598 	-0.9792283906
0.9405614735 	0.04451906758 	-0.979049943
0.942061856 	0.04497322407 	-0.9788819001
0.9435456805 	0.0454292169 	-0.9787225265
0.9450131299 	0.04588510641 	-0.9785700563
0.946464385 	0.04633929107 	-0.9784233619
0.9478996243 	0.04679040474 	-0.9782819158
0.9493190246 	0.04723723376 	-0.9781455475
0.9507227608 	0.04767866445 	-0.9780141537
0.9521110058 	0.04811366182 	-0.9778874023
0.9534839303 	0.04854126948 	-0.9777645648
0.9548417036 	0.04896061796 	-0.9776446835
0.9561844929 	0.04937091931 	-0.977526863
0.9575124634 	0.04977143501 	-0.9774105221
0.9588257788 	0.05016143593 	-0.977295557
0.9601246008 	0.0505401807 	-0.9771823103
0.9614090893 	0.05090692643 	-0.9770714016
0.9626794024 	0.05126097354 	-0.976963523
0.9639356968 	0.05157348879 	-0.976867896
0.9647540487 	0.05181823746 	-0.9767930078
0.9655573034 	0.05202658453 	-0.9767294767
0.9663457395 	0.05222690053 	-0.9766684885
0.9671196303 	0.05241952205 	-0.9766095915
0.9678792442 	0.05260486478 	-0.9765517578
0.9686248445 	0.0527834083 	-0.976498951
0.9693566897 	0.05295570475 	-0.9764637744
0.9700750337 	0.05312231089 	-0.9764501019
0.9707801255 	0.05328356167 	-0.9764437668
0.9714722095 	0.05343949488 	-0.9764337988
0.9721515258 	0.0535900278 	-0.9764218489
0.9728183099 	0.05373507067 	-0.9764109725
0.9734727929 	0.05387453258 	-0.9764017728
0.9741152019 	0.05400832504 	-0.9763942769
0.9747457596 	0.05413636317 	-0.9763882979
0.9753646845 	0.05425856494 	-0.9763836092
0.9759721914 	0.05437485024 	-0.9763800099
0.9765684907 	0.0544851397 	-0.9763773293
0.9771537895 	0.05458935354 	-0.9763754245
0.9777282904 	0.05468741034 	-0.9763741766
0.9782921928 	0.05477922577 	-0.9763734885
0.9788456922 	0.05486471129 	-0.9763732815
0.9793889805 	0.05494377269 	-0.9763734943
0.979922246 	0.05501630868 	-0.9763740804
0.9804456737 	0.05508220925 	-0.9763750075
0.9809594451 	0.05514135405 	-0.9763762556
0.9814637383 	0.05519361059 	-0.9763778163
0.9819587281 	0.05523883232 	-0.9763796919
0.9824445862 	0.05527685658 	-0.9763818942
0.9829214811 	0.05530750233 	-0.9763844447
0.9833895781 	0.05533056777 	-0.9763873735
0.9838490396 	0.05534582757 	-0.9763907194
0.9843000247 	0.05535303005 	-0.9763945295
0.98474269 	0.05535189394 	-0.9763988597
0.9851771888 	0.05534210454 	-0.9764037744
0.9856036719 	0.05532330972 	-0.976409347
0.9860222871 	0.05529511541 	-0.9764156607
0.9864331796 	0.05525708033 	-0.9764228092
0.9868364919 	0.0552087101 	-0.9764308972
0.9872323637 	0.05514945051 	-0.9764400426
0.9876209323 	0.05507867974 	-0.9764503773
0.9880023326 	0.0549956995 	-0.9764620493
0.9883766967 	0.05489972474 	-0.9764752254
0.9887441544 	0.05478987172 	-0.9764900937
0.9891048331 	0.05466514414 	-0.9765068673
0.9894588579 	0.05452441693 	-0.9765257886
0.9898063516 	0.05436641725 	-0.9765471345
0.9901474347 	0.05418970212 	-0.9765712228
0.9904822253 	0.05399263197 	-0.9765984201
0.9908108397 	0.05377333939 	-0.9766291518
0.9911333916 	0.05352969186 	-0.9766639142
0.9914499931 	0.05325924729 	-0.9767032895
0.9917607538 	0.05295920077 	-0.976747964
0.9920657815 	0.05262632059 	-0.9767987486
0.9923651819 	0.05225687087 	-0.9768565938
0.992659059 	0.05184651761 	-0.9769226658
0.9929475145 	0.05139021418 	-0.976998479
0.9932306485 	0.0508820743 	-0.9770859294
0.9935085592 	0.05031522367 	-0.9771927808
0.9937813429 	0.04973857365 	-0.977313948
0.9939569055 	0.0492240037 	-0.9774250167
0.9941324681 	0.0487282455 	-0.9775259132
0.9943080307 	0.04818617516 	-0.9776338119
0.9944835934 	0.04759200612 	-0.9777536993
0.994659156 	0.04693901037 	-0.9778912144
0.9948347186 	0.04621909139 	-0.9780604286
0.9950102812 	0.0454223637 	-0.9782693449
0.9951858439 	0.0445373057 	-0.9785120955
0.9953614065 	0.0435508501 	-0.9787837384
0.9955369691 	0.04244804045 	-0.9790870382
0.9957125317 	0.04121170858 	-0.979427282
0.9958880943 	0.03982229764 	-0.9798098287
0.996063657 	0.03825782091 	-0.9802393782
0.9962392196 	0.0364940942 	-0.9807224055
0.9964147822 	0.03450497922 	-0.9812877333
0.9965903448 	0.03226115444 	-0.9819845965
0.9967659075 	0.02973215135 	-0.9828321261
0.9969414701 	0.0268947028 	-0.9838148665
0.9971170327 	0.02374234173 	-0.9849169115
0.9972925953 	0.02029862721 	-0.9861111562
0.997468158 	0.0166368072 	-0.9873366324
0.9976437206 	0.0128999773 	-0.9884955579
0.9978192832 	0.009307472937 	-0.9894703253
0.9979948458 	0.006124890245 	-0.9901683153
0.9981704085 	0.003587239957 	-0.9905721444
0.9983459711 	0.001808532819 	-0.9907486165
0.9985215337 	0.0007430720193 	-0.9908007163
0.9986970963 	0.0002243688978 	-0.9908082201
0.998872659 	4.029241369e-05 	-0.9908073551
0.9990482216 	4.155511169e-06 	-0.9908068324
