0.4709558481 	4.095643273e-06 	-2.949191778e-08 	4.165155162e-13 	4.087850903e-06 	-4.114961597e-11 	7.79257998e-09
0.4711314108 	4.597366221e-05 	-1.290641903e-06 	1.819045447e-11 	4.588634782e-05 	-4.61825926e-10 	8.747213241e-08
0.4713069734 	0.000255695159 	-1.660721586e-05 	2.319801073e-10 	0.0002552131243 	-2.563643644e-09 	4.865071477e-07
0.471482536 	0.000843691548 	-9.946851394e-05 	1.356439538e-09 	0.0008421022609 	-8.392588487e-09 	1.605280959e-06
0.4716580986 	0.002035222027 	-0.0003710756134 	4.831385494e-09 	0.002031241152 	-1.983870582e-08 	3.87211019e-06
0.4718336613 	0.003971070068 	-0.0009896688333 	1.200272003e-08 	0.003962799476 	-3.726836439e-08 	7.554197205e-06
0.4720092239 	0.006619169217 	-0.002049991355 	2.268033181e-08 	0.00660511839 	-5.875096511e-08 	1.259119145e-05
0.4721847865 	0.009769717854 	-0.003504414863 	3.492795754e-08 	0.009750047191 	-8.09481461e-08 	1.858629983e-05
0.4723603491 	0.01313198814 	-0.005191977249 	4.648034558e-08 	0.01310739594 	-1.009557094e-07 	2.498633967e-05
0.4725359118 	0.01644862132 	-0.006931975224 	5.600133202e-08 	0.01641859497 	-1.173634289e-07 	3.129840533e-05
0.4727114744 	0.0195512106 	-0.008590152541 	6.318331008e-08 	0.01951412 	-1.300325447e-07 	3.719933639e-05
0.472887037 	0.02235761152 	-0.01009238343 	6.828614557e-08 	0.02231324407 	-1.396059853e-07 	4.253524485e-05
0.4730625996 	0.02484564833 	-0.01141241428 	7.185362162e-08 	0.02479688698 	-1.46781986e-07 	4.726975853e-05
0.4732381623 	0.02702815706 	-0.01252698607 	7.257478626e-08 	0.02697474312 	-1.518531303e-07 	5.142135763e-05
0.4734137249 	0.02893503609 	-0.01344071045 	7.260274458e-08 	0.02887341945 	-1.556182005e-07 	5.504076243e-05
0.4735892875 	0.03059962371 	-0.01421378274 	7.395210056e-08 	0.03053206775 	-1.586703993e-07 	5.820260708e-05
0.4737648501 	0.03205235858 	-0.01488843209 	7.489228956e-08 	0.03198283067 	-1.607174066e-07 	6.096816443e-05
0.4739404128 	0.03332088685 	-0.01547751383 	7.551729642e-08 	0.03324890299 	-1.619483863e-07 	6.338165015e-05
0.4741159754 	0.03443030668 	-0.01599271377 	7.589905918e-08 	0.03435498983 	-1.627235495e-07 	6.549015908e-05
0.474291538 	0.03540274623 	-0.0164442113 	7.608273738e-08 	0.03532437596 	-1.630866717e-07 	6.733807848e-05
0.4744671006 	0.03625736261 	-0.01684088943 	7.611036954e-08 	0.03617618957 	-1.6311488e-07 	6.896187198e-05
0.4746426632 	0.03701057075 	-0.01719047446 	7.601685535e-08 	0.03692677388 	-1.628701132e-07 	7.039269428e-05
0.4748182259 	0.03767635799 	-0.01749945746 	7.581880686e-08 	0.03759006026 	-1.624027468e-07 	7.165710247e-05
0.4749937885 	0.03826661652 	-0.01777335431 	7.553236097e-08 	0.03817744774 	-1.618035975e-07 	7.277682626e-05
0.4751693511 	0.03879145494 	-0.01801685758 	7.516958792e-08 	0.03869991857 	-1.60916322e-07 	7.377280088e-05
0.4753449137 	0.03925948701 	-0.01823396821 	7.473892003e-08 	0.03916718695 	-1.597742408e-07 	7.466354429e-05
0.4755204764 	0.03967814649 	-0.01841640968 	7.571917761e-08 	0.03958384322 	-1.588605071e-07 	7.545780694e-05
0.475696039 	0.04005384032 	-0.01856601148 	7.653304474e-08 	0.03995624189 	-1.577684575e-07 	7.616770231e-05
0.4758716016 	0.0403918593 	-0.01869811974 	7.591939386e-08 	0.04029160305 	-1.561973622e-07 	7.680699388e-05
0.4760471642 	0.04069652821 	-0.01881650949 	7.547328867e-08 	0.04059345029 	-1.547248601e-07 	7.738239863e-05
0.4762227269 	0.04100762545 	-0.01894706609 	7.495824633e-08 	0.04090392581 	-1.530950065e-07 	7.797425125e-05
0.4764955107 	0.04134886007 	-0.01908751984 	7.426507974e-08 	0.04124433412 	-1.508378639e-07 	7.86231641e-05
0.4767734216 	0.04167504528 	-0.01920938234 	7.341563378e-08 	0.04156610338 	-1.481886041e-07 	7.923654574e-05
0.4770565557 	0.04195778968 	-0.01931310747 	7.250447563e-08 	0.04184533057 	-1.45360502e-07 	7.976883037e-05
0.4773450114 	0.04220199732 	-0.0194010877 	7.153642773e-08 	0.04208732357 	-1.423585059e-07 	8.023013629e-05
0.4776388886 	0.04241184211 	-0.01947566773 	7.051296039e-08 	0.04229434629 	-1.391800467e-07 	8.062477914e-05
0.4779382892 	0.04259088208 	-0.01953860029 	6.943296137e-08 	0.04247056294 	-1.358287521e-07 	8.096069704e-05
0.4782433171 	0.04274215713 	-0.01959111921 	6.829378139e-08 	0.04261899002 	-1.323058201e-07 	8.124364031e-05
0.4785540779 	0.04286827536 	-0.01963429101 	6.709261155e-08 	0.04274223124 	-1.28611634e-07 	8.147857234e-05
0.4788706795 	0.04297148263 	-0.01966902524 	6.582662002e-08 	0.04284253607 	-1.247459537e-07 	8.166978121e-05
0.4791932316 	0.04305371945 	-0.0196961013 	6.449296995e-08 	0.04292183948 	-1.207079513e-07 	8.182095555e-05
0.4795218461 	0.0431166676 	-0.0197161894 	6.308879626e-08 	0.04298181929 	-1.164963291e-07 	8.193529375e-05
0.4798566368 	0.04316178864 	-0.01972986663 	6.161116831e-08 	0.04302393347 	-1.121093962e-07 	8.201557508e-05
0.48019772 	0.0431903559 	-0.01973763106 	6.005705353e-08 	0.04304945191 	-1.075450836e-07 	8.206422033e-05
0.4805452138 	0.04320348108 	-0.01973991324 	5.842324233e-08 	0.04305948307 	-1.028009965e-07 	8.20833425e-05
0.4808992388 	0.04320213735 	-0.0197370863 	5.670663209e-08 	0.04305499701 	-9.787490981e-08 	8.207479083e-05
0.4812599177 	0.04318717606 	-0.01972947323 	5.49035646e-08 	0.0430368421 	-9.276311847e-08 	8.204018251e-05
0.4816273755 	0.0431593435 	-0.01971735347 	5.301030944e-08 	0.04300576166 	-8.746241018e-08 	8.198093456e-05
0.4820017397 	0.04311929622 	-0.01970096869 	5.102302633e-08 	0.0429624094 	-8.197019674e-08 	8.189829309e-05
0.48238314 	0.0430676108 	-0.01968052655 	4.893718559e-08 	0.04290735897 	-7.628252889e-08 	8.179335168e-05
0.4827717088 	0.0430047937 	-0.01965620465 	4.674816385e-08 	0.042841114 	-7.039569968e-08 	8.166707036e-05
0.4831675807 	0.04293128998 	-0.0196281536 	4.445091152e-08 	0.04276411674 	-6.430586052e-08 	8.152029218e-05
0.4835708931 	0.04284749059 	-0.01959649948 	4.203996068e-08 	0.04267675532 	-5.800902652e-08 	8.135375704e-05
0.4839817856 	0.04275373871 	-0.01956134574 	3.950940994e-08 	0.04257937013 	-5.150114382e-08 	8.116811379e-05
0.4844004009 	0.04265033526 	-0.01952277484 	3.685292084e-08 	0.0424722593 	-4.477810634e-08 	8.096393078e-05
0.4848268841 	0.04253754375 	-0.01948084939 	3.406373568e-08 	0.04235568362 	-3.783579167e-08 	8.074170512e-05
0.485261383 	0.04241559457 	-0.01943561306 	3.113471592e-08 	0.04222987072 	-3.067009729e-08 	8.050187078e-05
0.4857040484 	0.04228468869 	-0.01938709115 	2.805840443e-08 	0.04209501895 	-2.327697755e-08 	8.024480583e-05
0.4861550336 	0.04214500109 	-0.01933529083 	2.482710392e-08 	0.04195130068 	-1.565245866e-08 	7.997083885e-05
0.4866144951 	0.04199668375 	-0.01928020118 	2.143295588e-08 	0.04179886534 	-7.79267553e-09 	7.968025474e-05
0.4870825921 	0.04183986834 	-0.01922179288 	1.786803214e-08 	0.04163784221 	3.060990821e-10 	7.937329989e-05
0.487559487 	0.04167466858 	-0.0191600175 	1.412392571e-08 	0.04146834274 	8.648022326e-09 	7.905018679e-05
0.4880453452 	0.04150118279 	-0.01909480652 	1.019169148e-08 	0.04129046323 	1.723656993e-08 	7.871109902e-05
0.4885403351 	0.04131949601 	-0.01902606999 	6.061300773e-09 	0.04110428721 	2.607445129e-08 	7.835619577e-05
0.4890446283 	0.04112968162 	-0.01895369661 	1.72271199e-09 	0.0409098902 	3.516181868e-08 	7.798562103e-05
0.4895583997 	0.04093180339 	-0.01887755831 	-2.830678205e-09 	0.04070733504 	4.450745096e-08 	7.75994946e-05
0.4900818274 	0.04072591724 	-0.01879752735 	-7.591233264e-09 	0.04049668154 	5.410971255e-08 	7.71979305e-05
0.4906150929 	0.04051207284 	-0.01871360046 	-1.242950592e-08 	0.04027807436 	6.387799456e-08 	7.678120445e-05
0.4911583811 	0.04029031554 	-0.01862589385 	-1.727429897e-08 	0.04005088697 	7.466837311e-08 	7.634812213e-05
0.4917118805 	0.040060683 	-0.01853465269 	-2.204639321e-08 	0.03981562564 	8.498361667e-08 	7.589964866e-05
0.4922757829 	0.0398232061 	-0.01844241347 	-2.441454141e-08 	0.03957414998 	9.384618207e-08 	7.543932892e-05
0.4928502838 	0.03957775689 	-0.01834072493 	-3.699802839e-08 	0.03932418644 	1.060540308e-07 	7.496282895e-05
0.4934355824 	0.03932402145 	-0.01822418605 	-5.233004972e-08 	0.03906387948 	1.196341175e-07 	7.446661153e-05
0.4940318817 	0.03906164733 	-0.0181008634 	-5.802101677e-08 	0.03879558437 	1.306190904e-07 	7.395516648e-05
0.4946393885 	0.03879029233 	-0.0179733481 	-6.397462369e-08 	0.03851919367 	1.429462243e-07 	7.3428289e-05
0.4952583133 	0.03850964528 	-0.017841497 	-7.018545143e-08 	0.03823313776 	1.569646742e-07 	7.288298691e-05
0.4958888709 	0.03821940637 	-0.01770517437 	-7.664459629e-08 	0.03793729771 	1.709321736e-07 	7.231903356e-05
0.4965312797 	0.03791928343 	-0.01756424802 	-8.334901835e-08 	0.03763156246 	1.853766045e-07 	7.17362172e-05
0.4971857627 	0.03760899551 	-0.01741858912 	-9.029583114e-08 	0.03731565731 	2.0033725e-07 	7.113401419e-05
0.4978525466 	0.03728826976 	-0.01726807182 	-9.748513245e-08 	0.03698930612 	2.158236396e-07 	7.051189811e-05
0.4985318627 	0.03695683804 	-0.01711257229 	-1.04919854e-07 	0.03665224348 	2.318439062e-07 	6.986936304e-05
0.4992239466 	0.03661443427 	-0.0169519679 	-1.126049505e-07 	0.03630420867 	2.484096838e-07 	6.920591196e-05
0.4999290382 	0.03626079261 	-0.01678613672 	-1.205464403e-07 	0.03594494328 	2.655289317e-07 	6.852105228e-05
0.5006473819 	0.03589564627 	-0.01661495704 	-1.287507268e-07 	0.03557419065 	2.83207578e-07 	6.781429472e-05
0.501379227 	0.03551872611 	-0.01643830678 	-1.372243949e-07 	0.03519169466 	3.014527274e-07 	6.708515104e-05
0.502124827 	0.03512975791 	-0.01625606219 	-1.459745018e-07 	0.03479719753 	3.202754727e-07 	6.633312987e-05
0.5028844406 	0.03472845681 	-0.01606809552 	-1.550092486e-07 	0.03439043532 	3.396926055e-07 	6.555772805e-05
0.5036583311 	0.03431451702 	-0.01587427051 	-1.643388844e-07 	0.03397112282 	3.59727786e-07 	6.475840188e-05
0.5044467669 	0.03388759506 	-0.0156744352 	-1.739767393e-07 	0.03353891813 	3.804135001e-07 	6.393449962e-05
0.5052500214 	0.03344728434 	-0.01546841126 	-1.839402897e-07 	0.03309348371 	4.017858407e-07 	6.30853778e-05
0.506068373 	0.03293427597 	-0.0152284815 	-1.955900813e-07 	0.03257507223 	4.267499925e-07 	6.209714145e-05
0.507324668 	0.03228490588 	-0.01492490934 	-2.104286781e-07 	0.03191944115 	4.585195202e-07 	6.084732637e-05
0.5085949819 	0.03155515013 	-0.01458390748 	-2.27253805e-07 	0.03118317733 	4.945143616e-07 	5.94438029e-05
0.5098794711 	0.03080339702 	-0.01423280831 	-2.447792796e-07 	0.0304254651 	5.319620014e-07 	5.799939279e-05
0.5111782938 	0.03002885885 	-0.01387127586 	-2.630422194e-07 	0.02964570434 	5.709138344e-07 	5.651295207e-05
0.5124916099 	0.02923059294 	-0.01349890511 	-2.820213324e-07 	0.02884308283 	6.113036589e-07 	5.498293239e-05
0.5138195812 	0.02840772686 	-0.01311532782 	-3.015376204e-07 	0.02801688031 	6.527849663e-07 	5.340796076e-05
0.5151623712 	0.02756032821 	-0.0127206146 	-3.207883961e-07 	0.02716726617 	6.93683062e-07 	5.178836007e-05
0.5165201452 	0.02669169633 	-0.01231633396 	-3.37926287e-07 	0.02629764639 	7.299818656e-07 	5.013062308e-05
0.5178930705 	0.02580979132 	-0.01190620795 	-3.511036863e-07 	0.02541614516 	7.576905106e-07 	4.845023672e-05
0.5192813161 	0.02492520981 	-0.01149516591 	-3.595498733e-07 	0.02453349178 	7.75173755e-07 	4.676765406e-05
0.520685053 	0.02404888144 	-0.01108827041 	-3.630051827e-07 	0.02366063859 	7.818003174e-07 	4.510375329e-05
0.522104454 	0.02319172163 	-0.01069054686 	-3.613379816e-07 	0.02280826183 	7.771299069e-07 	4.347888628e-05
0.523539694 	0.02236437514 	-0.01030678641 	-3.549060517e-07 	0.02198125579 	7.691519961e-07 	4.19023829e-05
0.5249909497 	0.02157595464 	-0.009941163341 	-3.44622344e-07 	0.02119792217 	7.381922381e-07 	4.04091313e-05
0.5264583998 	0.02083213168 	-0.009596300174 	-3.324895063e-07 	0.02047448242 	6.920031734e-07 	3.903005408e-05
0.527942225 	0.02012869769 	-0.009164185041 	-4.743155306e-07 	0.01977732098 	6.973175339e-07 	3.77010706e-05
0.5294426081 	0.01945637622 	-0.008642320694 	-5.818006289e-07 	0.01909636706 	7.052023074e-07 	3.640298318e-05
0.5309597337 	0.01881125582 	-0.008146649253 	-5.359704306e-07 	0.01845906276 	6.732893967e-07 	3.518810406e-05
0.5324937889 	0.01819330477 	-0.007677233048 	-5.27805608e-07 	0.0178546615 	6.62984136e-07 	3.403594726e-05
0.5340449624 	0.0176037057 	-0.007223681065 	-5.224014275e-07 	0.01727221015 	6.599483134e-07 	3.292563311e-05
0.5356134452 	0.01704362641 	-0.00678445255 	-5.184103323e-07 	0.01671942298 	6.419646629e-07 	3.187186712e-05
0.5371994306 	0.01651414434 	-0.006359293633 	-5.127304004e-07 	0.01619810555 	6.225673156e-07 	3.087809122e-05
0.5388031139 	0.01601624875 	-0.005949390504 	-5.027412258e-07 	0.01570886099 	6.000692496e-07 	2.99454551e-05
0.5404246925 	0.0155506388 	-0.005555487765 	-4.900381227e-07 	0.01525217747 	5.755433403e-07 	2.907488938e-05
0.5420643661 	0.01511774526 	-0.005177961509 	-4.753672137e-07 	0.01482830808 	5.49462132e-07 	2.826687652e-05
0.5437223366 	0.0147177901 	-0.004817110927 	-4.595875604e-07 	0.01443744118 	5.218327586e-07 	2.752177556e-05
0.5453988083 	0.01435073732 	-0.004472838938 	-4.434098475e-07 	0.01407949364 	4.928334635e-07 	2.683942806e-05
0.5470939875 	0.01401628105 	-0.004144872866 	-4.271829687e-07 	0.01375411559 	4.626198292e-07 	2.621916708e-05
0.5488080831 	0.01371388182 	-0.003832793121 	-4.110391133e-07 	0.01346075101 	4.313985464e-07 	2.565993264e-05
0.5505413061 	0.01344281223 	-0.003536071234 	-3.950328714e-07 	0.01319864355 	3.994386874e-07 	2.516028297e-05
0.5522938699 	0.01320221944 	-0.003254096109 	-3.792103743e-07 	0.01296688568 	3.669846186e-07 	2.471848806e-05
0.5540659904 	0.01299118806 	-0.002986306695 	-3.633225761e-07 	0.01276454559 	3.341220161e-07 	2.433277162e-05
0.5558578859 	0.01280890254 	-0.002732233849 	-3.476370816e-07 	0.01259085635 	3.007324161e-07 	2.400167165e-05
0.5576697768 	0.01265474003 	-0.002490574203 	-3.334719658e-07 	0.01244518645 	2.670288234e-07 	2.372398434e-05
0.5595018865 	0.01252760151 	-0.002259452798 	-3.207440016e-07 	0.01232642879 	2.341042409e-07 	2.349759922e-05
0.5613544406 	0.0124253463 	-0.002037887211 	-3.084139614e-07 	0.01223254936 	2.031291725e-07 	2.331863894e-05
0.563227667 	0.01234535547 	-0.00182529143 	-2.966168647e-07 	0.01216100834 	1.745733393e-07 	2.318226188e-05
0.5651217966 	0.01228514369 	-0.001620797433 	-2.856600301e-07 	0.01210930514 	1.484234329e-07 	2.308370121e-05
0.5670370626 	0.01224246616 	-0.001423520776 	-2.755159965e-07 	0.01207519309 	1.245199616e-07 	2.301867415e-05
0.5689737009 	0.01221530966 	-0.001232647925 	-2.661487862e-07 	0.0120566842 	1.027181892e-07 	2.298339106e-05
0.5709319499 	0.01220187936 	-0.001047437757 	-2.575104231e-07 	0.01205200318 	8.288182895e-08 	2.297446775e-05
0.5729120508 	0.01220057652 	-0.0008672207431 	-2.495498493e-07 	0.01205956747 	6.487730596e-08 	2.298888738e-05
0.5749142474 	0.01220999881 	-0.0006913958083 	-2.422132008e-07 	0.01207798899 	4.853055559e-08 	2.302400392e-05
0.5769387863 	0.01222891425 	-0.0005194251127 	-2.354483478e-07 	0.01210604846 	3.370039406e-08 	2.307749307e-05
0.5789859169 	0.01225622806 	-0.0003508281767 	-2.292063016e-07 	0.01214266181 	2.028010363e-08 	2.314728829e-05
0.5810558911 	0.01229098251 	-0.0001851754145 	-2.234383659e-07 	0.0121868811 	8.131763304e-09 	2.323158254e-05
0.583148964 	0.01233234057 	-2.210460689e-05 	-2.181053874e-07 	0.01223787554 	-2.854393284e-09 	2.332879212e-05
0.5852653933 	0.01237957028 	0.0001387231171 	-2.131704663e-07 	0.01229491901 	-1.274423051e-08 	2.343753283e-05
0.5874054395 	0.01243203048 	0.0002976506555 	-2.085894991e-07 	0.01235737735 	-2.163904822e-08 	2.355659579e-05
0.5895693664 	0.01248916061 	0.0004549449144 	-2.043232449e-07 	0.01242469185 	-2.966714959e-08 	2.368491594e-05
0.5917574402 	0.01255047181 	0.0006108254631 	-2.003387747e-07 	0.01249637394 	-3.690979937e-08 	2.382156192e-05
0.5939699306 	0.01261553662 	0.0007655094074 	-1.966027131e-07 	0.01257199668 	-4.343891901e-08 	2.396571987e-05
0.5962071099 	0.01268398106 	0.0009191894121 	-1.930825341e-07 	0.0126511852 	-4.931626309e-08 	2.411667521e-05
0.5984692536 	0.01275547755 	0.0010720389 	-1.897563609e-07 	0.01273361071 	-5.459457701e-08 	2.427380114e-05
0.6007566404 	0.0128297384 	0.001224206665 	-1.865641035e-07 	0.01281898304 	-5.930751906e-08 	2.443654453e-05
0.6030695519 	0.0129065113 	0.001375839729 	-1.835645153e-07 	0.01290704764 	-6.349882818e-08 	2.460442014e-05
0.6054082729 	0.01298557257 	0.001527076086 	-1.80780016e-07 	0.01299757941 	-6.721716494e-08 	2.477699885e-05
0.6077730914 	0.01306672196 	0.001678014091 	-1.781074724e-07 	0.01309037707 	-7.050990034e-08 	2.495389697e-05
0.6101642987 	0.01314978424 	0.001828748634 	-1.755311346e-07 	0.01318526041 	-7.341008808e-08 	2.5134771e-05
0.6125821893 	0.01323460625 	0.001979372891 	-1.730172023e-07 	0.01328207651 	-7.596563691e-08 	2.53193294e-05
0.6150270608 	0.01332105316 	0.002129960468 	-1.705643544e-07 	0.01338068704 	-7.819774731e-08 	2.550730847e-05
0.6174992144 	0.0134090029 	0.002280585798 	-1.68210456e-07 	0.0134809564 	-8.007663937e-08 	2.569844974e-05
0.6199989545 	0.01349834484 	0.002431322128 	-1.659319029e-07 	0.01358277523 	-8.165577937e-08 	2.589254472e-05
0.622526589 	0.01358898116 	0.002582225741 	-1.636995879e-07 	0.01368604462 	-8.296166015e-08 	2.608940489e-05
0.625082429 	0.01368082268 	0.002733341723 	-1.615159268e-07 	0.01379066576 	-8.398769556e-08 	2.628884185e-05
0.6276667894 	0.01377378784 	0.00288471133 	-1.593763405e-07 	0.01389655274 	-8.476232209e-08 	2.649069187e-05
0.6302799884 	0.01386780169 	0.003036369976 	-1.572728357e-07 	0.01400362636 	-8.52961527e-08 	2.669480394e-05
0.6329223478 	0.01396279492 	0.003188347075 	-1.551971562e-07 	0.0141118126 	-8.56012455e-08 	2.6901037e-05
0.6355941931 	0.01405870298 	0.003340666042 	-1.531407866e-07 	0.01422104215 	-8.568758675e-08 	2.710925887e-05
0.6382958531 	0.01415546535 	0.003493344322 	-1.510954312e-07 	0.01433124957 	-8.556386364e-08 	2.731934485e-05
0.6410276607 	0.01425302485 	0.003646393425 	-1.490531166e-07 	0.01444237268 	-8.523752099e-08 	2.753117638e-05
0.6437899523 	0.01435132708 	0.003799818901 	-1.470062058e-07 	0.01455435191 	-8.471503841e-08 	2.774463991e-05
0.646583068 	0.01445031991 	0.003953620258 	-1.449473257e-07 	0.01466712982 	-8.400212503e-08 	2.795962595e-05
0.6494073518 	0.01454995306 	0.00410779079 	-1.428692489e-07 	0.01478065067 	-8.310387218e-08 	2.817602825e-05
0.6522631514 	0.01465017779 	0.004262317345 	-1.407647459e-07 	0.01489486009 	-8.202486361e-08 	2.839374314e-05
0.6551508186 	0.0147509466 	0.004417179989 	-1.386264252e-07 	0.01500970472 	-8.076925434e-08 	2.861266894e-05
0.658070709 	0.01485221302 	0.004572351574 	-1.364465659e-07 	0.01512513204 	-7.934082728e-08 	2.883270548e-05
0.6610231822 	0.01495393148 	0.004727797198 	-1.342169458e-07 	0.0152410901 	-7.774303421e-08 	2.905375378e-05
0.6640086017 	0.01505605723 	0.00488347352 	-1.319286649e-07 	0.01535752741 	-7.597903263e-08 	2.927571565e-05
0.6670273351 	0.0151585463 	0.005039327939 	-1.29571961e-07 	0.01547439286 	-7.405170423e-08 	2.949849368e-05
0.6700797543 	0.01526135554 	0.005195297745 	-1.271359898e-07 	0.01559163559 	-7.196368252e-08 	2.972199091e-05
0.6731662352 	0.01536444277 	0.005351308285 	-1.246086968e-07 	0.015709205 	-6.971737596e-08 	2.994611087e-05
0.6762871577 	0.01546776692 	0.005507272319 	-1.219764738e-07 	0.01582705084 	-6.73149609e-08 	3.017075781e-05
0.6794429063 	0.01557128827 	0.005663086906 	-1.19224045e-07 	0.01594512296 	-6.475842153e-08 	3.039583608e-05
0.6826338695 	0.01567496871 	0.005818632761 	-1.163341045e-07 	0.01606337185 	-6.20495275e-08 	3.062125134e-05
0.6858604404 	0.01577877207 	0.005973771645 	-1.132870276e-07 	0.0161817488 	-5.91898315e-08 	3.08469107e-05
0.6891230163 	0.0158826647 	0.006128341029 	-1.100608312e-07 	0.01630020538 	-5.618071792e-08 	3.107272185e-05
0.6924219988 	0.01598661596 	0.006282152067 	-1.06630799e-07 	0.0164186942 	-5.302336615e-08 	3.129859449e-05
0.6957577944 	0.0160905989 	0.006434984507 	-1.029694131e-07 	0.01653716923 	-4.971875923e-08 	3.152444083e-05
0.6991308138 	0.01619459097 	0.006586581216 	-9.904638155e-08 	0.01665558591 	-4.626771963e-08 	3.175017592e-05
0.7025414724 	0.01629857488 	0.006736641761 	-9.482892623e-08 	0.01677390168 	-4.267094068e-08 	3.197571867e-05
0.7059901901 	0.01640253952 	0.00688481503 	-9.028248687e-08 	0.01689207655 	-3.892906111e-08 	3.220099282e-05
0.7094773917 	0.01650648098 	0.007030691012 	-8.537206976e-08 	0.01701007376 	-3.504278572e-08 	3.242592828e-05
0.7130035066 	0.01661040363 	0.007173792058 	-8.006453892e-08 	0.01712786066 	-3.101307428e-08 	3.265046287e-05
0.7165689691 	0.0167143212 	0.007313564327 	-7.433219673e-08 	0.01724541008 	-2.684147659e-08 	3.287454473e-05
0.7201742182 	0.01681825781 	0.007449370674 	-6.815795801e-08 	0.01736270205 	-2.253060739e-08 	3.309813581e-05
0.7238196978 	0.01692224887 	0.007580487633 	-6.154206822e-08 	0.01747972682 	-1.808468725e-08 	3.332121756e-05
0.727505857 	0.01702634179 	0.007706113927 	-5.451073356e-08 	0.01759649087 	-1.351214073e-08 	3.354380229e-05
0.7312331497 	0.01713059631 	0.007825403651 	-4.712397554e-08 	0.01771301044 	-8.818915243e-09 	3.376592097e-05
0.7350020349 	0.01723480831 	0.007937266056 	-3.949799872e-08 	0.01782900919 	-4.027964927e-09 	3.398704683e-05
0.7387709215 	0.017338191 	0.008040378177 	-3.185947152e-08 	0.01794378092 	7.542311133e-10 	3.420583366e-05
0.7424982157 	0.01743999064 	0.008134112492 	-2.432014318e-08 	0.01805560428 	5.891862699e-09 	3.441900006e-05
0.7461843763 	0.01754008896 	0.008219357251 	-1.681316884e-08 	0.01816454738 	1.02898806e-08 	3.462667587e-05
0.7498298574 	0.01763864923 	0.00830146861 	-9.704698098e-09 	0.01827341626 	1.384980509e-08 	3.483421022e-05
0.7534351078 	0.01773662485 	0.008372821467 	3.916782138e-09 	0.01837949566 	1.948708168e-08 	3.503642704e-05
0.7570005716 	0.01783531254 	0.008426247752 	1.522680186e-08 	0.01847968563 	2.404993392e-08 	3.522741698e-05
0.7605266877 	0.01793534943 	0.008473074071 	1.738397825e-08 	0.01857763624 	2.591714111e-08 	3.541413807e-05
0.7640138905 	0.01803700787 	0.00851976326 	1.959736315e-08 	0.01867465952 	3.029235466e-08 	3.55990914e-05
0.7674626093 	0.01814012083 	0.008566429245 	2.180805455e-08 	0.01876956583 	3.776339686e-08 	3.57800092e-05
0.770873269 	0.01824407623 	0.008613102524 	2.40195565e-08 	0.01886327497 	4.615858762e-08 	3.595864486e-05
0.7742462894 	0.01834809798 	0.008659766801 	2.627295297e-08 	0.01895698727 	5.326128348e-08 	3.613728656e-05
0.777582086 	0.01845156487 	0.008706377005 	2.864970248e-08 	0.01905121059 	5.639562988e-08 	3.63169024e-05
0.7808810695 	0.0185541488 	0.008752857379 	3.116817452e-08 	0.01914600019 	5.542231802e-08 	3.649759772e-05
0.7841436462 	0.01865562559 	0.008799104664 	3.370450277e-08 	0.01924119689 	5.407750652e-08 	3.66790691e-05
0.787370218 	0.0187555046 	0.008844992972 	3.600906556e-08 	0.0193368364 	5.835879092e-08 	3.686138458e-05
0.7905611821 	0.01885286052 	0.008890389839 	3.784919229e-08 	0.01943335597 	7.214379821e-08 	3.704537769e-05
0.7937169314 	0.01894672555 	0.008935192345 	3.921114047e-08 	0.0195312882 	9.275505024e-08 	3.723206374e-05
0.7968378547 	0.01903699508 	0.008979381401 	4.043588035e-08 	0.0196304979 	1.098842992e-07 	3.742118501e-05
0.7999243362 	0.01912531284 	0.009023075984 	4.216634379e-08 	0.01972945103 	1.102318689e-07 	3.760981718e-05
0.8029767561 	0.01921523128 	0.009066553996 	4.496382865e-08 	0.01982524773 	8.777340055e-08 	3.779243232e-05
0.8059954902 	0.01931097514 	0.009110199173 	4.871728974e-08 	0.01991496226 	5.346619733e-08 	3.796345314e-05
0.8089809102 	0.0194149134 	0.009154371637 	5.249358003e-08 	0.01999788682 	3.355619818e-08 	3.81215304e-05
0.8119333839 	0.01952545057 	0.009199280545 	5.515990465e-08 	0.02007708395 	5.340050354e-08 	3.827250215e-05
0.8148532749 	0.01963730493 	0.009244947603 	5.614033367e-08 	0.02015868218 	1.178372702e-07 	3.842805105e-05
0.8177409426 	0.01974431961 	0.009291257947 	5.572128168e-08 	0.0202488906 	2.014513042e-07 	3.860001338e-05
0.8205967427 	0.01984323118 	0.009338044148 	5.517289888e-08 	0.02035019659 	2.544690433e-07 	3.879313074e-05
0.8234210268 	0.01993658831 	0.00938519121 	5.666197964e-08 	0.02045874706 	2.267877431e-07 	3.90000581e-05
0.8262141429 	0.02003299634 	0.00943273288 	6.192619381e-08 	0.02056500148 	1.068545916e-07 	3.920260856e-05
0.8289764348 	0.02014269487 	0.009480803638 	7.008941289e-08 	0.02065888762 	-4.907928326e-08 	3.938158165e-05
0.8317082427 	0.02026926553 	0.009529390703 	7.766391124e-08 	0.02073754082 	-1.345032372e-07 	3.953151651e-05
0.8344099031 	0.02040353983 	0.009578131002 	8.130052462e-08 	0.02081004484 	-5.845431213e-08 	3.966972932e-05
0.8370817486 	0.02052600356 	0.009626383402 	7.917716151e-08 	0.02089443116 	1.895620275e-07 	3.98305931e-05
0.8397241082 	0.02061716252 	0.009673419562 	7.0431849e-08 	0.02100775944 	5.145937458e-07 	4.004662829e-05
0.8423373074 	0.02067009911 	0.009718625346 	5.780413526e-08 	0.02115420998 	7.370921975e-07 	4.032580374e-05
0.844921668 	0.02069959419 	0.009762020844 	5.180615842e-08 	0.02131721036 	6.716604827e-07 	4.063652775e-05
0.8474775082 	0.0207415689 	0.009804939262 	6.38107307e-08 	0.02146240189 	2.59766901e-07 	4.091330316e-05
0.8500051427 	0.02083663486 	0.009849634996 	8.96053424e-08 	0.02155512065 	-3.301281263e-07 	4.109005089e-05
0.8525048829 	0.02100265594 	0.009897491806 	1.111096582e-07 	0.02158476583 	-7.59881934e-07 	4.114656285e-05
0.8549770366 	0.02121786837 	0.009948039256 	1.196837471e-07 	0.02157750132 	-7.538677671e-07 	4.113271468e-05
0.8574219081 	0.02143181347 	0.01000018155 	1.214051071e-07 	0.02158376449 	-2.760141e-07 	4.114465401e-05
0.8598397987 	0.02159331908 	0.01005334476 	1.165700385e-07 	0.02165152993 	5.041696453e-07 	4.127383378e-05
0.862231006 	0.02167283352 	0.010106676 	9.3859968e-08 	0.02180536961 	1.279524841e-06 	4.156709496e-05
0.8645958245 	0.02167426795 	0.01015833048 	5.519624778e-08 	0.02203407628 	1.663238073e-06 	4.200307344e-05
0.8669345455 	0.02164159265 	0.01020725642 	3.36479066e-08 	0.02228756405 	1.360077167e-06 	4.248629158e-05
0.8692474569 	0.02165002117 	0.01025568661 	5.915036701e-08 	0.02249295948 	4.08227567e-07 	4.287783237e-05
0.8715348435 	0.02176778276 	0.01030775662 	1.105887007e-07 	0.02259269248 	-7.155601641e-07 	4.306795118e-05
0.8737969871 	0.0220071969 	0.01036482316 	1.435912926e-07 	0.02258462765 	-1.380687672e-06 	4.305257737e-05
0.8760341663 	0.02231116577 	0.01042447921 	1.528552739e-07 	0.02252745004 	-1.270713935e-06 	4.294358096e-05
0.8782466565 	0.02259136595 	0.01048445289 	1.600523748e-07 	0.02250388777 	-4.739530243e-07 	4.289866471e-05
0.8804347301 	0.02277549928 	0.01054425002 	1.613874656e-07 	0.02257869922 	6.662685463e-07 	4.304127613e-05
0.8825986568 	0.02282912209 	0.01060246563 	1.272442819e-07 	0.02277565982 	1.798705794e-06 	4.341673779e-05
0.8847387028 	0.02276876665 	0.01065565938 	5.929586473e-08 	0.0230750918 	2.417938994e-06 	4.398753836e-05
0.8868551318 	0.02267091168 	0.01069001616 	-5.267439778e-07 	0.02340251122 	1.885197708e-06 	4.461169078e-05
0.8889482045 	0.02263730696 	0.01065888058 	-6.07476147e-07 	0.02364276587 	7.029769204e-07 	4.506968292e-05
0.8910181784 	0.02272046186 	0.01062006768 	5.762507851e-07 	0.02375519878 	-2.88869936e-07 	4.528401129e-05
0.8930653087 	0.02291429046 	0.01070206781 	1.28692376e-06 	0.02378944796 	-1.281276504e-06 	4.534929976e-05
0.8950898473 	0.02319994762 	0.01086398743 	7.367324101e-07 	0.02376297746 	-2.13859912e-06 	4.529883962e-05
0.8970920436 	0.02354499481 	0.01097815556 	1.960654666e-07 	0.02368022785 	-2.033783655e-06 	4.514109587e-05
0.8990721441 	0.02388363993 	0.01104410007 	2.138681009e-07 	0.02361732315 	-8.767594684e-07 	4.502118202e-05
0.9010303927 	0.02414754063 	0.0111130934 	2.371218863e-07 	0.02365615407 	6.669309112e-07 	4.509520455e-05
0.9029670306 	0.02430342555 	0.01118565579 	2.299514763e-07 	0.02381715077 	2.101278842e-06 	4.5402109e-05
0.9048822962 	0.02435456313 	0.01125995175 	1.718813319e-07 	0.02408426907 	3.090479944e-06 	4.591131073e-05
0.9067764254 	0.02433619064 	0.01132935097 	-7.021146993e-08 	0.02441706259 	3.272886068e-06 	4.654570766e-05
0.9086496514 	0.02430081779 	0.0113916776 	-4.807521225e-07 	0.02476204466 	2.650854552e-06 	4.720333937e-05
0.910502205 	0.02429799453 	0.01145322454 	-4.277037393e-07 	0.02507268028 	1.727364648e-06 	4.77954972e-05
0.9123343142 	0.0243651124 	0.01153243571 	-4.689734492e-08 	0.02532116627 	7.13277408e-07 	4.826918056e-05
0.9141462048 	0.02452612397 	0.0116204333 	1.000520413e-07 	0.02548954827 	-3.35229369e-07 	4.859016346e-05
0.9159380997 	0.02478119156 	0.01170468954 	1.503190416e-07 	0.0255831256 	-1.076114834e-06 	4.876854786e-05
0.9177102197 	0.0251022293 	0.01179593135 	1.848628506e-07 	0.02564053605 	-1.350791587e-06 	4.887798812e-05
0.9194627831 	0.02545049927 	0.01189302036 	2.096527076e-07 	0.02570099674 	-1.272559069e-06 	4.899324301e-05
0.9211960055 	0.02579621866 	0.01199524429 	2.318943969e-07 	0.02579101111 	-1.005280516e-06 	4.916483542e-05
0.9229101006 	0.0261244217 	0.01210224929 	2.534547446e-07 	0.02592326797 	-6.543153642e-07 	4.941695375e-05
0.9246052793 	0.02643037262 	0.01221370357 	2.719756454e-07 	0.02609889511 	-2.500537517e-07 	4.97517479e-05
0.9262817504 	0.02671328846 	0.01232911005 	2.827491441e-07 	0.02631473568 	1.997596261e-07 	5.01632e-05
0.9279397204 	0.02697372057 	0.01244781681 	2.813098414e-07 	0.02656573539 	6.413130281e-07 	5.064167521e-05
0.9295793934 	0.02721547846 	0.01256914994 	2.674211915e-07 	0.02684527493 	9.786339633e-07 	5.117455527e-05
0.9312009714 	0.02744685975 	0.01269262183 	2.464424118e-07 	0.02714360525 	1.142575006e-06 	5.174325578e-05
0.9328046541 	0.02767908513 	0.0128180976 	2.260442499e-07 	0.02744958694 	1.129157807e-06 	5.232654192e-05
0.9343906389 	0.02792230088 	0.01294578434 	2.117853435e-07 	0.02775463937 	9.970928712e-07 	5.290805665e-05
0.9359591211 	0.02818255941 	0.01307603813 	2.052896298e-07 	0.02805424634 	8.216638485e-07 	5.34791908e-05