0 	0.03030666491 	-1.237964441e-15 	-5.944859451e-21 	-2.326940546e-16 	1.015964183e-17 	-4.435795421e-19
0.0003162438639 	0.03030750727 	-1.87919067e-05 	5.951855849e-10 	0.03232709491 	-5.363820728e-07 	6.162442774e-05
0.0006324872147 	0.0303101 	-9.24893239e-05 	1.309312314e-09 	0.03240389717 	-4.900832749e-07 	6.177083421e-05
0.0009487300517 	0.03031447384 	-0.0001371454573 	1.769674925e-09 	0.03241284799 	-4.441507002e-07 	6.178789695e-05
0.001264972374 	0.03032061123 	-0.0001830611631 	2.108390649e-09 	0.03242904867 	-3.982589763e-07 	6.181877996e-05
0.001581214182 	0.0303284994 	-0.0002286264 	2.3240366e-09 	0.03243670203 	-3.523944736e-07 	6.183336939e-05
0.001897455474 	0.03033812559 	-0.0002741760451 	2.416735822e-09 	0.03244601589 	-3.064681223e-07 	6.18511242e-05
0.00221369625 	0.03034947521 	-0.0003197236568 	2.386707631e-09 	0.032456574 	-2.604203627e-07 	6.187125089e-05
0.002529936509 	0.0303625314 	-0.0003652849914 	2.234100527e-09 	0.03246868458 	-2.141904148e-07 	6.189433701e-05
0.002846176252 	0.03037727472 	-0.0004108652171 	1.959114364e-09 	0.03248231139 	-1.677184457e-07 	6.192031349e-05
0.003162415477 	0.03039368297 	-0.0004564671361 	1.561990557e-09 	0.03249751873 	-1.209448073e-07 	6.194930291e-05
0.003478654184 	0.03041173097 	-0.0005020923551 	1.043003967e-09 	0.03251434221 	-7.381035719e-08 	6.198137315e-05
0.003794892374 	0.03043139045 	-0.0005477421662 	4.024509551e-10 	0.03253281252 	-2.625658913e-08 	6.201658268e-05
0.003968165635 	0.03044302745 	-0.0005727684318 	-2.307674813e-10 	0.03254384744 	-4.904879313e-05 	6.203761831e-05
0.004111130046 	0.03045264225 	-0.000593418323 	3.846381415e-10 	0.03255297401 	-2.26189875e-08 	6.20550161e-05
0.004427367199 	0.03047545377 	-0.0006391222533 	1.329844238e-09 	0.03257485427 	-7.307241986e-08 	6.209672596e-05
0.004743603834 	0.03049977133 	-0.0006848544814 	2.40480952e-09 	0.0325984515 	-1.241435525e-07 	6.214170883e-05
0.005059839951 	0.03052555256 	-0.0007306162017 	3.609426957e-09 	0.0326237859 	-1.758868594e-07 	6.219000324e-05
0.005376075549 	0.03055275121 	-0.0007764086413 	4.943654207e-09 	0.03265087638 	-2.283541681e-07 	6.224164522e-05
0.005692310629 	0.03058131701 	-0.0008222330554 	6.40753349e-09 	0.03267974037 	-2.815941827e-07 	6.229666802e-05
0.00600854519 	0.03061119558 	-0.000868090735 	8.0011997e-09 	0.03271039364 	-3.356519681e-07 	6.235510165e-05
0.006324779232 	0.0306423283 	-0.0009139830074 	9.724902886e-09 	0.0327428499 	-3.905684244e-07 	6.241697231e-05
0.006641012757 	0.03067465224 	-0.0009599112373 	1.157902235e-08 	0.03277712056 	-4.463797583e-07 	6.248230172e-05
0.006957245763 	0.03070810015 	-0.001005876836 	1.35640736e-08 	0.03281321433 	-5.031169372e-07 	6.255110647e-05
0.007273478252 	0.03074260039 	-0.001051881259 	1.568072727e-08 	0.03285113684 	-5.608051782e-07 	6.262339732e-05
0.007589710222 	0.030778077 	-0.00109792602 	1.792980362e-08 	0.03289089035 	-6.194634493e-07 	6.269917856e-05
0.007905941676 	0.03081444976 	-0.00114401268 	2.031228556e-08 	0.03293247325 	-6.791040088e-07 	6.277844712e-05
0.008222172613 	0.03085163428 	-0.001190142895 	2.28293112e-08 	0.03297587965 	-7.397320755e-07 	6.286119179e-05
0.008538403033 	0.03088954212 	-0.001236317917 	2.54821502e-08 	0.03302109984 	-8.013456344e-07 	6.294739403e-05
0.008854632937 	0.0309280808 	-0.001282542996 	2.827206072e-08 	0.03306812551 	-8.63937333e-07 	6.303703802e-05
0.009170862325 	0.03096715339 	-0.001328790689 	3.120165143e-08 	0.0331169369 	-9.27489197e-07 	6.313008611e-05
0.009487091199 	0.03101228648 	-0.001381006126 	3.442549329e-08 	0.03317462136 	-9.931357408e-07 	6.324004873e-05
0.009978436983 	0.03107002989 	-0.001445501187 	3.928816577e-08 	0.0332494059 	-1.093843986e-06 	6.338260883e-05
0.01047901633 	0.03113620624 	-0.001516970699 	4.475434746e-08 	0.03333570929 	-1.199303884e-06 	6.354712709e-05
0.01098900275 	0.03120566148 	-0.00158985307 	5.071126482e-08 	0.03342690425 	-1.308354952e-06 	6.372097003e-05
0.01150857298 	0.03127833172 	-0.001664211757 	5.719392358e-08 	0.03352304961 	-1.42089966e-06 	6.39042498e-05
0.01203790712 	0.03135414793 	-0.00174007089 	6.425626512e-08 	0.0336242076 	-1.536825786e-06 	6.409708506e-05
0.01257718863 	0.03143303 	-0.001817461648 	7.194201821e-08 	0.03373043215 	-1.655967947e-06 	6.429957857e-05
0.01312660441 	0.03151488929 	-0.001896418111 	8.027704066e-08 	0.03384175743 	-1.778109988e-06 	6.45117955e-05
0.01368634489 	0.03159963432 	-0.001976974499 	8.929757534e-08 	0.03395819945 	-1.903027298e-06 	6.473376634e-05
0.01425660407 	0.0316871685 	-0.002059166446 	9.905047776e-08 	0.03407975801 	-2.030509671e-06 	6.496549075e-05
0.01483757959 	0.03177738548 	-0.002143032083 	1.096172712e-07 	0.03420641941 	-2.160358079e-06 	6.520694258e-05
0.01542947281 	0.031870168 	-0.002228611723 	1.210584726e-07 	0.03433815735 	-2.292328825e-06 	6.545807171e-05
0.01603248888 	0.03196538971 	-0.002315949064 	1.333985473e-07 	0.03447493282 	-2.426120209e-06 	6.571880377e-05
0.01664683679 	0.03206292235 	-0.0024050883 	1.466911013e-07 	0.03461669192 	-2.56142186e-06 	6.598903601e-05
0.01727272946 	0.03216263836 	-0.002496074318 	1.610018527e-07 	0.0347633666 	-2.697927395e-06 	6.626863872e-05
0.01791038382 	0.03226440962 	-0.002588954974 	1.763844516e-07 	0.03491487539 	-2.835325854e-06 	6.655745659e-05
0.01856002087 	0.03236810949 	-0.002683776324 	1.928945923e-07 	0.03507112567 	-2.973304464e-06 	6.685531304e-05
0.01922186577 	0.03247361469 	-0.002780620757 	2.105964962e-07 	0.03523201999 	-3.11155046e-06 	6.716202233e-05
0.0198961479 	0.03258090916 	-0.002879612469 	2.295637459e-07 	0.03539760377 	-3.249761257e-06 	6.747767105e-05
0.02058563618 	0.03269006344 	-0.002980875108 	2.498721813e-07 	0.03556802564 	-3.388113141e-06 	6.780254249e-05
0.0212899146 	0.03280096161 	-0.003084528164 	2.716101484e-07 	0.03574312933 	-3.526389559e-06 	6.813633879e-05
0.0220074278 	0.03291335005 	-0.003190514801 	2.948270262e-07 	0.03592252592 	-3.664035191e-06 	6.847831855e-05
0.02273842446 	0.03302708225 	-0.003298771061 	3.195517994e-07 	0.03610596657 	-3.800806018e-06 	6.882800741e-05
0.02348315793 	0.03314209683 	-0.003409377462 	3.458517504e-07 	0.03629331704 	-3.936478377e-06 	6.918514949e-05
0.0242418863 	0.03325834902 	-0.003522393184 	3.73787024e-07 	0.03648444324 	-4.070845745e-06 	6.954948915e-05
0.02501487254 	0.03337581189 	-0.003637880944 	4.034182252e-07 	0.0366792083 	-4.20371657e-06 	6.992076547e-05
0.02580238453 	0.03349447746 	-0.003755904591 	4.34805473e-07 	0.03687747768 	-4.334917163e-06 	7.029872203e-05
0.0266046952 	0.03361435754 	-0.003876529288 	4.680084408e-07 	0.03707911856 	-4.464291785e-06 	7.068310559e-05
0.02742208261 	0.03373548435 	-0.0039998215 	5.030863187e-07 	0.03728400101 	-4.591703505e-06 	7.107366849e-05
0.02825483002 	0.03385791087 	-0.004125848984 	5.400977732e-07 	0.03749199879 	-4.717034858e-06 	7.147017005e-05
0.02910322604 	0.03398171091 	-0.004254680782 	5.791009023e-07 	0.03770299007 	-4.840188593e-06 	7.187237807e-05
0.02996756467 	0.03410697892 	-0.004386387211 	6.201531776e-07 	0.03791685822 	-4.961088489e-06 	7.228007021e-05
0.03084814547 	0.03423382952 	-0.00452103985 	6.386417537e-07 	0.03813349243 	-4.890758779e-06 	7.269303523e-05
0.03174527359 	0.03436239681 	-0.004658711525 	6.392018571e-07 	0.03835278838 	-4.686850554e-06 	7.311107427e-05
0.03265925995 	0.03449283338 	-0.004799476277 	6.382055734e-07 	0.03857464885 	-4.481498846e-06 	7.353400198e-05
0.03359042126 	0.03462530912 	-0.004943409333 	6.355625044e-07 	0.0387989843 	-4.275122139e-06 	7.396164769e-05
0.03453908024 	0.03476000983 	-0.005090587053 	6.311826354e-07 	0.03902571342 	-4.068118979e-06 	7.439385641e-05
0.03550556561 	0.03489713563 	-0.005241086877 	6.24976446e-07 	0.0392547639 	-3.860866243e-06 	7.483049028e-05
0.03649021232 	0.0350368992 	-0.005394987448 	6.168550969e-07 	0.03948607172 	-3.653716841e-06 	7.527142728e-05
0.03749336157 	0.03517952388 	-0.005552366896 	6.067300002e-07 	0.03971958209 	-3.446998379e-06 	7.571656294e-05
0.038515361 	0.03532524167 	-0.005713318828 	5.945171858e-07 	0.03995525907 	-3.24101326e-06 	7.616582879e-05
0.03955656474 	0.03547434991 	-0.005877976289 	5.801347278e-07 	0.04019315823 	-3.036020227e-06 	7.661933069e-05
0.04061897128 	0.03562731934 	-0.006046576433 	5.634440289e-07 	0.04043359496 	-2.831851064e-06 	7.707766993e-05
0.04170592738 	0.03578451611 	-0.006219455744 	5.442727762e-07 	0.04067673057 	-2.628111613e-06 	7.754115398e-05
0.04281330888 	0.03594597464 	-0.006396477393 	5.22691737e-07 	0.0409222154 	-2.426091432e-06 	7.80091163e-05
0.04394149956 	0.03611178021 	-0.006577440969 	4.985740334e-07 	0.04116979586 	-2.225945038e-06 	7.848107347e-05
0.04509089038 	0.03628217556 	-0.006762492284 	4.718573311e-07 	0.04141950174 	-2.027767855e-06 	7.895708227e-05
0.04626187968 	0.03645739766 	-0.006951708486 	4.424668083e-07 	0.04167137282 	-1.831614931e-06 	7.943721856e-05
0.04745487325 	0.03663767601 	-0.007145172555 	4.103322148e-07 	0.04192545054 	-1.637497806e-06 	7.992156131e-05
0.04867028451 	0.0368232308 	-0.007342966303 	3.753864638e-07 	0.04218179257 	-1.445387282e-06 	8.041022046e-05
0.04990853467 	0.03701427144 	-0.007545170625 	3.375660347e-07 	0.04244046458 	-1.255211329e-06 	8.09033212e-05
0.05117005282 	0.03721099497 	-0.00775186539 	2.968111861e-07 	0.04270154134 	-1.066856602e-06 	8.140100607e-05
0.05245527612 	0.03741358478 	-0.007963129052 	2.53066292e-07 	0.04296510538 	-8.801661399e-07 	8.190343239e-05
0.05376464996 	0.03762220959 	-0.008179039063 	2.062762787e-07 	0.04323124628 	-6.949428021e-07 	8.241077092e-05
0.05509862807 	0.03783702275 	-0.008399669906 	1.564030555e-07 	0.04350005808 	-5.10954757e-07 	8.292320092e-05
0.05645767272 	0.0380581587 	-0.008625094521 	1.033951385e-07 	0.04377163556 	-3.27925978e-07 	8.344090307e-05
0.05784225486 	0.03828573322 	-0.008855391418 	4.721470078e-08 	0.0440460853 	-1.455508712e-07 	8.396408055e-05
0.05896831121 	0.03847265611 	-0.009043215839 	-1.543104095e-07 	0.04426762138 	-6.885697429e-06 	8.43863899e-05
0.05925285427 	0.03851988468 	-0.009090686834 	1.235256645e-08 	0.04432359149 	-3.634793121e-08 	8.449308449e-05
0.06069116533 	0.03876099145 	-0.009331263022 	7.589902108e-08 	0.04460465743 	-2.179076944e-07 	8.502887428e-05
0.06216301825 	0.03900938902 	-0.009577338383 	1.42975551e-07 	0.04488962189 	-4.009256158e-07 	8.557209574e-05
0.06366252918 	0.03929784951 	-0.009861155735 	2.138775144e-07 	0.04521492063 	-5.845037936e-07 	8.619220557e-05
0.06596449752 	0.03966113957 	-0.01021536923 	3.257570592e-07 	0.0456171129 	-8.633675677e-07 	8.695889581e-05
0.06829214033 	0.04006553841 	-0.01060619858 	4.444769535e-07 	0.04605639088 	-1.141848555e-06 	8.779628174e-05
0.07064574395 	0.0404781422 	-0.01100256327 	5.691332208e-07 	0.04649628161 	-1.421675465e-06 	8.863483572e-05
0.07302559793 	0.04089849143 	-0.01140459604 	6.996040174e-07 	0.04693665437 	-1.704154848e-06 	8.94743086e-05
0.07543199504 	0.04132609163 	-0.01181218687 	8.357091671e-07 	0.04737746061 	-1.990398377e-06 	9.031460781e-05
0.07786523129 	0.04176040953 	-0.01222526021 	9.77412596e-07 	0.04781859385 	-2.281349629e-06 	9.115553037e-05
0.08032560604 	0.04220134349 	-0.01264401503 	1.124679652e-06 	0.04826027564 	-2.577819647e-06 	9.199749863e-05
0.08282424015 	0.04264883574 	-0.01306902624 	1.278133972e-06 	0.04870276516 	-2.881606603e-06 	9.284100662e-05
0.08535191996 	0.04310176371 	-0.01349982208 	1.437168748e-06 	0.04914521285 	-3.191880512e-06 	9.36844349e-05
0.08790779437 	0.04355888003 	-0.01393559129 	1.601656075e-06 	0.04958657521 	-3.508702647e-06 	9.452579423e-05
0.09049217788 	0.04401936033 	-0.01437623379 	1.753928236e-06 	0.05002624127 	-3.793802605e-06 	9.536391994e-05
0.0931053885 	0.04448238375 	-0.01482162296 	1.645524235e-06 	0.05046357516 	-3.517191952e-06 	9.619759989e-05
0.09574774776 	0.04494708184 	-0.0152716384 	1.531399235e-06 	0.05089784228 	-3.236326499e-06 	9.702543371e-05
0.09841958081 	0.04541262533 	-0.01572622663 	1.411609116e-06 	0.05132829246 	-2.950521384e-06 	9.784599139e-05
0.1011232676 	0.04587855533 	-0.016185717 	1.286090918e-06 	0.05175446453 	-2.658997494e-06 	9.865839381e-05
0.1038669738 	0.046344189 	-0.01665049552 	1.154364364e-06 	0.05217568704 	-2.360415703e-06 	9.946136098e-05
0.1066412871 	0.04680789778 	-0.01711990911 	1.01706538e-06 	0.05259036057 	-2.056274059e-06 	0.000100251844
0.109446549 	0.04726814162 	-0.01759333495 	8.740979369e-07 	0.05299691689 	-1.746623973e-06 	0.0001010268533
0.1122831048 	0.04772372806 	-0.01807076548 	7.253968017e-07 	0.05339411642 	-1.431739979e-06 	0.000101784026
0.1151513035 	0.04817340719 	-0.01855215448 	5.708684571e-07 	0.05378064204 	-1.112073772e-06 	0.0001025208513
0.1180514982 	0.04861590902 	-0.01903752809 	4.103820218e-07 	0.05415507385 	-7.882447218e-07 	0.0001032346224
0.1209850947 	0.0490502833 	-0.01952734428 	2.436773757e-07 	0.05451621809 	-4.608914491e-07 	0.0001039230637
0.1239620669 	0.04947542576 	-0.02002225966 	6.98227193e-08 	0.05486273188 	-1.29824004e-07 	0.0001045836153
0.125139059 	0.04963725527 	-0.02021759516 	-1.578014286e-07 	0.05499165026 	-1.724575132e-05 	0.0001048293695
0.1269722515 	0.04988933709 	-0.02052188555 	1.109689436e-07 	0.05519248435 	-2.039355007e-07 	0.0001052122151
0.130016019 	0.05029009067 	-0.02102586975 	2.991867972e-07 	0.05550326538 	-5.383502608e-07 	0.0001058046501
0.133093744 	0.05067607023 	-0.02153457993 	4.958209638e-07 	0.05579310935 	-8.70937637e-07 	0.0001063571733
0.1362058055 	0.05104560869 	-0.02204844452 	7.026995523e-07 	0.05605993362 	-1.200224247e-06 	0.0001068658145
0.1393525864 	0.05139715663 	-0.02256826889 	9.22709664e-07 	0.05630158036 	-1.524413023e-06 	0.0001073264604
0.1425407528 	0.05172921085 	-0.02309557754 	1.160132072e-06 	0.05651567154 	-1.841657107e-06 	0.0001077345777
0.1457695841 	0.05203978303 	-0.02363192683 	1.418222369e-06 	0.05669914823 	-2.147239901e-06 	0.0001080843352
0.1490344407 	0.05232650692 	-0.02417869768 	1.689315e-06 	0.05684780578 	-2.424622672e-06 	0.0001083677178
0.1523357245 	0.05258659873 	-0.02473260088 	1.941018627e-06 	0.05695523695 	-2.708311389e-06 	0.0001085725115
0.155673842 	0.05281635879 	-0.02527718368 	2.10374328e-06 	0.05704095865 	-2.988117379e-06 	0.0001087359209
0.1590492042 	0.05301042136 	-0.02577180002 	2.141674137e-06 	0.05710850799 	-3.129419242e-06 	0.0001088646887
0.1624675126 	0.05316484002 	-0.02616873296 	2.156319708e-06 	0.0571053202 	-3.272176548e-06 	0.0001088586119
0.1659296299 	0.0532786356 	-0.02646872981 	2.094397127e-06 	0.05704285095 	-3.305974511e-06 	0.0001087395282
0.1694303785 	0.05335072919 	-0.02671436723 	1.877377232e-06 	0.05696308765 	-2.936651788e-06 	0.0001085874771
0.1729701892 	0.05337966118 	-0.02693282878 	1.679206442e-06 	0.05683964103 	-2.527211969e-06 	0.0001083521536
0.176549498 	0.05336364531 	-0.02712875544 	1.485409172e-06 	0.05665628873 	-2.15380673e-06 	0.0001080026331
0.1801687455 	0.05330043701 	-0.0273000082 	1.290587423e-06 	0.05642007864 	-1.795924815e-06 	0.000107552351
0.1838369307 	0.05318770587 	-0.02744373136 	1.097085024e-06 	0.05612881546 	-1.457669344e-06 	0.0001069971225
0.1875479555 	0.05302321453 	-0.02755779856 	9.069970431e-07 	0.05578046818 	-1.143637989e-06 	0.0001063330757
0.1913003917 	0.0528048972 	-0.02763996276 	7.225474938e-07 	0.05537341379 	-8.581765629e-07 	0.0001055571169
0.1950947013 	0.05253072499 	-0.02768811117 	5.462840721e-07 	0.05490612361 	-6.051135691e-07 	0.000104666332
0.1989313516 	0.05219863911 	-0.02770003558 	3.811089793e-07 	0.05437705415 	-3.881823433e-07 	0.0001036577785
0.2028158131 	0.05180649822 	-0.02767350446 	2.300446031e-07 	0.05378457774 	-2.108879094e-07 	0.0001025283538
0.206748532 	0.05135250798 	-0.02760619439 	9.67603201e-08 	0.05312764952 	-7.708728218e-08 	0.0001012760661
0.2101444908 	0.05091100741 	-0.02751191833 	4.02821182e-06 	0.05251149203 	-1.09176927e-05 	0.0001001014986
0.2107251389 	0.05083544135 	-0.02749575496 	1.462098275e-08 	0.05240604938 	-9.194525877e-09 	9.990049563e-05
0.2147461234 	0.05025423898 	-0.02733994063 	9.886103439e-08 	0.05161976106 	-4.249290102e-08 	9.840161156e-05
0.2188119806 	0.04960803339 	-0.02713653721 	1.527452022e-07 	0.05076894582 	-2.258669849e-08 	9.677972124e-05
0.2229278897 	0.04889608997 	-0.0268833563 	1.721274724e-07 	0.0498539745 	5.251289866e-08 	9.503553158e-05
0.2270943661 	0.04811846809 	-0.02657839861 	1.5282887e-07 	0.04887626091 	1.838344936e-07 	9.317173775e-05
0.2313073414 	0.04727631336 	-0.02622006173 	9.113910853e-08 	0.04783853571 	3.707291953e-07 	9.119354509e-05
0.2355673346 	0.04637141996 	-0.02580718949 	-1.614649123e-08 	0.0467442122 	6.111367497e-07 	8.910746033e-05
0.2398748701 	0.04540587522 	-0.02533880029 	-1.715836818e-07 	0.04559698872 	9.014180678e-07 	8.692053353e-05
0.2442372224 	0.04438247885 	-0.02481433456 	-3.768060674e-07 	0.04440130856 	1.236170169e-06 	8.464123482e-05
0.248650206 	0.04330613187 	-0.02423434744 	-6.317519836e-07 	0.04316393285 	1.606970767e-06 	8.228245281e-05
0.2531124416 	0.04218328262 	-0.0236003505 	-9.344165511e-07 	0.04189318251 	2.003561557e-06 	7.986004948e-05
0.2576244788 	0.04102097797 	-0.02291464092 	-1.280648639e-06 	0.04059780265 	2.413487223e-06 	7.739069543e-05
0.2621892502 	0.03982700605 	-0.02218040295 	-1.663918874e-06 	0.03928710218 	2.821734383e-06 	7.489213605e-05
0.2668106401 	0.03861084765 	-0.02140230067 	-1.968955661e-06 	0.03797192706 	3.047319965e-06 	7.238504673e-05
0.2714836098 	0.0373842004 	-0.02058695193 	-2.040794967e-06 	0.03666510823 	2.907758357e-06 	6.989388683e-05
0.2762087349 	0.03615964973 	-0.01974229828 	-2.050283082e-06 	0.03537990012 	2.70347093e-06 	6.744392296e-05
0.2809868679 	0.03494983698 	-0.01887719119 	-1.998097808e-06 	0.03412906237 	2.445083786e-06 	6.505947856e-05
0.2858254639 	0.03376774889 	-0.01800167897 	-1.887651432e-06 	0.03292511856 	2.145855216e-06 	6.276442703e-05
0.2907180655 	0.03262728053 	-0.01712743909 	-1.725953488e-06 	0.03178099847 	1.821369395e-06 	6.058341615e-05
0.2956652752 	0.03154127566 	-0.01626647574 	-1.520938662e-06 	0.03070786962 	1.489705883e-06 	5.85377343e-05
0.3006677021 	0.03052057581 	-0.01543085408 	-1.286433702e-06 	0.02971306775 	1.183936437e-06 	5.664136546e-05
0.3057325688 	0.02957361033 	-0.01462841934 	-1.054690455e-06 	0.0287941974 	8.933162253e-07 	5.488974318e-05
0.3108541272 	0.02870565925 	-0.01385884065 	-8.658525439e-07 	0.02797526276 	6.12455305e-07 	5.332862614e-05
0.3160328503 	0.02791262576 	-0.01310840577 	-6.952658249e-07 	0.02727415712 	4.077590805e-07 	5.199212392e-05
0.3212699707 	0.02719393614 	-0.01236340407 	-4.868455104e-07 	0.02663996359 	2.497245291e-07 	5.07831748e-05
0.3265710904 	0.02655685806 	-0.01165653084 	-2.658524737e-07 	0.02606732725 	1.101650386e-07 	4.969157079e-05
0.3319313799 	0.02600236125 	-0.01104623651 	-9.104955217e-08 	0.02558870079 	3.065265258e-08 	4.877917571e-05
0.3361906958 	0.02562698575 	-0.01065430494 	6.22346532e-06 	0.02526321904 	-7.646658209e-06 	4.815871703e-05
0.3373514992 	0.02552480326 	-0.01054767449 	-1.680120796e-08 	0.02517459168 	5.000503894e-09 	4.798976866e-05
0.3428342305 	0.02511388298 	-0.01013852855 	-6.548664432e-08 	0.02480224309 	1.302880239e-08 	4.727996875e-05
0.3483815784 	0.02475868924 	-0.0097929901 	-7.841593724e-08 	0.024472851 	4.306773443e-10 	4.665205589e-05
0.3539908448 	0.02444981826 	-0.009492180518 	-6.573838438e-08 	0.02417999745 	-2.794770017e-08 	4.609379561e-05
0.3596627202 	0.02417942944 	-0.009223433023 	-3.339827196e-08 	0.02391718712 	-6.681825075e-08 	4.559280609e-05
0.3654019652 	0.02394110711 	-0.008977169266 	1.497845846e-08 	0.02367846163 	-1.118295628e-07 	4.513772896e-05
0.3712061637 	0.02372956033 	-0.008745677482 	7.688024235e-08 	0.02345875444 	-1.60087288e-07 	4.471890599e-05
0.3770751474 	0.02354064412 	-0.008522433675 	1.50294988e-07 	0.02325405843 	-2.094987073e-07 	4.43286985e-05
0.3830113807 	0.02337103915 	-0.008301721935 	2.341167757e-07 	0.02306106918 	-2.584093522e-07 	4.396080736e-05
0.3890165364 	0.02321814504 	-0.008078687199 	3.268442487e-07 	0.02287716218 	-3.054393792e-07 	4.361022949e-05
0.3950887203 	0.02308003463 	-0.007849271958 	4.267428603e-07 	0.02270040572 	-3.496174198e-07 	4.327328255e-05
0.4012290711 	0.02295526115 	-0.007610152416 	5.321929617e-07 	0.022529404 	-3.902143062e-07 	4.294730575e-05
0.4074414565 	0.02284278018 	-0.007358784454 	6.409207898e-07 	0.02236326896 	-4.263627698e-07 	4.263060618e-05
0.4137231831 	0.02274193451 	-0.00709346178 	7.503829464e-07 	0.02220161536 	-4.571467065e-07 	4.23224495e-05
0.420075024 	0.02265232425 	-0.006813158909 	8.580235783e-07 	0.02204437931 	-4.817549212e-07 	4.202271389e-05
0.4265009097 	0.02257376976 	-0.006517432102 	9.612777114e-07 	0.02189175309 	-4.993477071e-07 	4.173176588e-05
0.4329987794 	0.02250632416 	-0.006206460421 	1.05766895e-06 	0.02174421531 	-5.091503328e-07 	4.145051788e-05
0.4395691754 	0.02245021471 	-0.005880817198 	1.145240813e-06 	0.02160239027 	-5.105919059e-07 	4.118015993e-05
0.4462154458 	0.02240583793 	-0.005541323601 	1.146927975e-06 	0.02146698141 	-4.721183823e-07 	4.092203301e-05
0.452936325 	0.02237377679 	-0.005189077593 	1.101381942e-06 	0.02133883329 	-4.161356235e-07 	4.067774706e-05
0.4597322186 	0.022354763 	-0.004825232165 	1.047175749e-06 	0.02121886719 	-3.598089576e-07 	4.044905835e-05
0.4666062465 	0.02234962158 	-0.004450822195 	9.865978955e-07 	0.02110808971 	-3.041289485e-07 	4.023788569e-05
0.4735572746 	0.02235915368 	-0.004066777038 	9.218344011e-07 	0.02100770491 	-2.501516952e-07 	4.004652435e-05
0.4805859366 	0.02238398356 	-0.003673733263 	8.545579992e-07 	0.02091903982 	-1.987806648e-07 	3.987750404e-05
0.4876951865 	0.02242442187 	-0.003272094474 	7.863072224e-07 	0.02084341714 	-1.511896071e-07 	3.97333462e-05
0.4948837843 	0.02248022604 	-0.002863218816 	7.184385345e-07 	0.02078210343 	-1.083207431e-07 	3.961646523e-05
0.5020728327 	0.02255034968 	-0.002451067912 	6.525287863e-07 	0.0207361646 	-7.086370327e-08 	3.952889305e-05
0.5091839358 	0.02263326458 	-0.002039676491 	5.900025747e-07 	0.02070588226 	-3.928150096e-08 	3.947116649e-05
0.5162165766 	0.02272762843 	-0.00163042095 	5.312807262e-07 	0.02069079822 	-1.337460495e-08 	3.944241211e-05
0.5231722107 	0.02283230939 	-0.001223489028 	4.764666276e-07 	0.02069026274 	7.218785957e-09 	3.944139134e-05
0.5300519365 	0.02294623502 	-0.000818979881 	4.2565158e-07 	0.02070362884 	2.302772744e-08 	3.946687085e-05
0.5368557511 	0.02306838493 	-0.0004170120936 	3.787072854e-07 	0.02073033757 	3.456229721e-08 	3.95177851e-05
0.5435850468 	0.02319781083 	-1.759240428e-05 	3.354943817e-07 	0.02076980752 	4.222935361e-08 	3.95930258e-05
0.5502406551 	0.02333364283 	0.0003793562474 	2.959335491e-07 	0.0208214055 	4.666346475e-08 	3.969138589e-05
0.5568228235 	0.02347508036 	0.0007738852341 	2.597290002e-07 	0.02088460358 	4.84142514e-08 	3.9811859e-05
0.5633327798 	0.0236213965 	0.001166055907 	2.265384218e-07 	0.02095886483 	4.797584851e-08 	3.995342158e-05
0.5697713528 	0.02377193126 	0.001555888629 	1.961132593e-07 	0.02104362998 	4.588975499e-08 	4.011500752e-05
0.5761388792 	0.02392607872 	0.001943364142 	1.682030101e-07 	0.0211383971 	4.248638726e-08 	4.029565999e-05
0.5824363843 	0.02408329529 	0.0023285499 	1.42654518e-07 	0.02124265233 	3.798032393e-08 	4.049439944e-05
0.5886648223 	0.02424310403 	0.002711510633 	1.193906344e-07 	0.0213558924 	3.261434147e-08 	4.071026647e-05
0.5948245315 	0.02440507846 	0.003092265562 	9.820371088e-08 	0.0214776368 	2.665133355e-08 	4.094234515e-05
0.6009163367 	0.02456883575 	0.003470904176 	7.881843909e-08 	0.0216074156 	2.03280059e-08 	4.11897396e-05
0.6069413562 	0.02473402988 	0.003847533697 	6.100162238e-08 	0.02174478283 	1.389651788e-08 	4.145159972e-05
0.6128998905 	0.02490033418 	0.004222210965 	4.455898961e-08 	0.02188931558 	7.588727505e-09 	4.172711932e-05
0.6187926729 	0.0250674495 	0.004595023578 	2.933299895e-08 	0.02204062445 	1.571838997e-09 	4.201555608e-05
0.6246207232 	0.02523510016 	0.004966109295 	1.518214628e-08 	0.02219834878 	-4.016726073e-09 	4.231622248e-05
0.630384542 	0.02540302122 	0.005335570403 	1.967566766e-09 	0.02236215452 	-9.061719991e-09 	4.262848176e-05
0.6360847567 	0.02557096637 	0.005703519164 	-1.044782554e-08 	0.02253174274 	-1.346068745e-08 	4.295176403e-05
0.6417221536 	0.02573870828 	0.00607014532 	-2.217777157e-08 	0.022706836 	-1.711771008e-08 	4.328554046e-05
0.6472975325 	0.02590603144 	0.006435635197 	-3.33322162e-08 	0.02288719106 	-1.994797644e-08 	4.362934733e-05
0.6528113863 	0.02607273325 	0.006800176471 	-4.401009186e-08 	0.02307258559 	-2.186502693e-08 	4.398276084e-05
0.6582643935 	0.0262386305 	0.007164026865 	-5.428351964e-08 	0.02326282445 	-2.277449575e-08 	4.434540897e-05
0.663657363 	0.02640356275 	0.007527530943 	-6.421035376e-08 	0.02345773287 	-2.257677822e-08 	4.471695859e-05
0.6689908816 	0.02656739202 	0.007891085984 	-7.386043499e-08 	0.02365714627 	-2.116510077e-08 	4.509709595e-05
0.6742655434 	0.02673001057 	0.008255189343 	-8.324808372e-08 	0.02386090915 	-1.839905732e-08 	4.548552463e-05
0.6794819976 	0.02689135518 	0.008620537736 	-9.231740153e-08 	0.02406886018 	-1.409970674e-08 	4.58819371e-05
0.6846410163 	0.02705142453 	0.008988082361 	-1.009737965e-07 	0.02428081491 	-8.02148398e-09 	4.628598173e-05
0.6897431149 	0.02721031095 	0.009359146913 	-1.090934961e-07 	0.0244964918 	2.146009648e-10 	4.669712183e-05
0.6947889098 	0.02736828987 	0.009735617903 	-1.162326493e-07 	0.02471551844 	1.124620051e-08 	4.711464747e-05
0.6997790223 	0.02752606495 	0.01012018442 	-1.210248617e-07 	0.02493719561 	2.591474173e-08 	4.753722576e-05
0.7047141634 	0.02768529459 	0.01051570901 	-1.197851111e-07 	0.02515986775 	4.525408536e-08 	4.796170076e-05
0.7095948444 	0.02784979164 	0.01092528286 	-1.035259036e-07 	0.02538132038 	7.079976608e-08 	4.838385101e-05
0.7144216649 	0.0280284186 	0.01134937347 	-6.055736456e-08 	0.02558335538 	9.683484234e-08 	4.876898589e-05
0.719195219 	0.02823400076 	0.01177812938 	2.154594525e-08 	0.02575326406 	1.468462316e-07 	4.909287905e-05
0.7239161526 	0.02848135588 	0.01223211575 	1.295669268e-07 	0.02590268365 	2.226414224e-07 	4.937771432e-05
0.7285849967 	0.02876344553 	0.01260639771 	1.067925724e-07 	0.02603392298 	2.791726632e-07 	4.962789296e-05
0.7332023176 	0.02902593332 	0.01278579218 	3.877965466e-08 	0.02618515354 	3.297998575e-07 	4.991618042e-05
0.7377686838 	0.02918976539 	0.01288667381 	4.006640569e-08 	0.02644711256 	3.784683655e-07 	5.041554713e-05
0.7422846824 	0.02921673849 	0.01300228473 	3.163307234e-08 	0.02684998011 	3.661726889e-07 	5.118352465e-05
0.7467508634 	0.0291528277 	0.01312107209 	1.779388245e-08 	0.0273305159 	2.802676653e-07 	5.209955943e-05
0.7511677575 	0.02909962603 	0.01323136507 	-1.959388758e-08 	0.0277928439 	1.579279579e-07 	5.29808851e-05
0.7555359085 	0.02914280509 	0.01328682279 	-5.268918868e-08 	0.02815468857 	5.677351368e-08 	5.367066161e-05
0.7598558555 	0.02928767317 	0.01328207141 	-3.773141203e-08 	0.02841376336 	1.395555569e-08 	5.416453015e-05
0.764128156 	0.02948007713 	0.01328762115 	-1.711690828e-08 	0.02863765384 	-5.546713587e-09 	5.459132765e-05
0.768353309 	0.02968106671 	0.0133173811 	-3.407175755e-09 	0.02885173004 	-2.990980016e-08 	5.499941638e-05
0.7725318348 	0.0298914944 	0.01338594753 	5.393082254e-08 	0.02903930402 	-5.928338603e-08 	5.535698452e-05
0.776664248 	0.03017173541 	0.01359151826 	7.143523584e-08 	0.02917175585 	-1.166120884e-07 	5.560947452e-05
0.7807510619 	0.0306263957 	0.01384267124 	1.70194557e-08 	0.02916903655 	-1.737298972e-07 	5.560429078e-05
0.7847927877 	0.03125969346 	0.01398152162 	-9.162997975e-09 	0.02902636595 	-1.614762896e-07 	5.533232096e-05
0.7887899104 	0.03191624566 	0.0140712634 	-2.030333941e-09 	0.02891443961 	-8.204785698e-08 	5.511895824e-05
0.7927429222 	0.0324122774 	0.01418682062 	8.40329069e-09 	0.0290194091 	1.601687706e-08 	5.531905926e-05
0.7966523098 	0.03263086645 	0.01433710399 	1.413848126e-08 	0.02942109315 	9.442859283e-08 	5.608478071e-05
0.8005185571 	0.03254567088 	0.01450648443 	1.13423245e-08 	0.03009092032 	1.270025763e-07 	5.736165747e-05
0.8043421454 	0.03225921961 	0.01466458566 	4.316599549e-09 	0.03090035546 	1.069985249e-07 	5.890466581e-05
0.8081235378 	0.03198514259 	0.01479380492 	-7.104075814e-09 	0.03165688963 	5.262599522e-08 	6.034683021e-05
0.8118631999 	0.0319101813 	0.01485320366 	-1.285831361e-08 	0.03219252618 	2.643611752e-09 	6.136790236e-05
0.8155615922 	0.03205489373 	0.01486962968 	4.416630822e-09 	0.03249987604 	-1.928802159e-08 	6.19537966e-05
0.8192191701 	0.03231702623 	0.01497096472 	1.662489145e-08 	0.0327035521 	-2.783406122e-08 	6.234205979e-05
0.8228363893 	0.03262528835 	0.01515118146 	1.044312688e-08 	0.03287744286 	-3.679935962e-08 	6.26735439e-05
0.8264136904 	0.0329700757 	0.01532139791 	3.188511396e-09 	0.0330220018 	-4.267270387e-08 	6.294911343e-05
0.8299515134 	0.03334522488 	0.01545713709 	5.834658009e-11 	0.03314464922 	-4.375636084e-08 	6.31829135e-05
0.833450294 	0.03373570204 	0.01557504055 	-2.570928917e-11 	0.03326497542 	-4.243469716e-08 	6.341228868e-05
0.836910463 	0.0341366564 	0.01569456537 	-1.355564943e-10 	0.03338752614 	-4.026640344e-08 	6.364590441e-05
0.8403324473 	0.03456145677 	0.01581480855 	-1.892105025e-10 	0.03349710386 	-3.633983482e-08 	6.385478999e-05
0.8437166697 	0.03502617282 	0.01593488076 	-5.625294526e-11 	0.03357959035 	-2.907006865e-08 	6.401203217e-05
0.8470635448 	0.03552836122 	0.01605467672 	3.606662742e-10 	0.03364241993 	-1.818290654e-08 	6.413180281e-05
0.8503734847 	0.03603530107 	0.01617585286 	9.955806937e-10 	0.03371886723 	-5.136151906e-09 	6.427753262e-05
0.853646897 	0.03649072254 	0.01630191928 	1.572416243e-09 	0.03386057364 	7.099703795e-09 	6.454766441e-05
0.8568841848 	0.03683584261 	0.01643625843 	1.758046256e-09 	0.03411738504 	1.546135122e-08 	6.503721832e-05
0.860085747 	0.03703252406 	0.01657875849 	1.436939923e-09 	0.03451218587 	1.83979477e-08 	6.578981844e-05