0.3985144112 	-0.004519142916 	0.0007770392911 	9.027016508e-08 	0.02988283469 	-0.005151090892 	-5.610694627e-07 	135.932324 	-23.40932732 	-0.002733702312
0.3987124635 	0 	0 	0 	0.08694816209 	-0.01500162018 	-1.86949261e-06 	0 	0 	0
0.3989105207 	0 	0 	0 	0.175206343 	-0.03022009883 	-3.790791883e-06 	0 	0 	0
0.3991085821 	0 	0 	0 	0.2646083325 	-0.04560212076 	-5.745211707e-06 	0 	0 	0
0.3993066473 	0 	0 	0 	0.3545884442 	-0.06105363639 	-7.719582521e-06 	0 	0 	0
0.3995047155 	0 	0 	0 	0.4439372781 	-0.07634750776 	-9.681905036e-06 	0 	0 	0
0.3997027863 	0 	0 	0 	0.5308374991 	-0.09116730543 	-1.157554144e-05 	0 	0 	0
0.399900859 	0 	0 	0 	0.61336047 	-0.1052061124 	-1.333200096e-05 	0 	0 	0
0.4000989332 	0 	0 	0 	0.6900904132 	-0.1182435443 	-1.489611225e-05 	0 	0 	0
0.4002970082 	0 	0 	0 	0.760403988 	-0.1301712435 	-1.623857564e-05 	0 	0 	0
0.4004950834 	0 	0 	0 	0.8243438107 	-0.1409854515 	-1.735347511e-05 	0 	0 	0
0.4006931583 	0 	0 	0 	0.8823431255 	-0.1507559907 	-1.825097554e-05 	0 	0 	0
0.4008912323 	0 	0 	0 	0.9349994123 	-0.1595874976 	-1.89499146e-05 	0 	0 	0
0.4010893049 	0 	0 	0 	0.982940564 	-0.1675915713 	-1.947205181e-05 	0 	0 	0
0.4012873754 	0 	0 	0 	1.026759558 	-0.1748732225 	-1.983873326e-05 	0 	0 	0
0.4014854434 	0 	0 	0 	1.066988199 	-0.1815260733 	-2.006941969e-05 	0 	0 	0
0.4016835082 	0 	0 	0 	1.104090678 	-0.1876314936 	-2.01812258e-05 	0 	0 	0
0.4018815693 	0 	0 	0 	1.138466357 	-0.1932593079 	-2.018892138e-05 	0 	0 	0
0.4020796261 	0 	0 	0 	1.170456311 	-0.1984690669 	-2.010512343e-05 	0 	0 	0
0.4022776781 	0 	0 	0 	1.200350938 	-0.2033114429 	-1.994055339e-05 	0 	0 	0
0.4024757247 	0 	0 	0 	1.228397386 	-0.2078295574 	-1.970430152e-05 	0 	0 	0
0.4026737653 	0 	0 	0 	1.254806267 	-0.2120601661 	-1.940407338e-05 	0 	0 	0
0.4028717994 	0 	0 	0 	1.279757492 	-0.2160346816 	-1.904640875e-05 	0 	0 	0
0.4030698264 	0 	0 	0 	1.303405237 	-0.2197800386 	-1.863687095e-05 	0 	0 	0
0.4032678458 	0 	0 	0 	1.325882095 	-0.2233194177 	-1.818020786e-05 	0 	0 	0
0.4034658569 	0 	0 	0 	1.347302548 	-0.2266728525 	-1.768048731e-05 	0 	0 	0
0.4036638593 	0 	0 	0 	1.367765837 	-0.2298577213 	-1.714121094e-05 	0 	0 	0
0.4038618524 	0 	0 	0 	1.387358332 	-0.2328891562 	-1.656540759e-05 	0 	0 	0
0.4040598357 	0 	0 	0 	1.406155755 	-0.2357807322 	-1.595571007e-05 	0 	0 	0
0.4042578085 	0 	0 	0 	1.424225087 	-0.2385431802 	-1.531445215e-05 	0 	0 	0
0.4044557703 	0 	0 	0 	1.44398421 	-0.2415463897 	-1.466978182e-05 	0 	0 	0
0.4047633343 	0 	0 	0 	1.467575682 	-0.24510308 	-1.354809121e-05 	0 	0 	0
0.4050766481 	0 	0 	0 	1.492521119 	-0.2488318495 	-1.236755736e-05 	0 	0 	0
0.4053958166 	0 	0 	0 	1.516666228 	-0.2524053747 	-1.110489159e-05 	0 	0 	0
0.4057209459 	0 	0 	0 	1.540081783 	-0.2558379111 	-9.761201698e-06 	0 	0 	0
0.4060521443 	0 	0 	0 	1.562830449 	-0.2591396889 	-8.337400314e-06 	0 	0 	0
0.4063895215 	0 	0 	0 	1.584967531 	-0.2623202897 	-6.834221703e-06 	0 	0 	0
0.4067331892 	0 	0 	0 	1.606541623 	-0.2653881192 	-5.25227936e-06 	0 	0 	0
0.4070832607 	0 	0 	0 	1.627595619 	-0.26835058 	-3.592110519e-06 	0 	0 	0
0.4074398513 	0 	0 	0 	1.648167503 	-0.2712142242 	-1.854212089e-06 	0 	0 	0
0.4078030778 	0 	0 	0 	1.668291014 	-0.2739848596 	-3.906882243e-08 	0 	0 	0
0.4078108127 	0 	0 	0 	1.668702956 	-0.274040953 	-2.261270119e-06 	0 	0 	0
0.4081725207 	0 	0 	0 	1.687990407 	-0.2766675476 	-1.841228387e-06 	0 	0 	0
0.4085488195 	0 	0 	0 	1.70729807 	-0.2792669703 	-3.79755435e-06 	0 	0 	0
0.4089321083 	0 	0 	0 	1.726238148 	-0.2817872342 	-5.829580953e-06 	0 	0 	0
0.4093225113 	0 	0 	0 	1.744832191 	-0.2842320094 	-7.936666538e-06 	0 	0 	0
0.4097201548 	0 	0 	0 	1.763099555 	-0.2866045801 	-1.011809468e-05 	0 	0 	0
0.4101251668 	0 	0 	0 	1.781057652 	-0.2889078995 	-1.237306436e-05 	0 	0 	0
0.4105376773 	0 	0 	0 	1.798722163 	-0.2911446004 	-1.470068072e-05 	0 	0 	0
0.4109578179 	0 	0 	0 	1.816127133 	-0.2933195167 	-1.71001799e-05 	0 	0 	0
0.4113876857 	0 	0 	0 	1.833317706 	-0.2954385896 	-1.958539682e-05 	0 	0 	0
0.4118269536 	0 	0 	0 	1.850297015 	-0.2975025315 	-2.215712804e-05 	0 	0 	0
0.4122743862 	0 	0 	0 	1.867041525 	-0.2995087911 	-2.480601203e-05 	0 	0 	0
0.412730134 	0 	0 	0 	1.883547606 	-0.3014572758 	-2.753174823e-05 	0 	0 	0
0.4131943501 	0 	0 	0 	1.89982423 	-0.3033494466 	-3.033419639e-05 	0 	0 	0
0.4136671905 	0 	0 	0 	1.915879525 	-0.3051865966 	-3.32131803e-05 	0 	0 	0
0.4141488139 	0 	0 	0 	1.931720866 	-0.306969891 	-3.616848466e-05 	0 	0 	0
0.4146393819 	0 	0 	0 	1.947354965 	-0.3087003769 	-3.919984535e-05 	0 	0 	0
0.4151390593 	0 	0 	0 	1.962787918 	-0.3103789966 	-4.230697429e-05 	0 	0 	0
0.4156480135 	0 	0 	0 	1.978025264 	-0.3120065948 	-4.548954864e-05 	0 	0 	0
0.4161664152 	0 	0 	0 	1.99307204 	-0.3135839249 	-4.874716825e-05 	0 	0 	0
0.4166944381 	0 	0 	0 	2.007932829 	-0.3151116627 	-5.207939686e-05 	0 	0 	0
0.4172322591 	0 	0 	0 	2.022611802 	-0.3165904139 	-5.548575194e-05 	0 	0 	0
0.4177800583 	0 	0 	0 	2.03711277 	-0.3180207206 	-5.896566919e-05 	0 	0 	0
0.418338019 	0 	0 	0 	2.051439225 	-0.3194030691 	-6.251851498e-05 	0 	0 	0
0.418906328 	0 	0 	0 	2.065594382 	-0.3207378964 	-6.614358091e-05 	0 	0 	0
0.4194851754 	0 	0 	0 	2.079581215 	-0.3220255967 	-6.984008205e-05 	0 	0 	0
0.4200747546 	0 	0 	0 	2.093402486 	-0.3232665264 	-7.360715641e-05 	0 	0 	0
0.4206752628 	0 	0 	0 	2.107060779 	-0.3244610087 	-7.744386453e-05 	0 	0 	0
0.4212869005 	0 	0 	0 	2.120558522 	-0.3256093375 	-8.134918946e-05 	0 	0 	0
0.421909872 	0 	0 	0 	2.13389801 	-0.3267117857 	-8.532203763e-05 	0 	0 	0
0.4225443853 	0 	0 	0 	2.147081434 	-0.3277686024 	-8.936123928e-05 	0 	0 	0
0.4231906521 	0 	0 	0 	2.160117078 	-0.3287804825 	-9.346578345e-05 	0 	0 	0
0.4238501406 	0 	0 	0 	2.173029495 	-0.329749268 	-9.764441664e-05 	0 	0 	0
0.4245253395 	0 	0 	0 	2.185829383 	-0.3306754958 	-0.0001019118535 	0 	0 	0
0.4252130261 	0 	0 	0 	2.198493899 	-0.33155747 	-0.000106239757 	0 	0 	0
0.4259134289 	0 	0 	0 	2.21100866 	-0.3323941012 	-0.000110625797 	0 	0 	0
0.4266267807 	0 	0 	0 	2.223375711 	-0.3331856301 	-0.0001150682291 	0 	0 	0
0.4273533182 	0 	0 	0 	2.235597081 	-0.3339322486 	-0.0001195652115 	0 	0 	0
0.4280932826 	0 	0 	0 	2.247674796 	-0.334634154 	-0.0001241148199 	0 	0 	0
0.4288469195 	0 	0 	0 	2.259610878 	-0.3352915388 	-0.0001287150445 	0 	0 	0
0.4296144787 	0 	0 	0 	2.271407351 	-0.3359045912 	-0.0001333637944 	0 	0 	0
0.430396215 	0 	0 	0 	2.283066243 	-0.3364734955 	-0.0001380588977 	0 	0 	0
0.4311923873 	0 	0 	0 	2.294589583 	-0.3369984321 	-0.0001427980971 	0 	0 	0
0.4320032595 	0 	0 	0 	2.305979402 	-0.3374795768 	-0.0001475790475 	0 	0 	0
0.4328291002 	0 	0 	0 	2.317237724 	-0.337917099 	-0.0001523993144 	0 	0 	0
0.4336701831 	0 	0 	0 	2.328366559 	-0.3383111649 	-0.0001572563741 	0 	0 	0
0.4345267865 	0 	0 	0 	2.33936791 	-0.338661938 	-0.0001621476148 	0 	0 	0
0.435399194 	0 	0 	0 	2.350246565 	-0.3389696285 	-0.0001670704144 	0 	0 	0
0.4362886099 	0 	0 	0 	2.361021923 	-0.3392348962 	-0.0001720288259 	0 	0 	0
0.4371993628 	0 	0 	0 	2.371707334 	-0.3394575432 	-0.0001770465695 	0 	0 	0
0.4381268879 	0 	0 	0 	2.383611594 	-0.3396652308 	-0.000182102875 	0 	0 	0
0.4395501106 	0 	0 	0 	2.397935332 	-0.3398287214 	-0.0001896780479 	0 	0 	0
0.4409884004 	0 	0 	0 	2.413082078 	-0.339924191 	-0.0001965691407 	0 	0 	0
0.44244192 	0 	0 	0 	2.427752386 	-0.3399283309 	-0.0001886735256 	0 	0 	0
0.443910834 	0 	0 	0 	2.44197168 	-0.3398461918 	-0.0001807253266 	0 	0 	0
0.4453953093 	0 	0 	0 	2.455763361 	-0.3396816332 	-0.0001727379093 	0 	0 	0
0.4468955146 	0 	0 	0 	2.46914896 	-0.3394383639 	-0.0001647236933 	0 	0 	0
0.448411621 	0 	0 	0 	2.48216494 	-0.3391194482 	-0.0001566938011 	0 	0 	0
0.449951937 	0 	0 	0 	2.49484667 	-0.3387269292 	-0.0001486051234 	0 	0 	0
0.4515094159 	0 	0 	0 	2.507191566 	-0.338263994 	-0.000140523342 	0 	0 	0
0.4530833577 	0 	0 	0 	2.519196043 	-0.3377336471 	-0.0001324645761 	0 	0 	0
0.4546739418 	0 	0 	0 	2.53087218 	-0.3371384945 	-0.0001244379664 	0 	0 	0
0.4562813499 	0 	0 	0 	2.542232437 	-0.3364807777 	-0.0001164520285 	0 	0 	0
0.4579057659 	0 	0 	0 	2.553288048 	-0.33576256 	-0.0001085146817 	0 	0 	0
0.4595473762 	0 	0 	0 	2.564051524 	-0.3349855283 	-0.0001006331709 	0 	0 	0
0.4612079065 	0 	0 	0 	2.574545363 	-0.3341502958 	-9.280427038e-05 	0 	0 	0
0.4628933738 	0 	0 	0 	2.584785271 	-0.3332572663 	-8.500374789e-05 	0 	0 	0
0.4645966365 	0 	0 	0 	2.594762094 	-0.3323090546 	-7.728740978e-05 	0 	0 	0
0.4663178905 	0 	0 	0 	2.604471222 	-0.3313077975 	-6.966122206e-05 	0 	0 	0
0.4680573339 	0 	0 	0 	2.613918299 	-0.3302548122 	-6.213033374e-05 	0 	0 	0
0.4698151678 	0 	0 	0 	2.623108265 	-0.3291512331 	-5.469948275e-05 	0 	0 	0
0.4715915958 	0 	0 	0 	2.632046435 	-0.3279979788 	-4.737299657e-05 	0 	0 	0
0.4733876059 	0 	0 	0 	2.640746754 	-0.326794675 	-4.015028947e-05 	0 	0 	0
0.4752105253 	0 	0 	0 	2.649220405 	-0.3255406976 	-3.300163113e-05 	0 	0 	0
0.477052684 	0 	0 	0 	2.657458033 	-0.3242385603 	-2.597909304e-05 	0 	0 	0
0.4789142958 	0 	0 	0 	2.665453775 	-0.3228903589 	-1.908606839e-05 	0 	0 	0
0.480795578 	0 	0 	0 	2.673210703 	-0.3214971089 	-1.232538191e-05 	0 	0 	0
0.4826967503 	0 	0 	0 	2.680731845 	-0.3200597028 	-5.699545663e-06 	0 	0 	0
0.4843826563 	0 	0 	0 	2.68713117 	-0.3187596583 	1.388785787e-05 	0 	0 	0
0.48461787 	0 	0 	0 	2.688023635 	-0.3185779724 	-7.9616926e-07 	0 	0 	0
0.4865627896 	0 	0 	0 	2.695091481 	-0.3170494459 	-7.224524683e-06 	0 	0 	0
0.488532044 	0 	0 	0 	2.701942707 	-0.3154771147 	-1.352170457e-05 	0 	0 	0
0.4905221263 	0 	0 	0 	2.708572605 	-0.313863638 	-1.966643886e-05 	0 	0 	0
0.4925332712 	0 	0 	0 	2.714981958 	-0.3122108146 	-2.565742422e-05 	0 	0 	0
0.494565717 	0 	0 	0 	2.721174989 	-0.3105197636 	-3.149364954e-05 	0 	0 	0
0.4966197052 	0 	0 	0 	2.727158873 	-0.3087908537 	-3.717426977e-05 	0 	0 	0
0.4986993654 	0 	0 	0 	2.732943716 	-0.3070234818 	-4.271378825e-05 	0 	0 	0
0.500805203 	0 	0 	0 	2.738533497 	-0.3052186946 	-4.810375505e-05 	0 	0 	0
0.5029333272 	0 	0 	0 	2.743926866 	-0.3033793815 	-5.332441226e-05 	0 	0 	0
0.5050839924 	0 	0 	0 	2.74912613 	-0.3015075049 	-5.837520948e-05 	0 	0 	0
0.507257457 	0 	0 	0 	2.754136477 	-0.2996042119 	-6.325625923e-05 	0 	0 	0
0.5094539826 	0 	0 	0 	2.758967775 	-0.2976697611 	-6.797237084e-05 	0 	0 	0
0.5116800765 	0 	0 	0 	2.763634904 	-0.295704992 	-7.256108496e-05 	0 	0 	0
0.5139311403 	0 	0 	0 	2.768153181 	-0.2937160714 	-7.703916003e-05 	0 	0 	0
0.5162060616 	0 	0 	0 	2.772547433 	-0.2917130258 	-8.147584036e-05 	0 	0 	0
0.5185051168 	0 	0 	0 	2.776846857 	-0.2897051261 	-8.59155779e-05 	0 	0 	0
0.5208285862 	0 	0 	0 	2.781069316 	-0.2876959843 	-9.027400608e-05 	0 	0 	0
0.523180392 	0 	0 	0 	2.785213429 	-0.2856814279 	-9.439016619e-05 	0 	0 	0
0.5255607218 	0 	0 	0 	2.789260319 	-0.2836544178 	-9.818301769e-05 	0 	0 	0
0.5279663095 	0 	0 	0 	2.793191832 	-0.2816118704 	-0.0001017180924 	0 	0 	0
0.530397451 	0 	0 	0 	2.797002145 	-0.2795533869 	-0.0001050530804 	0 	0 	0
0.5328544466 	0 	0 	0 	2.800693021 	-0.2774778312 	-0.0001081935219 	0 	0 	0
0.5353409917 	0 	0 	0 	2.804268962 	-0.2753837304 	-0.0001111629449 	0 	0 	0
0.5378573206 	0 	0 	0 	2.807731922 	-0.2732715435 	-0.0001139581264 	0 	0 	0
0.5404003993 	0 	0 	0 	2.811081563 	-0.2711431754 	-0.0001165718783 	0 	0 	0
0.5429705454 	0 	0 	0 	2.814319128 	-0.2689997142 	-0.0001190082992 	0 	0 	0
0.5455680808 	0 	0 	0 	2.817448189 	-0.266840662 	-0.0001212704232 	0 	0 	0
0.5481981886 	0 	0 	0 	2.820472702 	-0.2646650237 	-0.0001233691635 	0 	0 	0
0.5508576999 	0 	0 	0 	2.823393051 	-0.2624740453 	-0.0001252912663 	0 	0 	0
0.5535455538 	0 	0 	0 	2.826209226 	-0.2602693362 	-0.0001270379492 	0 	0 	0
0.556262091 	0 	0 	0 	2.828923012 	-0.2580512253 	-0.0001253404894 	0 	0 	0
0.5590093701 	0 	0 	0 	2.831537357 	-0.2558189061 	-0.0001206090962 	0 	0 	0
0.5617900605 	0 	0 	0 	2.834054134 	-0.2535721666 	-0.0001160348089 	0 	0 	0
0.5646004358 	0 	0 	0 	2.836472945 	-0.2513125767 	-0.0001116279436 	0 	0 	0
0.5674408566 	0 	0 	0 	2.838794185 	-0.249041134 	-0.0001073847878 	0 	0 	0
0.5703118841 	0 	0 	0 	2.841019866 	-0.2467571323 	-0.000103299925 	0 	0 	0
0.5732187732 	0 	0 	0 	2.84315186 	-0.2444597061 	-9.936529203e-05 	0 	0 	0
0.5761567623 	0 	0 	0 	2.845189412 	-0.2421502801 	-9.559468999e-05 	0 	0 	0
0.5791262329 	0 	0 	0 	2.847132271 	-0.2398299654 	-9.198442983e-05 	0 	0 	0
0.5821275725 	0 	0 	0 	2.84898163 	-0.2374981655 	-8.852973535e-05 	0 	0 	0
0.5851658635 	0 	0 	0 	2.850738742 	-0.235154069 	-8.522356223e-05 	0 	0 	0
0.5882368608 	0 	0 	0 	2.85240296 	-0.2327989749 	-8.207757201e-05 	0 	0 	0
0.591340855 	0 	0 	0 	2.853974199 	-0.2304339587 	-7.908716977e-05 	0 	0 	0
0.5944786826 	0 	0 	0 	2.855453477 	-0.2280586501 	-7.624536671e-05 	0 	0 	0
0.5976542396 	0 	0 	0 	2.856841656 	-0.2256726504 	-7.354747545e-05 	0 	0 	0
0.6008639663 	0 	0 	0 	2.858138163 	-0.2232771951 	-7.099839949e-05 	0 	0 	0
0.6041082905 	0 	0 	0 	2.859342643 	-0.2208729391 	-6.859044561e-05 	0 	0 	0
0.6073891503 	0 	0 	0 	2.860454827 	-0.2184593407 	-6.631429932e-05 	0 	0 	0
0.6107078431 	0 	0 	0 	2.861473404 	-0.2160362244 	-6.41710093e-05 	0 	0 	0
0.6140623721 	0 	0 	0 	2.862396019 	-0.2136042539 	-6.215976029e-05 	0 	0 	0
0.6174531904 	0 	0 	0 	2.863220353 	-0.2111632538 	-6.027398764e-05 	0 	0 	0
0.620883615 	0 	0 	0 	2.863943968 	-0.208712436 	-5.85083403e-05 	0 	0 	0
0.6243517981 	0 	0 	0 	2.864563754 	-0.2062521718 	-5.686822893e-05 	0 	0 	0
0.6278575798 	0 	0 	0 	2.865076989 	-0.2037828455 	-5.534840868e-05 	0 	0 	0
0.6314026713 	0 	0 	0 	2.86548162 	-0.2013041673 	-5.394169841e-05 	0 	0 	0
0.6349881336 	0 	0 	0 	2.865776038 	-0.1988161978 	-5.264977501e-05 	0 	0 	0
0.6386125585 	0 	0 	0 	2.865959424 	-0.1963197131 	-5.146938196e-05 	0 	0 	0
0.642276724 	0 	0 	0 	2.866032172 	-0.1938149373 	-5.039227071e-05 	0 	0 	0
0.6459832748 	0 	0 	0 	2.865995662 	-0.1913018333 	-4.941581947e-05 	0 	0 	0
0.64973021 	0 	0 	0 	2.865852066 	-0.1887813034 	-4.853945852e-05 	0 	0 	0
0.6535180509 	0 	0 	0 	2.865604379 	-0.1862537919 	-4.775519857e-05 	0 	0 	0
0.6573495086 	0 	0 	0 	2.865255823 	-0.1837192657 	-4.705867906e-05 	0 	0 	0
0.6612230164 	0 	0 	0 	2.864809446 	-0.1811784423 	-4.645087455e-05 	0 	0 	0
0.665138934 	0 	0 	0 	2.864267925 	-0.1786317089 	-4.592417947e-05 	0 	0 	0
0.6690995676 	0 	0 	0 	2.863633097 	-0.1760790016 	-4.547399172e-05 	0 	0 	0
0.6731039138 	0 	0 	0 	2.862905914 	-0.1735207614 	-4.510100227e-05 	0 	0 	0
0.6771522377 	0 	0 	0 	2.862086455 	-0.1709571852 	-4.479750261e-05 	0 	0 	0
0.681246681 	0 	0 	0 	2.861173814 	-0.1683881221 	-4.455911529e-05 	0 	0 	0
0.6853863423 	0 	0 	0 	2.860166379 	-0.165813846 	-4.438544252e-05 	0 	0 	0
0.6895716523 	0 	0 	0 	2.859061931 	-0.1632344064 	-4.426826807e-05 	0 	0 	0
0.6938046212 	0 	0 	0 	2.857857667 	-0.1606496039 	-4.420432432e-05 	0 	0 	0
0.6980842929 	0 	0 	0 	2.856554527 	-0.1580663522 	-4.419352546e-05 	0 	0 	0
0.7023638346 	0 	0 	0 	2.855162559 	-0.1555064227 	-4.422475801e-05 	0 	0 	0
0.7065967077 	0 	0 	0 	2.853695171 	-0.1529906547 	-4.429209414e-05 	0 	0 	0
0.7107825189 	0 	0 	0 	2.852160102 	-0.1505244164 	-4.439107829e-05 	0 	0 	0
0.71492229 	0 	0 	0 	2.850561084 	-0.1481063534 	-4.451322988e-05 	0 	0 	0
0.7190167156 	0 	0 	0 	2.848901424 	-0.1457351019 	-4.465680258e-05 	0 	0 	0
0.7230657653 	0 	0 	0 	2.847184109 	-0.1434094142 	-4.481581769e-05 	0 	0 	0
0.7270703972 	0 	0 	0 	2.845411614 	-0.1411279902 	-4.498411897e-05 	0 	0 	0
0.7310311116 	0 	0 	0 	2.843585964 	-0.1388895525 	-4.516089351e-05 	0 	0 	0
0.7349480478 	0 	0 	0 	2.841708865 	-0.1366928914 	-4.534113165e-05 	0 	0 	0
0.7388220362 	0 	0 	0 	2.839781568 	-0.1345367574 	-4.551998826e-05 	0 	0 	0
0.7426535726 	0 	0 	0 	2.837804963 	-0.1324199162 	-4.569718345e-05 	0 	0 	0
0.7464428493 	0 	0 	0 	2.835779737 	-0.130341202 	-4.586915207e-05 	0 	0 	0
0.7501905479 	0 	0 	0 	2.833706299 	-0.1282994477 	-4.603258607e-05 	0 	0 	0
0.7538972527 	0 	0 	0 	2.831584931 	-0.126293524 	-4.6188669e-05 	0 	0 	0
0.7575631456 	0 	0 	0 	2.829416051 	-0.1243224478 	-4.490736655e-05 	0 	0 	0
0.7611887622 	0 	0 	0 	2.827200219 	-0.1223853272 	-4.29345443e-05 	0 	0 	0
0.7647748095 	0 	0 	0 	2.824938281 	-0.1204813786 	-4.102121602e-05 	0 	0 	0
0.7683214281 	0 	0 	0 	2.822631634 	-0.1186100504 	-3.916880406e-05 	0 	0 	0
0.7718290835 	0 	0 	0 	2.820282147 	-0.1167709363 	-3.73795979e-05 	0 	0 	0
0.7752984274 	0 	0 	0 	2.817892058 	-0.11496373 	-3.565360944e-05 	0 	0 	0
0.7787297262 	0 	0 	0 	2.815463925 	-0.1131882443 	-3.39881921e-05 	0 	0 	0
0.7821233653 	0 	0 	0 	2.81300033 	-0.1114443052 	-3.238146716e-05 	0 	0 	0
0.7854798396 	0 	0 	0 	2.810503429 	-0.1097316448 	-3.08300502e-05 	0 	0 	0
0.788799627 	0 	0 	0 	2.807974623 	-0.1080498194 	-2.93276135e-05 	0 	0 	0
0.7920830061 	0 	0 	0 	2.805414256 	-0.1063981733 	-2.786884852e-05 	0 	0 	0
0.795330395 	0 	0 	0 	2.802821281 	-0.1047757687 	-2.644933409e-05 	0 	0 	0
0.7985422953 	0 	0 	0 	2.800193101 	-0.1031813621 	-2.506481439e-05 	0 	0 	0
0.8017190362 	0 	0 	0 	2.797525639 	-0.1016134579 	-2.371105733e-05 	0 	0 	0
0.8048609729 	0 	0 	0 	2.794813471 	-0.1000703579 	-2.238669647e-05 	0 	0 	0
0.8079685004 	0 	0 	0 	2.792049975 	-0.09855021248 	-2.109157297e-05 	0 	0 	0
0.811042089 	0 	0 	0 	2.789227588 	-0.09705107802 	-1.982553163e-05 	0 	0 	0
0.8140820236 	0 	0 	0 	2.78633807 	-0.09557099486 	-1.858865013e-05 	0 	0 	0
0.8170886756 	0 	0 	0 	2.783372642 	-0.09410801146 	-1.738223004e-05 	0 	0 	0
0.820062419 	0 	0 	0 	2.780321999 	-0.09266018428 	-1.620737805e-05 	0 	0 	0
0.8230036812 	0 	0 	0 	2.77717629 	-0.09122556647 	-1.506410259e-05 	0 	0 	0
0.8259127482 	0 	0 	0 	2.773925029 	-0.08980219482 	-1.395203108e-05 	0 	0 	0
0.8287899789 	0 	0 	0 	2.770556835 	-0.08838804179 	-1.287125765e-05 	0 	0 	0
0.8316357286 	0 	0 	0 	2.767059121 	-0.08698096087 	-1.182171521e-05 	0 	0 	0
0.8344503826 	0 	0 	0 	2.763417786 	-0.08557864985 	-1.080302538e-05 	0 	0 	0
0.8372342416 	0 	0 	0 	2.759616995 	-0.08417864334 	-9.815121036e-06 	0 	0 	0
0.8399876419 	0 	0 	0 	2.755639107 	-0.08277835103 	-8.859665203e-06 	0 	0 	0
0.8427109212 	0 	0 	0 	2.751465024 	-0.08137519026 	-7.939897451e-06 	0 	0 	0
0.8454044284 	0 	0 	0 	2.747075396 	-0.07996688156 	-7.06109956e-06 	0 	0 	0
0.8480684794 	0 	0 	0 	2.742453189 	-0.07855198033 	-6.23073037e-06 	0 	0 	0
0.850703385 	0 	0 	0 	2.737588158 	-0.07713070043 	-5.459335081e-06 	0 	0 	0
0.8533094671 	0 	0 	0 	2.732483332 	-0.07570600567 	-4.758757944e-06 	0 	0 	0
0.8558870443 	0 	0 	0 	2.727162344 	-0.07428470918 	-4.138934933e-06 	0 	0 	0
0.8584364432 	0 	0 	0 	2.721674099 	-0.07287777441 	-3.601328742e-06 	0 	0 	0
0.8609579507 	0 	0 	0 	2.716088194 	-0.07149880463 	-3.132936743e-06 	0 	0 	0
0.8634518736 	0 	0 	0 	2.710478435 	-0.07016078215 	-2.706960293e-06 	0 	0 	0
0.865918515 	0 	0 	0 	2.704902581 	-0.06887245236 	-2.291871244e-06 	0 	0 	0
0.8683581774 	0 	0 	0 	2.699387579 	-0.06763611355 	-1.863472782e-06 	0 	0 	0
0.8707711573 	0 	0 	0 	2.693924486 	-0.06644757075 	-1.411733291e-06 	0 	0 	0
0.8731577363 	0 	0 	0 	2.688473958 	-0.0652978647 	-9.410893109e-07 	0 	0 	0
0.8755182041 	0 	0 	0 	2.682978068 	-0.06417586513 	-4.649743159e-07 	0 	0 	0
0.8778475053 	0 	0 	0 	2.677385326 	-0.06307303039 	1.282309845e-07 	0 	0 	0
0.8778528463 	0 	0 	0 	2.677372501 	-0.06307049989 	-9.925272368e-10 	0 	0 	0
0.8801617703 	0 	0 	0 	2.671593281 	-0.06197150606 	-4.186994435e-07 	0 	0 	0
0.8824454411 	0 	0 	0 	2.665583254 	-0.06087173253 	-8.057191927e-07 	0 	0 	0
0.8847041277 	0 	0 	0 	2.659291948 	-0.05976537872 	-1.160273881e-06 	0 	0 	0
0.8869381035 	0 	0 	0 	2.652674949 	-0.05864813751 	-1.481639893e-06 	0 	0 	0
0.8891476383 	0 	0 	0 	2.645692127 	-0.05751662862 	-1.768736226e-06 	0 	0 	0
0.8913329993 	0 	0 	0 	2.638307646 	-0.05636809583 	-2.020106849e-06 	0 	0 	0
0.8934944521 	0 	0 	0 	2.630494732 	-0.05520078278 	-2.236748129e-06 	0 	0 	0
0.8956322522 	0 	0 	0 	2.622247682 	-0.05401529791 	-2.427983438e-06 	0 	0 	0
0.8977466575 	0 	0 	0 	2.613601069 	-0.05281700426 	-2.619072038e-06 	0 	0 	0
0.8998379232 	0 	0 	0 	2.604649898 	-0.05161865635 	-2.853597413e-06 	0 	0 	0
0.9019063017 	0 	0 	0 	2.595554623 	-0.05044093885 	-3.180521717e-06 	0 	0 	0
0.9039520431 	0 	0 	0 	2.586511148 	-0.04930854906 	-3.627329059e-06 	0 	0 	0
0.9059753932 	0 	0 	0 	2.577691067 	-0.04824240154 	-4.176044719e-06 	0 	0 	0
0.9079765939 	0 	0 	0 	2.569184089 	-0.04725193354 	-4.767703009e-06 	0 	0 	0
0.9099558866 	0 	0 	0 	2.560973134 	-0.04633282041 	-5.344733167e-06 	0 	0 	0
0.9119135102 	0 	0 	0 	2.552950678 	-0.04547190008 	-5.84252021e-06 	0 	0 	0
0.9138497008 	0 	0 	0 	2.544964598 	-0.04464919555 	-6.198379232e-06 	0 	0 	0
0.9157646922 	0 	0 	0 	2.536877289 	-0.04384273656 	-6.454154515e-06 	0 	0 	0
0.9176587147 	0 	0 	0 	2.528605112 	-0.04304150792 	-6.684195251e-06 	0 	0 	0
0.9195319953 	0 	0 	0 	2.520106502 	-0.04224348408 	-6.868115814e-06 	0 	0 	0
0.9213847601 	0 	0 	0 	2.511343453 	-0.04144473164 	-6.94289475e-06 	0 	0 	0
0.9232172326 	0 	0 	0 	2.502265038 	-0.04063675764 	-6.89296305e-06 	0 	0 	0
0.9250296339 	0 	0 	0 	2.492821777 	-0.03981130398 	-6.771484837e-06 	0 	0 	0
0.9268221827 	0 	0 	0 	2.482984924 	-0.03896596157 	-6.615490478e-06 	0 	0 	0
0.9285950953 	0 	0 	0 	2.472749752 	-0.03810142829 	-6.43754855e-06 	0 	0 	0
0.9303485844 	0 	0 	0 	2.462128377 	-0.03721925268 	-6.258598583e-06 	0 	0 	0
0.9320828617 	0 	0 	0 	2.451143073 	-0.03632248065 	-6.083506514e-06 	0 	0 	0
0.9337981364 	0 	0 	0 	2.439821998 	-0.03541455539 	-5.908098499e-06 	0 	0 	0
0.9354946155 	0 	0 	0 	2.428196869 	-0.03449890134 	-5.725204535e-06 	0 	0 	0
0.9371725039 	0 	0 	0 	2.416302294 	-0.03357890833 	-5.531169837e-06 	0 	0 	0
0.9388320042 	0 	0 	0 	2.404175609 	-0.03265814514 	-5.330710669e-06 	0 	0 	0
0.9404733165 	0 	0 	0 	2.39185573 	-0.0317405639 	-5.138384974e-06 	0 	0 	0
0.9420966385 	0 	0 	0 	2.379379841 	-0.03083049089 	-4.97530487e-06 	0 	0 	0
0.9437021662 	0 	0 	0 	2.366777553 	-0.02993226093 	-4.861207989e-06 	0 	0 	0
0.9452900935 	0 	0 	0 	2.354063745 	-0.029049322 	-4.797436154e-06 	0 	0 	0
0.9468606123 	0 	0 	0 	2.341231907 	-0.02818339265 	-4.786406355e-06 	0 	0 	0
0.9484139124 	0 	0 	0 	2.328249145 	-0.02733508466 	-4.814494368e-06 	0 	0 	0
0.9499501814 	0 	0 	0 	2.31505602 	-0.02650254178 	-4.794726287e-06 	0 	0 	0
0.9514696049 	0 	0 	0 	2.301581764 	-0.02567998668 	-4.712478686e-06 	0 	0 	0
0.9529723665 	0 	0 	0 	2.287770031 	-0.02486382104 	-4.642184368e-06 	0 	0 	0
0.9544586475 	0 	0 	0 	2.27358595 	-0.02405458049 	-4.568988793e-06 	0 	0 	0
0.9559286278 	0 	0 	0 	2.259004197 	-0.02325152065 	-4.471848285e-06 	0 	0 	0
0.957382485 	0 	0 	0 	2.244001277 	-0.02245420896 	-4.368344363e-06 	0 	0 	0
0.9588203951 	0 	0 	0 	2.22988031 	-0.02172914863 	-4.273403947e-06 	0 	0 	0
0.9597571038 	0 	0 	0 	2.218157679 	-0.02114452998 	-4.180479231e-06 	0 	0 	0
0.9606765719 	0 	0 	0 	2.207671818 	-0.02063418239 	-4.101213513e-06 	0 	0 	0
0.9615791158 	0 	0 	0 	2.197103908 	-0.02013179944 	-4.019858227e-06 	0 	0 	0
0.9624650466 	0 	0 	0 	2.186452518 	-0.01963708652 	-3.936532245e-06 	0 	0 	0
0.9633346692 	0 	0 	0 	2.175715757 	-0.01914997369 	-3.851540643e-06 	0 	0 	0
0.9641882832 	0 	0 	0 	2.164891698 	-0.01867033051 	-3.765181002e-06 	0 	0 	0
0.9650261827 	0 	0 	0 	2.153978471 	-0.01819804765 	-3.677714946e-06 	0 	0 	0
0.9658486563 	0 	0 	0 	2.142974325 	-0.01773302972 	-3.589374854e-06 	0 	0 	0
0.9666559876 	0 	0 	0 	2.131877632 	-0.01727518928 	-3.500367637e-06 	0 	0 	0
0.9674484547 	0 	0 	0 	2.120686889 	-0.01682444604 	-3.410879859e-06 	0 	0 	0
0.9682263307 	0 	0 	0 	2.109400709 	-0.01638072554 	-3.321082014e-06 	0 	0 	0
0.9689898839 	0 	0 	0 	2.09801781 	-0.01594395835 	-3.231131949e-06 	0 	0 	0
0.9697393775 	0 	0 	0 	2.086537004 	-0.01551407957 	-3.141177105e-06 	0 	0 	0
0.9704750697 	0 	0 	0 	2.074957179 	-0.01509102824 	-3.051356227e-06 	0 	0 	0
0.9711972145 	0 	0 	0 	2.063277286 	-0.01467474694 	-2.961800438e-06 	0 	0 	0
0.9719060607 	0 	0 	0 	2.051496317 	-0.01426518133 	-2.872633639e-06 	0 	0 	0
0.9726018528 	0 	0 	0 	2.039613284 	-0.01386227975 	-2.783972973e-06 	0 	0 	0
0.9732848309 	0 	0 	0 	2.027627203 	-0.01346599286 	-2.695929064e-06 	0 	0 	0
0.9739552305 	0 	0 	0 	2.015537066 	-0.01307627336 	-2.608606086e-06 	0 	0 	0
0.9746132828 	0 	0 	0 	2.003341821 	-0.01269307551 	-2.522101974e-06 	0 	0 	0
0.9752592151 	0 	0 	0 	1.991040348 	-0.01231635503 	-2.436508844e-06 	0 	0 	0
0.97589325 	0 	0 	0 	1.978631432 	-0.01194606879 	-2.351912093e-06 	0 	0 	0
0.9765156064 	0 	0 	0 	1.966113739 	-0.01158217435 	-2.268392876e-06 	0 	0 	0
0.9771264991 	0 	0 	0 	1.953485786 	-0.01122462983 	-2.186025093e-06 	0 	0 	0
0.9777261389 	0 	0 	0 	1.940745916 	-0.01087339387 	-2.104876292e-06 	0 	0 	0
0.9783147328 	0 	0 	0 	1.927892267 	-0.0105284254 	-2.025019429e-06 	0 	0 	0
0.978892484 	0 	0 	0 	1.914922746 	-0.01018968346 	-1.946523027e-06 	0 	0 	0
0.9794595919 	0 	0 	0 	1.901834996 	-0.009857126831 	-1.869442939e-06 	0 	0 	0
0.9800162523 	0 	0 	0 	1.888626366 	-0.009530714179 	-1.793829839e-06 	0 	0 	0
0.9805626574 	0 	0 	0 	1.875293871 	-0.009210404212 	-1.71973279e-06 	0 	0 	0
0.981098996 	0 	0 	0 	1.861834153 	-0.008896155404 	-1.647196596e-06 	0 	0 	0
0.9816254531 	0 	0 	0 	1.848243445 	-0.008587925856 	-1.576260069e-06 	0 	0 	0
0.9821422107 	0 	0 	0 	1.834517524 	-0.008285673249 	-1.506957719e-06 	0 	0 	0
0.9826494471 	0 	0 	0 	1.820651672 	-0.007989354788 	-1.439320201e-06 	0 	0 	0
0.9831473377 	0 	0 	0 	1.806640619 	-0.007698927173 	-1.364591148e-06 	0 	0 	0
0.9836360544 	0 	0 	0 	1.792478498 	-0.007414346575 	-1.288563458e-06 	0 	0 	0
0.984115766 	0 	0 	0 	1.778158777 	-0.007135568637 	-1.215745497e-06 	0 	0 	0
0.9845866383 	0 	0 	0 	1.7636742 	-0.006862548483 	-1.146047954e-06 	0 	0 	0
0.9850488339 	0 	0 	0 	1.749016714 	-0.006595240741 	-1.079383077e-06 	0 	0 	0
0.9855025126 	0 	0 	0 	1.734177385 	-0.006333599583 	-1.015664587e-06 	0 	0 	0
0.985947831 	0 	0 	0 	1.719146311 	-0.006077578773 	-9.548075823e-07 	0 	0 	0
0.9863849432 	0 	0 	0 	1.70391252 	-0.005827131746 	-8.967285313e-07 	0 	0 	0
0.9868140001 	0 	0 	0 	1.688463853 	-0.005582211703 	-8.413462325e-07 	0 	0 	0
0.9872351501 	0 	0 	0 	1.672786836 	-0.005342771564 	-7.885734887e-07 	0 	0 	0
0.9876485387 	0 	0 	0 	1.65686653 	-0.005108763919 	-7.383125619e-07 	0 	0 	0
0.9880543088 	0 	0 	0 	1.640686354 	-0.004880141429 	-6.904759383e-07 	0 	0 	0
0.9884526006 	0 	0 	0 	1.624227895 	-0.004656856809 	-6.449893075e-07 	0 	0 	0
0.9888435519 	0 	0 	0 	1.607470682 	-0.004438862409 	-6.017743952e-07 	0 	0 	0
0.9892272978 	0 	0 	0 	1.590391927 	-0.004226110404 	-5.60752399e-07 	0 	0 	0
0.9896039709 	0 	0 	0 	1.572966219 	-0.004018553046 	-5.218496303e-07 	0 	0 	0
0.9899737016 	0 	0 	0 	1.555165176 	-0.003816142735 	-4.849951768e-07 	0 	0 	0
0.9903366176 	0 	0 	0 	1.536957026 	-0.003618832079 	-4.501203125e-07 	0 	0 	0
0.9906928445 	0 	0 	0 	1.518306118 	-0.003426574053 	-4.17158048e-07 	0 	0 	0
0.9910425054 	0 	0 	0 	1.499172347 	-0.003239323216 	-3.860425727e-07 	0 	0 	0
0.9913857212 	0 	0 	0 	1.479510462 	-0.003057027554 	-3.567092877e-07 	0 	0 	0
0.9917226107 	0 	0 	0 	1.459269237 	-0.002879640686 	-3.290892478e-07 	0 	0 	0
0.9920532903 	0 	0 	0 	1.438390417 	-0.002707132416 	-3.031063219e-07 	0 	0 	0
0.9923778745 	0 	0 	0 	1.41680806 	-0.002538840382 	-2.787289883e-07 	0 	0 	0
0.9926964754 	0 	0 	0 	1.39444709 	-0.002376632904 	-2.556471377e-07 	0 	0 	0
0.9930092033 	0 	0 	0 	1.373239891 	-0.002232875399 	-2.358057277e-07 	0 	0 	0
0.9932104764 	0 	0 	0 	1.355417872 	-0.002117145708 	-2.209720508e-07 	0 	0 	0
0.9934117513 	0 	0 	0 	1.339080301 	-0.002016717764 	-2.081582154e-07 	0 	0 	0
0.9936130281 	0 	0 	0 	1.3220399 	-0.001917856077 	-1.956251235e-07 	0 	0 	0
0.9938143068 	0 	0 	0 	1.304230074 	-0.001819572968 	-1.835718494e-07 	0 	0 	0
0.9940155875 	0 	0 	0 	1.285575093 	-0.001722203312 	-1.719429707e-07 	0 	0 	0
0.99421687 	0 	0 	0 	1.265988454 	-0.001625784962 	-1.607173723e-07 	0 	0 	0
0.9944181544 	0 	0 	0 	1.245370607 	-0.001530362881 	-1.498816019e-07 	0 	0 	0
0.9946194408 	0 	0 	0 	1.22360658 	-0.001435985997 	-1.394215749e-07 	0 	0 	0
0.994820729 	0 	0 	0 	1.200563112 	-0.001342701993 	-1.29322549e-07 	0 	0 	0
0.9950220192 	0 	0 	0 	1.176085205 	-0.001250562333 	-1.19568146e-07 	0 	0 	0
0.9952233112 	0 	0 	0 	1.149992031 	-0.001159623691 	-1.101401479e-07 	0 	0 	0
0.9954246052 	0 	0 	0 	1.122072094 	-0.001069951889 	-1.010181199e-07 	0 	0 	0
0.995625901 	0 	0 	0 	1.092077625 	-0.0009816301952 	-9.217858482e-08 	0 	0 	0
0.9958271988 	0 	0 	0 	1.059718255 	-0.0008947761935 	-8.359360557e-08 	0 	0 	0
0.9960284984 	0 	0 	0 	1.024654213 	-0.0008095751022 	-7.522878414e-08 	0 	0 	0
0.9962298 	0 	0 	0 	0.9864896801 	-0.0007263431047 	-6.704182798e-08 	0 	0 	0
0.9964311034 	0 	0 	0 	0.9447676927 	-0.0006456419927 	-5.898489528e-08 	0 	0 	0
0.9966324088 	0 	0 	0 	0.8989694409 	-0.0005684583507 	-5.102754988e-08 	0 	0 	0
0.9968337161 	0 	0 	0 	0.8485235745 	-0.0004963535595 	-4.32390097e-08 	0 	0 	0
0.9970350252 	0 	0 	0 	0.7928360869 	-0.0004310413079 	-3.595594132e-08 	0 	0 	0
0.9972363363 	0 	0 	0 	0.7313592247 	-0.0003721150096 	-2.983439626e-08 	0 	0 	0
0.9974376493 	0 	0 	0 	0.6637252308 	-0.0003130964018 	-2.517544331e-08 	0 	0 	0
0.9976389642 	0 	0 	0 	0.5899594039 	-0.0002430857792 	-2.079307902e-08 	0 	0 	0
0.9978402809 	0 	0 	0 	0.51071773 	-0.0001618793838 	-1.503130409e-08 	0 	0 	0
0.9980415996 	0 	0 	0 	0.4273639646 	-8.990273046e-05 	-8.734431082e-09 	0 	0 	0
0.9982429202 	0 	0 	0 	0.3416800073 	-4.659030879e-05 	-4.351406647e-09 	0 	0 	0
0.9984442427 	0 	0 	0 	0.2553004474 	-2.680071165e-05 	-2.211659362e-09 	0 	0 	0
0.9986455671 	0 	0 	0 	0.1692916858 	-1.439374829e-05 	-9.693262506e-10 	0 	0 	0
0.9988468934 	0 	0 	0 	0.08414127077 	-8.727760389e-06 	-1.470650701e-09 	0 	0 	0
0.9990482216 	-0.002247924643 	7.340475029e-07 	1.186448085e-10 	0.03500520734 	-7.590486907e-06 	-2.110632659e-09 	67.61692286 	-0.014647573 	-2.762015395e-06
