0.4709558481  3.585329902e-06  -2.448193942e-08  -6.931333243e-14  3.578508674e-06  6.441149686e-12   6.821632127e-09
0.4711314108  4.024635218e-05  -1.071694282e-06  -3.034703788e-12  4.016992375e-05  7.239184685e-11   7.657503932e-08
0.4713069734  0.0002238963824  -1.381017753e-05  -3.872548383e-11  0.0002234745041  4.024739887e-10   4.260045163e-07
0.471482536   0.0007395032542  -8.304951348e-05  -2.265507092e-10  0.0007381174721  1.319778628e-09   1.407057051e-06
0.4716580986  0.00178840906    -0.0003122049186  -8.088444819e-10  0.001784972715   3.123693259e-09   3.402654103e-06
0.4718336613  0.003505827556   -0.0008421240181  -2.019463807e-09  0.003498730813   5.865605762e-09   6.669553351e-06
0.4720092239  0.005882939548   -0.001768537252   -3.840486222e-09  0.005870795403   9.207340109e-09   1.119136774e-05
0.4721847865  0.008751900568   -0.003067269571   -5.949262685e-09  0.008734702362   1.255201316e-08   1.665077039e-05
0.4723603491  0.01185924278    -0.004606501584   -7.95029929e-09   0.01183773942    1.535840035e-08   2.256602147e-05
0.4725359118  0.01496622737    -0.006223730608   -9.606807211e-09  0.0149403172     1.734466618e-08   2.848039702e-05
0.4727114744  0.01790646644    -0.007789552022   -1.086607638e-08  0.01787531843    1.841649573e-08   3.407532512e-05
0.472887037   0.02059136152    -0.009226863287   -1.177480757e-08  0.02055384793    1.881939929e-08   3.918134681e-05
0.4730625996  0.02299005514    -0.0105023636     -1.25580369e-08   0.02294774219    1.874311869e-08   4.374477461e-05
0.4732381623  0.0251065597     -0.01161063696    -1.0384761e-08    0.02506286312    1.787488511e-08   4.777678298e-05
0.4734137249  0.02696381897    -0.01252655804    -7.561689517e-09  0.02691520541    1.678072986e-08   5.13078622e-05
0.4735892875  0.02859201631    -0.01328300723    -7.011976482e-09  0.0285362193     1.597452777e-08   5.439796523e-05
0.4737648501  0.03001944584    -0.01394619432    -6.350235452e-09  0.02996217266    1.479674241e-08   5.711622864e-05
0.4739404128  0.03127113803    -0.01452775348    -5.611044055e-09  0.03121377244    1.326983666e-08   5.95021257e-05
0.4741159754  0.03237021583    -0.01503843984    -4.826302501e-09  0.03231094204    1.174305264e-08   6.15936359e-05
0.474291538   0.03333736904    -0.01548783809    -4.022008403e-09  0.03327645902    1.018117253e-08   6.343417961e-05
0.4744671006  0.03419069958    -0.01588430882    -3.220234486e-09  0.0341284747     8.6211736e-09     6.50583583e-05
0.4746426632  0.03494585309    -0.01623515285    -2.438129926e-09  0.03488252876    7.108384712e-09   6.649579492e-05
0.4748182259  0.03561625703    -0.01654664604    -1.685054895e-09  0.03555162204    5.776888461e-09   6.777127267e-05
0.4749937885  0.03621339419    -0.01682411227    -9.657132837e-10  0.0361476923     4.257401829e-09   6.890754826e-05
0.4751693511  0.03674708758    -0.01707210961    -2.837439157e-10  0.03668182537    2.613529757e-09   6.992575433e-05
0.4753449137  0.03722584033    -0.01728532136    -2.674449286e-09  0.03716068304    1.825909407e-09   7.083859015e-05
0.4755204764  0.03765703082    -0.0174609724     -4.549442803e-09  0.03759001607    9.780861709e-10   7.165701824e-05
0.475696039   0.03804681159    -0.01761239255    -3.238219101e-09  0.03797893002    -5.345268004e-10  7.239839632e-05
0.4758716016  0.03840017967    -0.01774866824    -2.27122074e-09   0.03833198382    -1.484208035e-09  7.307141498e-05
0.4760471642  0.03872131874    -0.01787111153    -1.291085379e-09  0.03865157876    -2.059360899e-09  7.368065176e-05
0.4762227269  0.03905240084    -0.01800648785    -5.365525855e-10  0.03898365388    -2.727413002e-09  7.431367925e-05
0.4764955107  0.03942028549    -0.01815409389    -1.773242106e-10  0.03935296325    -3.287196001e-09  7.501768555e-05
0.4767734216  0.03977807654    -0.01828547978    -8.438404985e-11  0.03970898198    -3.737215331e-09  7.569635619e-05
0.4770565557  0.04009491521    -0.01839981071    -7.223187584e-11  0.04002495526    -4.083947336e-09  7.629868908e-05
0.4773450114  0.04037561694    -0.01849931496    -6.686266525e-11  0.04030609545    -4.326149261e-09  7.683462043e-05
0.4776388886  0.04062428279    -0.01858625112    -5.760013069e-11  0.04055468374    -4.462510914e-09  7.730849879e-05
0.4779382892  0.04084441285    -0.01866233268    -5.170615458e-11  0.04077480225    -4.502310082e-09  7.772810586e-05
0.4782433171  0.04103900232    -0.0187287815     -6.027498384e-11  0.04096942074    -4.448454624e-09  7.809910279e-05
0.4785540779  0.04121062594    -0.0187866568     -9.324776899e-11  0.04114110896    -4.297859456e-09  7.842638826e-05
0.4788706795  0.04136150583    -0.01883686306    -1.578716423e-10  0.04129209201    -4.048121132e-09  7.871420392e-05
0.4791932316  0.04149356704    -0.01888017633    -2.592859019e-10  0.04142428972    -3.698475052e-09  7.896620949e-05
0.4795218461  0.04160848317    -0.01891726528    -4.005603416e-10  0.04153937219    -3.249952767e-09  7.918558866e-05
0.4798566368  0.04170771405    -0.01894870743    -5.826895235e-10  0.04163879624    -2.705485752e-09  7.937511854e-05
0.48019772    0.041792537      -0.01897500349    -8.046847121e-10  0.04172383655    -2.069803943e-09  7.9537229e-05
0.4805452138  0.04186407288    -0.01899658913    -1.063735171e-09  0.04179561165    -1.349281388e-09  7.96740523e-05
0.4808992388  0.04192330795    -0.01901384472    -1.355399433e-09  0.04185510573    -5.517831641e-10  7.978746454e-05
0.4812599177  0.04197111222    -0.01902710345    -1.673832223e-09  0.0419031869     3.134717261e-10   7.987912063e-05
0.4816273755  0.04200825501    -0.01903665803    -2.012066639e-09  0.04194062276    1.236027258e-09   7.995048377e-05
0.4820017397  0.04203541809    -0.01904276624    -2.362364889e-09  0.04196809347    2.204289588e-09   8.000285058e-05
0.48238314    0.04205320683    -0.01904565566    -2.716571462e-09  0.04198620292    3.205509473e-09   8.003737223e-05
0.4827717088  0.04206215999    -0.01904552754    -3.066473566e-09  0.0419954884     4.2258662e-09     8.005507293e-05
0.4831675807  0.04206275798    -0.01904256025    -3.404082574e-09  0.04199642894    5.250834644e-09   8.005686587e-05
0.4835708931  0.04205542975    -0.01903691204    -3.720984914e-09  0.04198945217    6.264768352e-09   8.00435662e-05
0.4839817856  0.04204055893    -0.01902872348    -4.006476435e-09  0.04197494045    7.252264395e-09   8.001590283e-05
0.4844004009  0.04201848965    -0.01901811928    -4.248425891e-09  0.04195323654    8.206748768e-09   7.997452915e-05
0.4848268841  0.04198953282    -0.01900521055    -4.432535223e-09  0.04192464988    9.123877487e-09   7.992003503e-05
0.485261383   0.04195396792    -0.01899009599    -4.541737546e-09  0.04188945835    9.989867348e-09   7.985295019e-05
0.4857040484  0.04191204505    -0.01897286322    -4.560686914e-09  0.04184791036    1.078765039e-08   7.977374817e-05
0.4861550336  0.04186398984    -0.01895359044    -4.468878795e-09  0.04180022987    1.148419956e-08   7.968285591e-05
0.4866144951  0.04181000661    -0.01893234704    -4.243697442e-09  0.04174661943    1.204993137e-08   7.95806595e-05
0.4870825921  0.04175028133    -0.01890919431    -3.86619795e-09   0.04168726293    1.247648532e-08   7.946750952e-05
0.487559487   0.04168498338    -0.01888418597    -3.317664596e-09  0.04162232744    1.275779684e-08   7.934372444e-05
0.4880453452  0.04161426759    -0.01885736905    -2.58209573e-09   0.04155196525    1.289030666e-08   7.920959454e-05
0.4885403351  0.04153827613    -0.01882878454    -1.643347467e-09  0.0414763157     1.286762389e-08   7.906538548e-05
0.4890446283  0.04145714019    -0.01879846795    -4.843261203e-10  0.04139550688    1.267801374e-08   7.89113414e-05
0.4895583997  0.04137098148    -0.01876644983    9.115209904e-10   0.04130965707    1.230786212e-08   7.874768781e-05
0.4900818274  0.04127991365    -0.01873275616    2.560742469e-09   0.04121887616    1.174035521e-08   7.857463415e-05
0.4906150929  0.04118404373    -0.01869740874    4.486485245e-09   0.04112326703    1.095331689e-08   7.839237658e-05
0.4911583811  0.04108347273    -0.01866042575    6.707327982e-09   0.0410229262     9.960213787e-09   7.820109907e-05
0.4917118805  0.04097829422    -0.01862182205    9.255666225e-09   0.04091794218    8.756944e-09      7.800097034e-05
0.4922757829  0.04086859701    -0.01858161029    1.217717882e-08   0.04080839804    7.312062123e-09   7.779214878e-05
0.4928502838  0.04075446783    -0.01853980112    1.550854357e-08   0.04069437403    5.623064746e-09   7.757478731e-05
0.4934355824  0.04063599056    -0.01849640256    1.928407775e-08   0.04057594623    3.688492776e-09   7.734903102e-05
0.4940318817  0.04051324672    -0.01845142015    2.351999819e-08   0.04045318711    1.511688144e-09   7.711501801e-05
0.4946393885  0.04038631586    -0.01840485761    2.81985736e-08    0.04032616591    -8.963279013e-10  7.687288031e-05
0.4952583133  0.04025527578    -0.01835671982    3.326529664e-08   0.04019494834    -3.509486816e-09  7.662274315e-05
0.4958888709  0.04012020243    -0.0183070204     3.867065016e-08   0.04005959519    -6.26876269e-09   7.636472242e-05
0.4965312797  0.03998116978    -0.01825579506    4.448414173e-08   0.03992016815    -9.147923701e-09  7.609893573e-05
0.4971857627  0.03983824964    -0.01820310148    5.089373221e-08   0.03977673079    -1.217768969e-08  7.582550426e-05
0.4978525466  0.03969151172    -0.01814900338    5.805997675e-08   0.0396293383     -1.53478775e-08   7.554453321e-05
0.4985318627  0.03954102398    -0.01809356471    6.608277172e-08   0.03947804037    -1.864307919e-08  7.525611729e-05
0.4992239466  0.0393868524     -0.01803684751    7.498009727e-08   0.03932289038    -2.214605527e-08  7.49603583e-05
0.4999290382  0.03922905871    -0.01797889632    8.44282492e-08    0.0391639365     -2.591747607e-08  7.465734803e-05
0.5006473819  0.03906769704    -0.01791974241    9.360249046e-08   0.0390012097     -2.999375245e-08  7.434714552e-05
0.501379227   0.03890281157    -0.01785945681    1.014656216e-07   0.03883474934    -3.435123783e-08  7.40298258e-05
0.502124827   0.03873443397    -0.01779818564    1.0749629e-07     0.03866461011    -3.882207292e-08  7.370549314e-05
0.5028844406  0.0385625872     -0.01773611462    1.123995053e-07   0.03849081895    -4.351158773e-08  7.337419888e-05
0.5036583311  0.03838729341    -0.01767344371    1.177425005e-07   0.03831351508    -4.863212325e-08  7.303620844e-05
0.5044467669  0.03820857451    -0.01761021006    1.24956623e-07    0.03813242638    -5.418510382e-08  7.269100304e-05
0.5052500214  0.0380264492     -0.01754565677    1.341842294e-07   0.03794767238    -6.054302574e-08  7.233881056e-05
0.506068373   0.03781701732    -0.01747193168    1.451552863e-07   0.03773623539    -6.910869825e-08  7.19357529e-05
0.507324668   0.03755570356    -0.01737394556    1.56798703e-07    0.03747122841    -7.376964917e-08  7.143057594e-05
0.5085949819  0.03726659843    -0.01725847794    1.670105768e-07   0.03717615055    -8.360151916e-08  7.086807553e-05
0.5098794711  0.03697388607    -0.01714456628    1.835487818e-07   0.03687956225    -1.039162133e-07  7.03026958e-05
0.5111782938  0.03667780389    -0.01702579256    1.187660958e-07   0.03657997388    -1.052176314e-07  6.97315971e-05
0.5124916099  0.03637749256    -0.01689159659    4.127787725e-08   0.03627408987    -1.122148626e-07  6.914849716e-05
0.5138195812  0.03607079758    -0.01674885231    4.058708049e-08   0.03596583371    -1.516330117e-07  6.856087523e-05
0.5151623712  0.03575643146    -0.01660397553    4.176725869e-08   0.03565744982    -1.795919974e-07  6.797300982e-05
0.5165201452  0.03543551019    -0.01645698471    4.512187078e-08   0.03534631442    -1.760342576e-07  6.737989928e-05
0.5178930705  0.03511111835    -0.01630792675    4.975009744e-08   0.03502942785    -1.372234817e-07  6.67758254e-05
0.5192813161  0.03478719959    -0.01615677097    5.360642844e-08   0.03470313335    -5.190063792e-08  6.61538174e-05
0.520685053   0.03446713993    -0.01600327726    5.347547379e-08   0.03436314364    7.435967818e-08   6.550570251e-05
0.522104454   0.03415169892    -0.01584695039    4.615061299e-08   0.03400677613    2.173501654e-07   6.4826367e-05
0.523539694   0.03383720497    -0.01568716577    3.086899121e-08   0.03363513066    3.229249984e-07   6.411790743e-05
0.5249909497  0.03351551524    -0.01552339919    1.018922849e-08   0.03325387997    3.311697115e-07   6.339113767e-05
0.5264583998  0.0331765031     -0.01535542922    -1.062996058e-08  0.03287154531    2.215243398e-07   6.266230153e-05
0.527942225   0.03281295389    -0.01518344472    -2.533018869e-08  0.03249564199    2.493907041e-08   6.194572532e-05
0.5294426081  0.032424373      -0.01500795412    -2.938335795e-08  0.0321288549     -1.887566434e-07  6.124652719e-05
0.5309597337  0.03201700612    -0.01482949895    -2.315811665e-08  0.03176773269    -3.376996543e-07  6.055812789e-05
0.5324937889  0.03160100683    -0.01464835736    -1.150609609e-08  0.0314038721     -3.648910986e-07  5.986450848e-05
0.5340449624  0.031186426      -0.01446438028    -5.17276251e-10   0.0310268312     -2.582070217e-07  5.914576372e-05
0.5356134452  0.0307799188     -0.01427699535    4.737104392e-09   0.03062769905    -5.062964386e-08  5.838490692e-05
0.5371994306  0.03038200971    -0.01408525168    1.202721269e-10   0.03020203448    1.90684075e-07    5.757347194e-05
0.5388031139  0.02998559859    -0.0138880192     -1.612185067e-08  0.02975190728    3.815206821e-07   5.671540439e-05
0.5404246925  0.02957785983    -0.01368441965    -4.002902702e-08  0.0292858505     4.474865277e-07   5.582697064e-05
0.5420643661  0.02914575616    -0.01347426464    -6.245442386e-08  0.02881530931    3.619764166e-07   5.492998835e-05
0.5437223366  0.02868256483    -0.01325816535    -7.400953201e-08  0.02834905744    1.650800805e-07   5.40411827e-05
0.5453988083  0.02819125743    -0.01303725835    -7.093272393e-08  0.02788922236    -5.515161996e-08  5.316460922e-05
0.5470939875  0.02768294582    -0.01281291763    -5.680887092e-08  0.02743146586    -2.082363903e-07  5.229199811e-05
0.5488080831  0.02717203708    -0.01258666457    -3.983238728e-08  0.02696864336    -2.42789585e-07   5.140972979e-05
0.5505413061  0.02667114081    -0.01236012995    -2.789657061e-08  0.02649528327    -1.60885798e-07   5.05073739e-05
0.5522938699  0.0261886345     -0.01213510238    -2.513621442e-08  0.02601069749    -4.422504989e-09  4.958361871e-05
0.5540659904  0.02572881756    -0.01191367798    -3.181998998e-08  0.02551979039    1.71555731e-07    4.864781334e-05
0.5558578859  0.02529297427    -0.01169830043    -4.543516765e-08  0.02503150382    3.179148273e-07   4.771700342e-05
0.5576697768  0.0248808174     -0.01149154398    -6.174269261e-08  0.02454808878    4.034950794e-07   4.679548001e-05
0.5595018865  0.02449168775    -0.01129602871    -7.611505687e-08  0.02410077244    4.347584482e-07   4.594277072e-05
0.5613544406  0.02412418948    -0.01111338049    -8.078912036e-08  0.02371415543    4.268161452e-07   4.520577126e-05
0.563227667   0.0237688188     -0.01074879542    -4.073403426e-08  0.02332645518    3.838645877e-07   4.446670682e-05
0.5651217966  0.02341956261    -0.01024318913    -2.104221637e-08  0.0229365021     3.427008177e-07   4.372334787e-05
0.5670370626  0.02307991445    -0.009810505877   -3.605873548e-08  0.02259648391    3.211216996e-07   4.307517869e-05
0.5689737009  0.02275110772    -0.009418636125   -3.048188715e-08  0.02227208148    3.016455044e-07   4.245677751e-05
0.5709319499  0.02243334786    -0.009053210555   -2.91384386e-08   0.0219438196     2.898651408e-07   4.183101913e-05
0.5729120508  0.02212675645    -0.008705397188   -3.062985107e-08  0.02162729062    2.866388526e-07   4.122762692e-05
0.5749142474  0.02183142997    -0.008369432025   -3.331911873e-08  0.02132209573    2.844013705e-07   4.064584063e-05
0.5769387863  0.02154746127    -0.008043410226   -3.611414392e-08  0.02102830737    2.834715548e-07   4.008579835e-05
0.5789859169  0.02127493574    -0.007726339624   -3.81134544e-08   0.02074599678    2.834298617e-07   3.954763591e-05
0.5810558911  0.02101391235    -0.007417523524   -3.902063998e-08  0.02047511889    2.839429845e-07   3.903126737e-05
0.583148964   0.02076441361    -0.007116396122   -3.881677516e-08  0.02021567221    2.847548178e-07   3.853668988e-05
0.5852653933  0.02052642144    -0.006822472942   -3.759834948e-08  0.01996762521    2.856613733e-07   3.806384337e-05
0.5874054395  0.02029987747    -0.006535334565   -3.549846263e-08  0.01973091088    2.865237752e-07   3.761260007e-05
0.5895693664  0.0200846864     -0.006254607506   -3.265262351e-08  0.01950542934    2.87247971e-07    3.718276957e-05
0.5917574402  0.0198807207     -0.005979948561   -2.918704224e-08  0.01929105363    2.87770037e-07    3.677410989e-05
0.5939699306  0.01968782524    -0.005711034289   -2.521440965e-08  0.01908763578    2.880456375e-07   3.638633893e-05
0.5962071099  0.01950582147    -0.005447554706   -2.083183636e-08  0.01889501137    2.880427371e-07   3.601914327e-05
0.5984692536  0.01933451124    -0.00518920943    -1.61174827e-08   0.01871300315    2.877356527e-07   3.567218501e-05
0.6007566404  0.01917368047    -0.00493570522    -1.112840937e-08  0.01854142407    2.870988819e-07   3.534510759e-05
0.6030695519  0.01902310277    -0.004686754595   -5.905910277e-09  0.01838008019    2.86105917e-07    3.503754132e-05
0.6054082729  0.01888254265    -0.004442075266   -4.873161434e-10  0.01822877364    2.847341845e-07   3.474910898e-05
0.6077730914  0.01875175859    -0.004201389847   5.089555506e-09   0.01808730529    2.829673419e-07   3.447943098e-05
0.6101642987  0.01863050613    -0.003964425606   1.078999738e-08   0.01795547704    2.807947483e-07   3.422812971e-05
0.6125821893  0.01851854097    -0.003730914247   1.658257074e-08   0.0178330937     2.782120278e-07   3.399483304e-05
0.6150270608  0.01841562186    -0.003500591513   2.243460973e-08   0.01771996455    2.752216069e-07   3.377917745e-05
0.6174992144  0.01832151227    -0.003273196775   2.830585277e-08   0.01761590489    2.718339195e-07   3.35808108e-05
0.6199989545  0.01823598063    -0.003048473664   3.414878199e-08   0.01752074083    2.680417963e-07   3.339940167e-05
0.622526589   0.01815880319    -0.002826175432   3.996382033e-08   0.0174343058     2.638289047e-07   3.323463247e-05
0.625082429   0.01808976705    -0.002606042177   4.560998071e-08   0.01735643953    2.591989652e-07   3.308619771e-05
0.6276667894  0.01802868154    -0.00238786171    5.112331294e-08   0.01728699217    2.54189348e-07    3.295381175e-05
0.6302799884  0.0179753614     -0.002171414218   5.650836502e-08   0.0172258279     2.488127182e-07   3.283721564e-05
0.6329223478  0.01792961522    -0.001956435809   6.161830028e-08   0.01717282662    2.430334895e-07   3.273618048e-05
0.6355941931  0.01789127346    -0.001742711929   6.674554284e-08   0.01712787666    2.368344297e-07   3.265049337e-05
0.6382958531  0.01786019087    -0.001530037502   7.21073473e-08    0.01709086774    2.302401078e-07   3.257994406e-05
0.6410276607  0.01783623806    -0.001318207547   7.774886126e-08   0.01706169063    2.233444788e-07   3.252432439e-05
0.6437899523  0.01781929737    -0.001107018805   8.370029086e-08   0.01704024495    2.162709554e-07   3.248344297e-05
0.646583068   0.01780926135    -0.0008962704358  8.978237349e-08   0.01702643941    2.090743547e-07   3.245712578e-05
0.6494073518  0.01780603195    -0.0006857735889  9.576279437e-08   0.01702019156    2.017480668e-07   3.244521563e-05
0.6522631514  0.01780951778    -0.0004753396877  1.015818941e-07   0.01702142807    1.943113587e-07   3.244757275e-05
0.6551508186  0.01781963866    -0.0002647814762  1.072965569e-07   0.01703008563    1.867774754e-07   3.246407648e-05
0.658070709   0.01783632453    -5.392083158e-05  1.129548881e-07   0.01704610295    1.791605758e-07   3.249460994e-05
0.6610231822  0.01785951179    0.0001574224338   1.185969134e-07   0.01706941854    1.714978884e-07   3.253905593e-05
0.6640086017  0.01788914382    0.0003694309273   1.242596558e-07   0.01709998059    1.638224872e-07   3.25973157e-05
0.6670273351  0.01792517069    0.0005822723475   1.299846548e-07   0.0171377363     1.561950328e-07   3.266928857e-05
0.6700797543  0.01796754777    0.0007961072718   1.358069249e-07   0.01718263062    1.486746418e-07   3.275486964e-05
0.6731662352  0.01801623423    0.001011097412    1.41755043e-07    0.01723461233    1.413187111e-07   3.285396121e-05
0.6762871577  0.01807119215    0.00122740094     1.478564071e-07   0.01729362917    1.341983901e-07   3.296646372e-05
0.6794429063  0.01813238551    0.001445172693    1.541363361e-07   0.01735962746    1.273865855e-07   3.309227481e-05
0.6826338695  0.01819977935    0.001664564383    1.606182102e-07   0.01743255209    1.209627124e-07   3.323128941e-05
0.6858604404  0.01827333893    0.001885724805    1.67323174e-07    0.01751234588    1.150126352e-07   3.338339854e-05
0.6891230163  0.01835302902    0.002108800126    1.742694792e-07   0.01759894923    1.096296877e-07   3.35484886e-05
0.6924219988  0.01843881329    0.002333934236    1.814714775e-07   0.01769229986    1.049155854e-07   3.372644084e-05
0.6957577944  0.01853065372    0.002561269204    1.889382426e-07   0.01779233271    1.009815477e-07   3.391713127e-05
0.6991308138  0.0186285101     0.002790945864    1.966717673e-07   0.01789898005    9.794956549e-08   3.412043073e-05
0.7025414724  0.01873233959    0.003023104563    2.046646529e-07   0.01801217172    9.595387302e-08   3.433620552e-05
0.7059901901  0.01884209626    0.00325788612     2.12897151e-07    0.01813183573    9.514267039e-08   3.456431839e-05
0.7094773917  0.01895773067    0.003495433045    2.213333434e-07   0.01825789909    9.568018503e-08   3.480463019e-05
0.7130035066  0.01907918934    0.003735891078    2.299161438e-07   0.01839028917    9.774933865e-08   3.505700248e-05
0.7165689691  0.01920641418    0.003979411285    2.385607831e-07   0.01852893542    1.015552237e-07   3.532130077e-05
0.7201742182  0.0193393416     0.004226153481    2.471467624e-07   0.01867376983    1.073271545e-07   3.559739541e-05
0.7238196978  0.01947790147    0.004476290725    2.555109519e-07   0.01882471979    1.153134364e-07   3.588514797e-05
0.727505857   0.01962201584    0.004730009367    2.634239736e-07   0.0189817178     1.257363535e-07   3.618442983e-05
0.7312331497  0.01977159524    0.004987449926    2.70548514e-07    0.01914476953    1.390275537e-07   3.649525174e-05
0.7350020349  0.01992611607    0.005247679153    2.765175495e-07   0.01931346826    1.557039817e-07   3.681683841e-05
0.7387709215  0.020084067      0.005507616813    2.811226878e-07   0.01948624405    1.755934934e-07   3.714619709e-05
0.7424982157  0.02024382894    0.005764178937    2.842723094e-07   0.01966139486    1.983085737e-07   3.74800832e-05
0.7461843763  0.02040466172    0.006016430244    2.858174565e-07   0.01983830048    2.238876947e-07   3.781731449e-05
0.7498298574  0.02056626196    0.006264504537    2.856442825e-07   0.02001683456    2.522550372e-07   3.815765006e-05
0.7534351078  0.02072835739    0.006508581699    2.837245368e-07   0.02019684695    2.831805983e-07   3.850080371e-05
0.7570005716  0.02089070721    0.006748859787    2.799216442e-07   0.02037821371    3.164805029e-07   3.884653917e-05
0.7605266877  0.02105310131    0.006985550305    2.740450445e-07   0.0205608426     3.520114566e-07   3.919468058e-05
0.7640138905  0.02121536189    0.007218863092    2.660759245e-07   0.02074465019    3.897886892e-07   3.954506894e-05
0.7674626093  0.02137734459    0.007449017646    2.561176311e-07   0.02092955735    4.299410119e-07   3.989755337e-05
0.770873269   0.02153893883    0.007676259583    2.443001833e-07   0.02111549302    4.726174626e-07   4.025199845e-05
0.7742462894  0.02170006896    0.007900866632    2.308107165e-07   0.02130238876    5.18014902e-07    4.060827367e-05
0.777582086   0.02186069677    0.008123155593    2.159379415e-07   0.0214901702     5.664332521e-07   4.096623728e-05
0.7808810695  0.02202082621    0.008343488976    2.001470075e-07   0.02167874942    6.183076271e-07   4.13257217e-05
0.7841436462  0.02218051193    0.008562279803    1.842055743e-07   0.02186801396    6.74244168e-07    4.168651251e-05
0.787370218   0.02233987361    0.008779992026    1.693827725e-07   0.02205780934    7.350726343e-07   4.204831525e-05
0.7905611821  0.02249911867    0.008997129879    1.57740481e-07    0.02224791302    8.019155628e-07   4.241070569e-05
0.7937169314  0.02265857486    0.009214199363    1.52548927e-07    0.0224380023     8.762958324e-07   4.27730687e-05
0.7968378547  0.02281873139    0.009431627076    1.589203257e-07   0.02262765507    9.601378751e-07   4.31345996e-05
0.7999243362  0.02298028913    0.009649622532    1.846736227e-07   0.02281628963    1.054981871e-06   4.349418949e-05
0.8029767561  0.02314421639    0.009868034876    2.425234903e-07   0.02300321598    1.161933592e-06   4.385052307e-05
0.8059954902  0.0233118659     0.01008731082     3.520565535e-07   0.023188379      1.272557234e-06   4.420349525e-05
0.8089809102  0.02348528008    0.01030906153     5.261233855e-07   0.02336384442    1.360055594e-06   4.45379811e-05
0.8119333839  0.02366654713    0.01053695061     7.881435861e-07   0.02352592701    1.517388919e-06   4.484695557e-05
0.8148532749  0.02385816867    0.01079915287     1.042702493e-06   0.02368983368    1.755966885e-06   4.515940725e-05
0.8177409426  0.0240639021     0.01104785399     6.164444305e-07   0.02384995159    1.930947288e-06   4.546463647e-05
0.8205967427  0.02426971731    0.01119333136     9.349091648e-08   0.02400582984    2.275133478e-06   4.576178376e-05
0.8234210268  0.02443287373    0.01128044478     7.603540635e-08   0.02421249895    2.824541391e-06   4.615575251e-05
0.8262141429  0.02451864378    0.01136928795     2.686355349e-08   0.02450878969    3.073649263e-06   4.672056502e-05
0.8289764348  0.02453629144    0.01145668248     -3.536721417e-08  0.02487117329    2.7698808e-06     4.741136887e-05
0.8317082427  0.02453497495    0.01153645584     -2.379714458e-07  0.02524542848    1.956061836e-06   4.812480328e-05
0.8344099031  0.02457331359    0.0115908165      -4.751815207e-07  0.02557171603    9.803145052e-07   4.874679805e-05
0.8370817486  0.02467959331    0.01161813237     -3.510826296e-07  0.02582447509    3.447537842e-07   4.922862706e-05
0.8397241082  0.02483836563    0.01165449739     -7.949168032e-08  0.02602772603    7.973791654e-08   4.961607985e-05
0.8423373074  0.02502058815    0.01171571855     2.431510306e-08   0.02621101933    -4.456404467e-08  4.996548781e-05
0.844921668   0.02521094917    0.01178783644     6.497412952e-08   0.02638595024    -1.036580034e-07  5.029895475e-05
0.8474775082  0.0254059704     0.01186535384     1.015536039e-07   0.02655831417    -1.291596065e-07  5.062752832e-05
0.8500051427  0.0256050068     0.01194880978     1.308750955e-07   0.0267314009     -1.50355641e-07   5.095747973e-05
0.8525048829  0.02580740613    0.01203924272     1.514538546e-07   0.02690601227    -1.671417924e-07  5.129033753e-05
0.8549770366  0.02601283101    0.01213863069     1.639002928e-07   0.02708287224    -1.859314048e-07  5.162748179e-05
0.8574219081  0.02622166026    0.01224968807     1.798372324e-07   0.02725823996    -1.905354821e-07  5.196178141e-05
0.8598397987  0.02643489669    0.01237886378     2.118529783e-07   0.02743455625    -1.489333512e-07  5.229788925e-05
0.862231006   0.02665431907    0.01253918461     1.603923247e-07   0.02761926494    -6.457121608e-08  5.264999535e-05
0.8645958245  0.02688147882    0.01268372442     2.162369062e-08   0.02780333446    8.471053102e-08   5.300088302e-05
0.8669345455  0.02710380194    0.01278831256     -5.357163518e-08  0.02799778283    3.053719282e-07   5.337155566e-05
0.8692474569  0.02729688657    0.01288883148     -7.25941902e-08   0.02823764759    4.490154544e-07   5.382880455e-05
0.8715348435  0.02745029262    0.01299007509     -9.016770272e-08  0.02852897377    3.35073737e-07    5.438415322e-05
0.8737969871  0.02757704558    0.01309111978     -1.086443595e-07  0.02885190418    -8.400483059e-08  5.499974833e-05
0.8760341663  0.02770607953    0.01319050374     -1.984596076e-07  0.02917743844    -7.104538957e-07  5.562030712e-05
0.8782466565  0.02786708888    0.01328402604     -3.215682419e-07  0.02947637385    -1.317303361e-06  5.619016109e-05
0.8804347301  0.02807332898    0.01337411191     -3.914574992e-07  0.02973656395    -1.677830092e-06  5.668615574e-05
0.8825986568  0.02831709503    0.01346849014     -3.89641234e-07   0.02996662624    -1.748347935e-06  5.71247184e-05
0.8847387028  0.02858095902    0.01358086351     -4.371537475e-07  0.03018635908    -1.678414783e-06  5.754359027e-05
0.8868551318  0.02885325536    0.01371319465     -5.537377764e-07  0.03040968335    -1.568828511e-06  5.79693084e-05
0.8889482045  0.02913035555    0.01384921564     -5.718113905e-07  0.03063903672    -1.403482609e-06  5.840651966e-05
0.8910181784  0.02940883052    0.01397902278     -5.21046053e-07   0.0308768389     -1.222440905e-06  5.885983671e-05
0.8930653087  0.02968432186    0.01410536726     -4.61006727e-07   0.03113074942    -1.07600491e-06   5.934386074e-05
0.8950898473  0.0299541564     0.0142341177      -3.95934399e-07   0.03140545669    -9.645253687e-07  5.986752915e-05
0.8970920436  0.03021900253    0.01436469124     -3.481205131e-07  0.0316974045     -9.039660685e-07  6.042406281e-05
0.8990721441  0.03048274496    0.0144969313      -3.246416176e-07  0.03200083629    -9.131457622e-07  6.100248814e-05
0.9010303927  0.030751109      0.01463255778     -2.584093335e-07  0.03231111258    -9.518084192e-07  6.159396099e-05
0.9029670306  0.03103086214    0.01477251403     -1.325077657e-07  0.03262230478    -9.845804502e-07  6.21871798e-05
0.9048822962  0.0313321711     0.01491530546     -6.198066515e-08  0.03292560042    -1.046543281e-06  6.276534559e-05
0.9067764254  0.03167120011    0.01506271465     -5.025840593e-08  0.0332108802     -1.148366959e-06  6.330916814e-05