0.1259213289 	3.216681847e-06 	-2.806957135e-08 	-2.845380705e-11 	3.076096064e-06 	-3.689107618e-09 	5.863894054e-09
0.1262793061 	8.21825809e-05 	-3.037558183e-06 	-2.192378114e-09 	6.750334037e-05 	-9.998344329e-08 	1.286801283e-07
0.1266372716 	0.0006036335371 	-4.364584564e-05 	-4.285889665e-08 	0.0003944299954 	-5.13218985e-07 	7.518931974e-07
0.1269952209 	0.002170290376 	-0.0002176786543 	-2.851541464e-07 	0.001137456245 	-1.158113437e-06 	2.168307742e-06
0.1273531494 	0.0048452453 	-0.0005795901481 	-8.986745015e-07 	0.002130844425 	-1.56816798e-06 	4.061981711e-06
0.1277110527 	0.007735962352 	-0.0009908181457 	-1.635035533e-06 	0.003159330075 	-1.645669333e-06 	6.022561213e-06
0.1280689261 	0.01001309853 	-0.001309002688 	-2.087528892e-06 	0.004064084622 	-1.543768415e-06 	7.747274843e-06
0.1284267651 	0.01151283363 	-0.001535388901 	-2.092963269e-06 	0.004706637186 	-1.545099892e-06 	8.972158619e-06
0.1287845652 	0.01234028523 	-0.001699219162 	-1.761511975e-06 	0.00512577323 	-2.488403423e-06 	9.77114841e-06
0.1291423219 	0.01265469773 	-0.001813211996 	-1.577625886e-06 	0.005488220708 	-5.314666334e-06 	1.046207404e-05
0.1295000308 	0.01257357611 	-0.001854269984 	-1.507137319e-06 	0.006000541283 	-9.189345675e-06 	1.143869945e-05
0.1298576873 	0.01223180483 	-0.001812595516 	-7.833986869e-07 	0.006752256589 	-1.205978294e-05 	1.287167775e-05
0.1302152869 	0.01183584736 	-0.00175312546 	3.997726426e-07 	0.007652237513 	-1.350643133e-05 	1.458729153e-05
0.1305728251 	0.01151733418 	-0.001731680505 	1.398878446e-06 	0.008586540616 	-1.399308066e-05 	1.636833292e-05
0.1309302976 	0.01128046374 	-0.001744690817 	2.12901229e-06 	0.009500309343 	-1.376288936e-05 	1.811023008e-05
0.1312876999 	0.01110196951 	-0.001782346777 	2.600709919e-06 	0.01036435033 	-1.306552943e-05 	1.975733236e-05
0.1316450274 	0.01095737257 	-0.001836208972 	2.839597343e-06 	0.0111696586 	-1.204194068e-05 	2.129247374e-05
0.1320022759 	0.01082792441 	-0.001898576466 	2.881788299e-06 	0.01191320793 	-1.079216576e-05 	2.270988543e-05
0.1323594408 	0.01070185387 	-0.001964191431 	2.76249024e-06 	0.01259568416 	-9.385651501e-06 	2.401087481e-05
0.1327165178 	0.01057331813 	-0.002026588571 	2.371798594e-06 	0.01321528785 	-7.662160047e-06 	2.519201164e-05
0.1330735024 	0.01043832337 	-0.002084879052 	1.799769801e-06 	0.01377745676 	-5.751073203e-06 	2.626366184e-05
0.1334303903 	0.01029425962 	-0.002141879849 	1.257671843e-06 	0.01429168979 	-3.980916953e-06 	2.724393291e-05
0.133787177 	0.01014878274 	-0.002178320496 	7.795925102e-07 	0.01472329862 	-2.427571588e-06 	2.806669929e-05
0.1341438583 	0.01001199903 	-0.002178197336 	3.660421918e-07 	0.01504106267 	-1.110494712e-06 	2.867244589e-05
0.1345004297 	0.0098787503 	-0.002162893884 	1.745620252e-08 	0.01528879425 	-5.080025748e-08 	2.914469113e-05
0.1345200979 	0.009871286924 	-0.002162195486 	2.684322544e-08 	0.01530064116 	4.704422522e-07 	2.916727465e-05
0.1348448873 	0.009744778365 	-0.002151234895 	2.463775617e-07 	0.01549656914 	-1.122090557e-06 	2.954076783e-05
0.1351885373 	0.009622002085 	-0.002125409872 	4.576009752e-07 	0.01563211032 	-2.090909218e-06 	2.979914699e-05
0.1355320768 	0.009517196446 	-0.002079067267 	6.224199536e-07 	0.01568031558 	-2.826244585e-06 	2.989103961e-05
0.1358755018 	0.009421926274 	-0.00203174159 	7.491164464e-07 	0.01569017117 	-3.33052793e-06 	2.99098271e-05
0.1362188085 	0.009332668596 	-0.001991501943 	8.537526491e-07 	0.01568544533 	-3.630582224e-06 	2.990081833e-05
0.1365619928 	0.00924221152 	-0.001954076841 	1.022033994e-06 	0.01565958349 	-3.900649531e-06 	2.98515185e-05
0.1370949704 	0.009143091592 	-0.001915848276 	1.399614077e-06 	0.01560094084 	-4.504766955e-06 	2.973972929e-05
0.1376376367 	0.009044009429 	-0.001883557224 	1.8402996e-06 	0.01551457803 	-4.94159955e-06 	2.957509778e-05
0.1381901456 	0.008956160402 	-0.001860900489 	2.324411999e-06 	0.0154107182 	-5.268616727e-06 	2.937711208e-05
0.1387526518 	0.008878891935 	-0.001846284546 	2.836514914e-06 	0.01529622485 	-5.527196748e-06 	2.915885592e-05
0.1393253109 	0.008810783775 	-0.001837846106 	3.363575109e-06 	0.01517623247 	-5.758542886e-06 	2.893011711e-05
0.1399082793 	0.008750527294 	-0.001834000469 	3.892950662e-06 	0.01505473717 	-5.990426434e-06 	2.869851329e-05
0.1405017138 	0.008696902065 	-0.001833433666 	4.41443961e-06 	0.01493466038 	-6.237829135e-06 	2.846961357e-05
0.1411057722 	0.00864872664 	-0.001835063356 	4.921383981e-06 	0.01481791855 	-6.506518834e-06 	2.824707118e-05
0.1417206121 	0.008604956895 	-0.001838054416 	5.410667057e-06 	0.01470566212 	-6.795451081e-06 	2.803307922e-05
0.1423463917 	0.008564724913 	-0.001841796377 	5.882158653e-06 	0.01459849306 	-7.099476775e-06 	2.782878521e-05
0.1429832692 	0.008527341073 	-0.001845866144 	6.337879314e-06 	0.01449663712 	-7.411684086e-06 	2.763461949e-05
0.1436314025 	0.008492279449 	-0.001849989 	6.781112351e-06 	0.01440007725 	-7.725070601e-06 	2.745054953e-05
0.1442909495 	0.008459152725 	-0.001854001683 	7.215625885e-06 	0.01430865004 	-8.033541051e-06 	2.727626387e-05
0.1449620674 	0.008427683401 	-0.001857820273 	7.645086243e-06 	0.01422211185 	-8.332336726e-06 	2.711129801e-05
0.1456449128 	0.008397676224 	-0.001861414173 	8.072683227e-06 	0.01414018196 	-8.618069167e-06 	2.695511688e-05
0.1463396412 	0.008368994445 	-0.001864786172 	7.971363086e-06 	0.01406256973 	-8.33480171e-06 	2.68071664e-05
0.1470464072 	0.008341540877 	-0.001867957959 	7.436327434e-06 	0.01398899062 	-7.611758132e-06 	2.666690416e-05
0.1477653637 	0.008315243469 	-0.001870960005 	6.904530742e-06 	0.01391917493 	-6.914034308e-06 	2.653381604e-05
0.1484966621 	0.00829004492 	-0.001873824864 	6.375630508e-06 	0.01385287206 	-6.241161434e-06 	2.640742435e-05
0.1492404515 	0.008265897483 	-0.001876583986 	5.848993237e-06 	0.01378985309 	-5.59294086e-06 	2.628729268e-05
0.1499968789 	0.008242758962 	-0.001879265922 	5.323913197e-06 	0.01372990979 	-4.969268877e-06 	2.617302409e-05
0.1507660886 	0.008220575214 	-0.001881887638 	4.79972522e-06 	0.01367284506 	-4.370031362e-06 	2.606424286e-05
0.1515482218 	0.008199299571 	-0.001884465476 	4.275841355e-06 	0.01361848147 	-3.795031978e-06 	2.596061074e-05
0.1523434163 	0.008178911926 	-0.001887037901 	3.751819931e-06 	0.01356664083 	-3.243978759e-06 	2.586178808e-05
0.153154247 	0.008159239262 	-0.001889674588 	3.225621699e-06 	0.01351677424 	-2.715016392e-06 	2.576672849e-05
0.1540028413 	0.00814007718 	-0.001892219656 	2.682910225e-06 	0.01346871828 	-2.195852449e-06 	2.567512047e-05
0.1548660003 	0.008121471975 	-0.001894763666 	2.138000548e-06 	0.01342252618 	-1.700258331e-06 	2.55870655e-05
0.1557439519 	0.008103620508 	-0.001897287071 	1.590652506e-06 	0.01337856873 	-1.22818056e-06 	2.550327038e-05
0.1566369267 	0.008086482674 	-0.001899780909 	1.040350859e-06 	0.01333678022 	-7.793078317e-07 	2.542360986e-05
0.1575451583 	0.008069977718 	-0.001902216122 	4.866472077e-07 	0.01329706688 	-3.533590396e-07 	2.534790521e-05
0.1583510363 	0.008056095467 	-0.001904266191 	-2.241731098e-08 	0.01326416773 	-5.904028921e-07 	2.528519027e-05
0.1584660267 	0.008054134477 	-0.001904776839 	6.051381461e-08 	0.01325887738 	-6.069649275e-08 	2.527510539e-05
0.1593827974 	0.008039431542 	-0.001908596082 	5.422313952e-07 	0.01321927943 	-5.27420822e-07 	2.51996207e-05
0.1603152827 	0.008025283436 	-0.001912222829 	1.031596692e-06 	0.01318157667 	-9.726118998e-07 	2.512774877e-05
0.1612637283 	0.008011645469 	-0.001915644063 	1.528754638e-06 	0.01314571961 	-1.396530075e-06 	2.505939525e-05
0.1622283831 	0.007998480191 	-0.001918853471 	2.033731814e-06 	0.01311165842 	-1.799493067e-06 	2.499446514e-05
0.163209499 	0.007985759346 	-0.001921853314 	2.546443748e-06 	0.0130793411 	-2.181883732e-06 	2.493285935e-05
0.1642073315 	0.007973464856 	-0.001924655533 	3.066720656e-06 	0.01304871146 	-2.544145411e-06 	2.487447075e-05
0.165222139 	0.007961588564 	-0.001927281725 	3.594353702e-06 	0.01301970714 	-2.886751924e-06 	2.481918045e-05
0.1662541832 	0.007950131177 	-0.001929761933 	4.129163165e-06 	0.0129922592 	-3.210153348e-06 	2.476685705e-05
0.1673037291 	0.007939100084 	-0.001932132027 	4.671084837e-06 	0.01296629326 	-3.514695966e-06 	2.471735875e-05
0.1683710452 	0.007928505752 	-0.001934429579 	5.220260356e-06 	0.01294173194 	-3.800492921e-06 	2.467053804e-05
0.169456403 	0.007918358064 	-0.001936688838 	5.777131813e-06 	0.01291850026 	-4.067335984e-06 	2.462625201e-05
0.1705600777 	0.007908661047 	-0.001938934879 	6.342538265e-06 	0.0128965302 	-4.314697292e-06 	2.458437096e-05
0.1716823477 	0.007899407372 	-0.00194117761 	6.020960687e-06 	0.01287576603 	-3.95289642e-06 	2.454478868e-05
0.1728234947 	0.007890575019 	-0.001943406459 	5.466982661e-06 	0.01285617407 	-3.458198897e-06 	2.450744097e-05
0.1739838043 	0.00788211918 	-0.001945579801 	4.906226539e-06 	0.01283775077 	-2.984737276e-06 	2.447232104e-05
0.1751635651 	0.00787394935 	-0.00194762652 	4.337421434e-06 	0.01282049981 	-2.533372428e-06 	2.443943592e-05
0.1763630695 	0.007866002039 	-0.001949500384 	3.759486546e-06 	0.01280442685 	-2.104893279e-06 	2.440879639e-05
0.1775826133 	0.007858280094 	-0.001951228666 	3.171624688e-06 	0.0127895063 	-1.699830281e-06 	2.438035367e-05
0.1788397014 	0.007850632707 	-0.001952699727 	2.564780845e-06 	0.01277580205 	-1.31387049e-06 	2.435422956e-05
0.1801389661 	0.007842906386 	-0.001953830729 	1.936772277e-06 	0.01276328904 	-9.469865142e-07 	2.433037628e-05
0.1814596313 	0.007835238845 	-0.00195475823 	1.298188603e-06 	0.01275188519 	-6.053061066e-07 	2.430863738e-05
0.1828020077 	0.007827781723 	-0.001955531836 	6.494849002e-07 	0.01274173305 	-2.886090415e-07 	2.428928457e-05
0.1841485552 	0.007820645178 	-0.001956184624 	-7.107333015e-10 	0.01273290321 	-5.53412659e-08 	2.427245245e-05
0.18416605 	0.007820564578 	-0.001956195979 	8.329202645e-09 	0.01273274587 	-4.338871621e-09 	2.427215251e-05
0.18552498 	0.007814932865 	-0.001957023836 	6.527050407e-07 	0.0127217631 	-3.27967304e-07 	2.425121631e-05
0.1869062846 	0.007809761377 	-0.001957898747 	1.303825283e-06 	0.0127118089 	-6.317292952e-07 	2.423224082e-05
0.1883102904 	0.007805016178 	-0.001958843858 	1.961188729e-06 	0.01270278371 	-9.157495052e-07 	2.42150363e-05
0.1897373279 	0.007800584614 	-0.001959844405 	2.62486635e-06 	0.01269452798 	-1.18052482e-06 	2.41992986e-05
0.1911877315 	0.007797003366 	-0.001961364086 	3.294900565e-06 	0.0126867255 	-1.423940323e-06 	2.41844249e-05
0.1926618398 	0.007794124762 	-0.001964413693 	3.969347959e-06 	0.01267790549 	-1.643761562e-06 	2.416761151e-05
0.194917909 	0.00779091204 	-0.001965310888 	4.990853248e-06 	0.01267399299 	-1.943110353e-06 	2.41601532e-05
0.1971907412 	0.007786953268 	-0.001967017524 	5.862970221e-06 	0.01266893422 	-2.139229969e-06 	2.415050977e-05
0.1994804504 	0.007784266522 	-0.00196925559 	4.850727001e-06 	0.0126656502 	-1.651560604e-06 	2.414424952e-05
0.2017871531 	0.007782912152 	-0.001971927658 	3.841174114e-06 	0.01266472846 	-1.21551644e-06 	2.414249242e-05
0.2041725415 	0.007782121191 	-0.001974449972 	2.808167745e-06 	0.0126662683 	-8.206925847e-07 	2.414542779e-05
0.2065814515 	0.007781823527 	-0.001977006585 	1.776817248e-06 	0.01266978312 	-4.767874251e-07 	2.415212801e-05
0.2090075945 	0.007782166209 	-0.001979608473 	7.498686515e-07 	0.01267539704 	-1.83475983e-07 	2.41628297e-05
0.2107981571 	0.00778293109 	-0.001981484743 	-3.538080354e-08 	0.01268110576 	-1.558781176e-06 	2.417371211e-05
0.2114405296 	0.007783555833 	-0.001982254947 	2.654963446e-07 	0.0126820777 	-8.124756146e-08 	2.41755649e-05
0.2138620629 	0.007786756936 	-0.00198493865 	1.260387829e-06 	0.01268786125 	-3.544520668e-07 	2.418658994e-05
0.2163013646 	0.007790537075 	-0.001987443415 	2.255617176e-06 	0.01269579626 	-5.801413182e-07 	2.420171629e-05
0.2187585689 	0.007794873225 	-0.001989784048 	3.250122674e-06 	0.01270583461 	-7.601052857e-07 	2.422085217e-05
0.2212338133 	0.007799753019 	-0.00199199246 	4.243069555e-06 	0.01271790505 	-8.961420673e-07 	2.424386178e-05
0.2237272386 	0.007805294534 	-0.001994179571 	5.233704799e-06 	0.01273205134 	-9.905019031e-07 	2.427082854e-05
0.2262844816 	0.007811425997 	-0.00199612895 	4.688000692e-06 	0.01274872348 	-7.828177052e-07 	2.430261029e-05
0.2288841363 	0.007817935724 	-0.001997859968 	3.688584643e-06 	0.01276752823 	-5.336095445e-07 	2.433845736e-05
0.2315022259 	0.007824912333 	-0.001999506391 	2.692339713e-06 	0.01278823808 	-3.328115254e-07 	2.437793609e-05
0.2341388985 	0.007832463874 	-0.002001056888 	1.699178991e-06 	0.01281108338 	-1.750487838e-07 	2.442148558e-05
0.2367943064 	0.007840529175 	-0.002002482162 	7.096273072e-07 	0.01283603014 	-5.855359191e-08 	2.446904104e-05
0.2387190331 	0.007846733895 	-0.002003397155 	-1.727154207e-08 	0.01285544301 	-1.41018807e-06 	2.450604735e-05
0.2394596258 	0.007849612834 	-0.002003835049 	2.695704301e-07 	0.01286200035 	-4.043297922e-08 	2.451854747e-05
0.2421211125 	0.007860559591 	-0.002005146231 	1.231598702e-06 	0.01288740343 	-1.591193027e-07 	2.45669728e-05
0.2448020967 	0.007872047811 	-0.002006286362 	2.19350062e-06 	0.01291488968 	-2.386986875e-07 	2.461936924e-05
0.2475350655 	0.007884130725 	-0.002007128845 	3.166160486e-06 	0.01294490531 	-2.808270397e-07 	2.467658737e-05
0.2503258165 	0.007896684387 	-0.002007580642 	4.150278318e-06 	0.01297748984 	-2.856290487e-07 	2.473870254e-05
0.2531363547 	0.007909698311 	-0.0020078154 	5.131492843e-06 	0.01301219262 	-2.533926997e-07 	2.480485568e-05
0.2559668634 	0.0079232103 	-0.00200782264 	4.290488351e-06 	0.01304903823 	-1.302833333e-07 	2.487509366e-05
0.2588175317 	0.0079371858 	-0.002007568115 	3.332069206e-06 	0.01308804137 	-3.927836704e-08 	2.494944448e-05
0.2616885543 	0.007951598439 	-0.002007045263 	2.375877947e-06 	0.01312916095 	1.508779873e-08 	2.502782983e-05
0.264580132 	0.007966449701 	-0.002006276103 	1.422323963e-06 	0.01317234831 	3.426435195e-08 	2.511015693e-05
0.2675004713 	0.007981906113 	-0.002005298701 	4.690266472e-07 	0.0132178852 	1.945875189e-08 	2.519696291e-05
0.2689517363 	0.007989697888 	-0.002004564471 	3.548669478e-08 	0.01324132807 	-2.126984228e-06 	2.524165154e-05
0.2704904539 	0.007998837815 	-0.002003776519 	4.972375585e-07 	0.01326487026 	-8.760804852e-09 	2.52865295e-05
0.2734881808 	0.008017040035 	-0.002001850278 	1.457491814e-06 	0.01331264657 	-1.056725377e-09 	2.537760442e-05
0.2765073236 	0.008035687788 	-0.001999566201 	2.416059386e-06 	0.01336255093 	3.798565408e-08 	2.5472736e-05
0.2795481128 	0.008054770795 	-0.001996855503 	3.372575667e-06 	0.0134146994 	1.068373795e-07 	2.557214548e-05
0.2826107857 	0.008074211049 	-0.001993700174 	4.326824888e-06 	0.01346898409 	2.040511179e-07 	2.567562718e-05
0.2856955875 	0.008094120379 	-0.001990166339 	4.872019555e-06 	0.01352547755 	3.030466466e-07 	2.578331943e-05
0.2888351016 	0.008114608114 	-0.001986091266 	3.934962343e-06 	0.01358476058 	3.02674257e-07 	2.589632935e-05
0.2920349116 	0.008135547453 	-0.001981340567 	2.989050601e-06 	0.01364689245 	2.728166966e-07 	2.601476996e-05
0.2952572244 	0.008156870639 	-0.001976093447 	2.046520014e-06 	0.0137112739 	2.151429001e-07 	2.613749891e-05
0.2985023113 	0.008178598405 	-0.001970341148 	1.107450737e-06 	0.01377786203 	1.312166431e-07 	2.62644344e-05
0.3017704529 	0.008200676121 	-0.001964022697 	1.720696085e-07 	0.01384665262 	2.259627406e-08 	2.639556838e-05
0.3023784211 	0.008204862535 	-0.001962762549 	5.536323071e-08 	0.0138597621 	-6.682549092e-07 	2.642055869e-05
0.3050417129 	0.008224421309 	-0.001957053804 	7.595324379e-07 	0.0139155548 	5.743316698e-08 	2.652691507e-05
0.3083587734 	0.00824902213 	-0.001949350063 	1.696942002e-06 	0.01398678778 	1.483447209e-07 	2.666270493e-05
0.3117421337 	0.008274094 	-0.001940739898 	2.643636986e-06 	0.01406102422 	2.611383181e-07 	2.680422022e-05
0.3151496471 	0.008299519925 	-0.001931420913 	3.586662129e-06 	0.01413759126 	3.929604273e-07 	2.695017829e-05
0.3185816398 	0.008325321452 	-0.001921411886 	4.525641908e-06 	0.0142163784 	5.421094017e-07 	2.710036847e-05
0.3220384482 	0.0083514242 	-0.001910630808 	4.56135345e-06 	0.01429737056 	5.903895256e-07 	2.725476203e-05
0.3255204201 	0.008378003953 	-0.001899156771 	3.655641713e-06 	0.01438073169 	5.064737662e-07 	2.741367151e-05
0.3290810692 	0.008405140776 	-0.001886613936 	2.739054534e-06 	0.01446730457 	4.032642271e-07 	2.75787035e-05
0.3326809016 	0.008432620611 	-0.001873046297 	1.824015446e-06 	0.0145565442 	2.832394739e-07 	2.774881903e-05
0.3363064639 	0.008460435751 	-0.001858639487 	9.144079099e-07 	0.01464794703 	1.48824959e-07 	2.792305823e-05
0.3399581467 	0.008488552661 	-0.001843288953 	1.043699689e-08 	0.0147415518 	1.77014685e-09 	2.810149493e-05
0.3400009082 	0.008488886061 	-0.001843100493 	7.913160253e-09 	0.0147426669 	-3.404278536e-08 	2.810362063e-05
0.3436167554 	0.008518554197 	-0.001827011159 	8.841586003e-07 	0.01483520573 	9.500855351e-08 	2.828002536e-05
0.3473421082 	0.00854910105 	-0.001809491198 	1.783695349e-06 	0.01493188095 	2.020234496e-07 	2.846431519e-05
0.3511193483 	0.00858000597 	-0.001790645192 	2.682604585e-06 	0.01503138316 	3.17734388e-07 	2.865399406e-05
0.3549242038 	0.008611212094 	-0.001770690815 	3.573983307e-06 	0.01513310809 	4.39596601e-07 	2.884791004e-05
0.3587571281 	0.008642678912 	-0.001749558772 	4.45741723e-06 	0.01523698749 	5.657271634e-07 	2.904593306e-05
0.3626185895 	0.008674561964 	-0.001727266161 	4.598776674e-06 	0.01534322736 	5.989305205e-07 	2.924845577e-05
0.3665578315 	0.008706951609 	-0.001703385879 	3.736446676e-06 	0.01545261745 	4.969452645e-07 	2.945698368e-05
0.3705385693 	0.008739642093 	-0.001677942135 	2.880033856e-06 	0.01556463299 	3.889535368e-07 	2.967051645e-05
0.3745486816 	0.008772586922 	-0.00165114178 	2.032833046e-06 	0.0156787072 	2.77393193e-07 	2.988797359e-05
0.3785886962 	0.008805857717 	-0.001622915718 	1.1952126e-06 	0.01579495629 	1.639915206e-07 	3.010957667e-05
0.3826754965 	0.008839579594 	-0.001593067483 	3.640324469e-07 	0.0159138301 	4.999203288e-08 	3.033618319e-05
0.3845023008 	0.008854594394 	-0.00157910181 	5.760228586e-07 	0.01596737155 	-1.029436299e-06 	3.043824808e-05
0.386826837 	0.008874433125 	-0.001561310821 	4.60341783e-07 	0.01603464942 	3.315157429e-08 	3.05664984e-05
0.3910032662 	0.008910107779 	-0.001527835768 	1.268688162e-06 	0.01615694099 	9.02156347e-08 	3.079962013e-05
0.3952115833 	0.008946018342 	-0.00149265118 	2.063628191e-06 	0.01628122431 	1.435195536e-07 	3.103653866e-05
0.3994543048 	0.008982363702 	-0.001455633106 	2.844886325e-06 	0.01640790824 	1.915118539e-07 	3.127803344e-05
0.4037823229 	0.009019195097 	-0.001416240116 	3.620870164e-06 	0.0165376743 	2.332879903e-07 	3.152540363e-05
0.4081433549 	0.009056291196 	-0.001374614748 	4.379085382e-06 	0.01666974681 	2.659595201e-07 	3.177717053e-05
0.4125380618 	0.009093620667 	-0.001330925136 	4.584187988e-06 	0.01680365015 	2.582556648e-07 	3.203242752e-05
0.4169684189 	0.009131405811 	-0.001284967258 	3.839095485e-06 	0.01693985712 	1.965076524e-07 	3.229207586e-05
0.4214827764 	0.009169686504 	-0.001236155672 	3.100787158e-06 	0.01707897686 	1.403604415e-07 	3.255727675e-05
0.4260321037 	0.009208239947 	-0.001184592023 	2.380537921e-06 	0.01722023637 	9.148588891e-08 	3.282655664e-05
0.4306171419 	0.009247090418 	-0.001130468598 	1.678855882e-06 	0.01736321197 	5.169826785e-08 	3.309910786e-05
0.4352491377 	0.009286440699 	-0.001073385221 	9.947319338e-07 	0.01750845682 	2.214397219e-08 	3.337598493e-05
0.4399539769 	0.009326250796 	-0.001012852341 	3.265499469e-07 	0.0176561862 	4.167404759e-09 	3.365759818e-05
0.4423479416 	0.009346499162 	-0.0009806002817 	1.282939655e-06 	0.01773170307 	-8.761266692e-07 	3.380155433e-05
0.4446905644 	0.009366829411 	-0.0009490289695 	3.154368745e-07 	0.0178050901 	-1.506809755e-08 	3.394145041e-05
0.4494600003 	0.009408273779 	-0.0008819648033 	9.304435677e-07 	0.01795505072 	-5.448187645e-08 	3.422731703e-05
0.4542945485 	0.00945026678 	-0.0008109826387 	1.523056665e-06 	0.01810722152 	-1.072479539e-07 	3.451739686e-05
0.4591850403 	0.009492650455 	-0.000735808129 	2.088493581e-06 	0.01826124049 	-1.743627009e-07 	3.481099982e-05
0.4641157131 	0.00953538972 	-0.0006566128554 	2.622523912e-06 	0.01841651036 	-2.563677343e-07 	3.510698735e-05
0.4690937196 	0.009578676927 	-0.0005730306034 	3.124044801e-06 	0.01857325246 	-3.540758852e-07 	3.540578137e-05
0.4741454846 	0.009622545261 	-0.0004844073538 	3.592694707e-06 	0.01873162402 	-4.685176938e-07 	3.570768157e-05
0.4792393223 	0.009666833167 	-0.0003907839811 	4.021137181e-06 	0.01889083535 	-5.996379191e-07 	3.601118262e-05
0.484376213 	0.009711676623 	-0.0002921077151 	3.794154348e-06 	0.01905066075 	-6.432500625e-07 	3.631585426e-05
0.4895867639 	0.009757275295 	-0.0001875642703 	3.258178851e-06 	0.01921142723 	-6.254249636e-07 	3.662231984e-05
0.4948461995 	0.009803438017 	-7.697562519e-05 	2.750269232e-06 	0.01937234718 	-5.959724712e-07 	3.6929078e-05
0.500150834 	0.009850246231 	3.957024276e-05 	2.272243829e-06 	0.01953292107 	-5.541210382e-07 	3.723517645e-05
0.5055231693 	0.009897960084 	0.0001627807404 	1.824152238e-06 	0.01969329471 	-4.995597307e-07 	3.754089318e-05
0.5109512262 	0.009946453209 	0.0002929107236 	1.410394764e-06 	0.01985270229 	-4.333400035e-07 	3.784476833e-05
0.5164268225 	0.009995814773 	0.0004297767819 	1.033406733e-06 	0.02001049289 	-3.56116375e-07 	3.814556109e-05
0.5219689509 	0.01004636023 	0.0005738413782 	6.94344459e-07 	0.02016658174 	-2.685031979e-07 	3.844310981e-05
0.5275693167 	0.01009806531 	0.0007251305397 	3.974126552e-07 	0.02032015517 	-1.725772886e-07 	3.873586345e-05
0.5332197666 	0.01015110325 	0.0008831486834 	1.442176807e-07 	0.02047053702 	-7.038817287e-08 	3.902253306e-05
0.5370443662 	0.01018772915 	0.0009934050384 	2.153696016e-06 	0.02056887749 	-1.003334683e-06 	3.920999733e-05
0.5389372376 	0.01020600751 	0.001047945003 	6.710645911e-08 	0.02061744432 	-3.795372636e-08 	3.93025792e-05
0.5447098637 	0.01026290947 	0.001219120165 	2.386875612e-07 	0.02075999453 	-1.501243943e-07 	3.957431951e-05
0.5505356794 	0.01032181937 	0.001395803428 	3.701983794e-07 	0.02089787579 	-2.596043827e-07 	3.983715952e-05
0.5564344686 	0.01038330613 	0.001577758459 	4.638439352e-07 	0.02103095541 	-3.641569368e-07 	4.009084627e-05
0.5623900213 	0.01044739345 	0.001764041792 	5.214479905e-07 	0.02115843406 	-4.596897079e-07 	4.0333856e-05
0.5684048535 	0.01051518905 	0.001954016089 	5.454312682e-07 	0.02128021118 	-5.447580146e-07 	4.056599703e-05
0.5744913721 	0.01058733289 	0.002146012667 	5.471281585e-07 	0.0213964205 	-6.247986001e-07 	4.078752429e-05
0.5805680299 	0.0106626346 	0.002336986488 	5.445525267e-07 	0.02150581519 	-6.999657201e-07 	4.099606099e-05
0.5865762445 	0.01074917476 	0.002521407599 	5.939956717e-07 	0.02159214409 	-5.271922142e-07 	4.116062786e-05
0.5925167773 	0.01084713877 	0.002696644703 	7.343279907e-07 	0.02165422165 	-4.055345298e-09 	4.127896495e-05
0.5983839848 	0.01095542744 	0.002860631065 	9.502573828e-07 	0.0216944364 	6.344623846e-07 	4.135562544e-05
0.6041885817 	0.0110774972 	0.003012071185 	1.209101665e-06 	0.02170921406 	1.314755889e-06 	4.138379576e-05
0.609924862 	0.01120546309 	0.003154278705 	1.439011899e-06 	0.0217125337 	1.916070323e-06 	4.139012392e-05
0.6155918012 	0.01133602083 	0.003288376468 	1.562029964e-06 	0.02170971555 	2.181590516e-06 	4.138475173e-05
0.6211996839 	0.01146812052 	0.003416768351 	1.584418266e-06 	0.02170357471 	2.181029627e-06 	4.137304559e-05
0.6267405924 	0.01159788878 	0.003541631988 	1.556849436e-06 	0.02169919204 	2.146959068e-06 	4.136469101e-05
0.632216296 	0.01172492297 	0.003663003579 	1.501816738e-06 	0.02169656877 	2.09369543e-06 	4.135969033e-05
0.6376339047 	0.01184952496 	0.003781522759 	1.454478391e-06 	0.02169569519 	2.038616516e-06 	4.135802504e-05
0.6429876209 	0.01197174374 	0.003896949897 	1.416305354e-06 	0.02169567377 	1.992751989e-06 	4.135798421e-05
0.6482792542 	0.01209186754 	0.004009240094 	1.381294415e-06 	0.02169635521 	1.95750178e-06 	4.135928322e-05
0.6535142602 	0.0122101693 	0.004118614141 	1.343197974e-06 	0.02169753276 	1.924001158e-06 	4.136152795e-05
0.6586883686 	0.01232676093 	0.00422505102 	1.299169944e-06 	0.02169866035 	1.885360144e-06 	4.136367746e-05
0.6638027592 	0.01244168177 	0.004328655469 	1.250974725e-06 	0.02169980078 	1.840184137e-06 	4.136585144e-05
0.6688625183 	0.01255490208 	0.00442972229 	1.200751251e-06 	0.02170105286 	1.789076669e-06 	4.136823825e-05
0.6738640927 	0.01266638946 	0.004528284439 	1.149738277e-06 	0.02170208165 	1.733346148e-06 	4.137019941e-05
0.6788084956 	0.01277615229 	0.004624342308 	1.098825806e-06 	0.02170289331 	1.674922384e-06 	4.137174666e-05
0.6836992744 	0.01288418023 	0.004718130109 	1.048514656e-06 	0.02170364869 	1.614949193e-06 	4.137318662e-05
0.6885349454 	0.01299048137 	0.004809711578 	9.98653174e-07 	0.02170404453 	1.553596375e-06 	4.13739412e-05
0.6933158242 	0.01309509869 	0.004899033641 	9.492995534e-07 	0.02170398526 	1.491441745e-06 	4.137382822e-05
0.6980440199 	0.01319803252 	0.004986296332 	9.008265837e-07 	0.02170368521 	1.42896019e-06 	4.137325623e-05
0.7027200283 	0.01329929439 	0.005071615966 	8.532069678e-07 	0.02170293475 	1.366047669e-06 	4.137182564e-05
0.7073434376 	0.01339892191 	0.005154940904 	8.0650685e-07 	0.0217015869 	1.30303938e-06 	4.136925628e-05
0.711915207 	0.0134969276 	0.005236386268 	7.610329356e-07 	0.02169981302 	1.240429375e-06 	4.136587476e-05
0.7164374468 	0.01359332338 	0.00531610826 	7.168711578e-07 	0.0216975692 	1.178332145e-06 	4.136159743e-05
0.7209091221 	0.01368813428 	0.005394118443 	6.739720796e-07 	0.02169469294 	1.11680123e-06 	4.135611447e-05
0.7253309727 	0.01378139494 	0.005470413931 	6.324136261e-07 	0.02169121226 	1.056187788e-06 	4.134947933e-05
0.7297043654 	0.01387311641 	0.005545155876 	5.923715472e-07 	0.0216872533 	9.967534216e-07 	4.134193245e-05
0.7340297528 	0.01396332021 	0.005618433202 	5.537478815e-07 	0.02168269677 	9.383852616e-07 	4.133324644e-05
0.7383071582 	0.01405204671 	0.005690221318 	5.165050197e-07 	0.02167746522 	8.812200666e-07 	4.132327366e-05
0.7425372445 	0.01413932452 	0.005760586739 	4.807195171e-07 	0.02167167218 	8.25477236e-07 	4.131223051e-05
0.7467213447 	0.01422517379 	0.005829669018 	4.464281333e-07 	0.02166535423 	7.712235864e-07 	4.130018674e-05
0.7508593764 	0.01430962582 	0.005897519009 	4.135121324e-07 	0.02165842047 	7.183387975e-07 	4.128696906e-05
0.7549517763 	0.01439272509 	0.005964123729 	3.819356931e-07 	0.0216508583 	6.66930754e-07 	4.127255347e-05
0.7589991451 	0.01447450345 	0.006029571631 	3.517355685e-07 	0.02164278158 	6.171197353e-07 	4.125715699e-05
0.7630026057 	0.01455499032 	0.006093983529 	3.228748758e-07 	0.02163420497 	5.688691487e-07 	4.124080759e-05
0.7669620699 	0.01463422632 	0.006157396147 	2.952359254e-07 	0.02162507157 	5.220707727e-07 	4.122339679e-05
0.7708780631 	0.01471225947 	0.006219817005 	2.687730466e-07 	0.02161540439 	4.767707504e-07 	4.120496846e-05
0.7747511348 	0.01478913028 	0.006281328213 	2.43476584e-07 	0.02160529932 	4.330158866e-07 	4.118570539e-05
0.7785821642 	0.0148648764 	0.006342043977 	2.192867081e-07 	0.02159478862 	3.907393488e-07 	4.116566907e-05
0.7823712521 	0.01493954615 	0.006402007639 	1.960798673e-07 	0.02158384363 	3.498131292e-07 	4.114480487e-05
0.7861188721 	0.01501319405 	0.006461238415 	1.737934251e-07 	0.02157249595 	3.102292023e-07 	4.112317304e-05
0.7898255312 	0.01508587085 	0.006519803385 	1.523813527e-07 	0.02156083252 	2.71979764e-07 	4.110093931e-05
0.7934918964 	0.0151576225 	0.006577815244 	1.317802599e-07 	0.02154891522 	2.350024988e-07 	4.107822162e-05
0.7971182852 	0.01522850334 	0.006635338522 	1.118574987e-07 	0.02153674154 	1.99138116e-07 	4.105501521e-05
0.8007050767 	0.01529857594 	0.006692395986 	9.253089661e-08 	0.02152433971 	1.643323355e-07 	4.103137388e-05
0.804252742 	0.01536789947 	0.006749047456 	7.373288012e-08 	0.0215117981 	1.305361853e-07 	4.100746607e-05
0.807761783 	0.01543653021 	0.006805390674 	5.539433606e-08 	0.02149919433 	9.768783674e-08 	4.098343979e-05
0.8112327012 	0.01550452686 	0.006861516992 	3.739175755e-08 	0.02148656466 	6.563161572e-08 	4.095936413e-05
0.8146657788 	0.01557195724 	0.006917460569 	1.962280044e-08 	0.02147393804 	3.425815484e-08 	4.093529428e-05
0.8180614562 	0.0156388866 	0.006973280892 	2.012021794e-09 	0.02146139787 	3.491652764e-09 	4.091138923e-05
0.8184468325 	0.01564651844 	0.006979679266 	1.379455923e-07 	0.02145997574 	-5.000164243e-07 	4.090867825e-05
0.821419617 	0.0157053891 	0.007029058198 	1.462702248e-08 	0.02144900588 	2.667325699e-08 	4.088776665e-05
0.8247412418 	0.01577151998 	0.007084881887 	3.118065427e-08 	0.02143686445 	5.633508134e-08 	4.086462171e-05
0.8280267635 	0.01583734476 	0.007140821933 	4.7881202e-08 	0.02142501457 	8.566416015e-08 	4.084203255e-05
0.83127654 	0.0159029349 	0.007196912996 	6.479914649e-08 	0.02141351535 	1.147604919e-07 	4.082011183e-05
0.8344909783 	0.01596835703 	0.007253223181 	8.199619625e-08 	0.02140246262 	1.437154985e-07 	4.079904227e-05
0.8376704786 	0.01603367883 	0.007309812247 	9.952477329e-08 	0.02139193084 	1.726215319e-07 	4.077896576e-05
0.8408154687 	0.01609896275 	0.007366770725 	1.174454066e-07 	0.02138201316 	2.015852388e-07 	4.07600599e-05
0.8439262864 	0.01616427365 	0.007424155778 	1.358263062e-07 	0.02137275934 	2.307476052e-07 	4.074241955e-05
0.8470032886 	0.01622967781 	0.007481994193 	1.546825525e-07 	0.02136423885 	2.601919496e-07 	4.072617713e-05
0.8500468538 	0.0162952355 	0.007540338532 	1.740187168e-07 	0.02135654399 	2.899908542e-07 	4.07115086e-05
0.8530573547 	0.01636100608 	0.007599223423 	1.93814823e-07 	0.02134974386 	3.202089203e-07 	4.069854565e-05
0.8560351715 	0.01642704219 	0.007658705399 	2.140451408e-07 	0.0213439272 	3.50908012e-07 	4.068745747e-05
0.8589806486 	0.01649339455 	0.007718816073 	2.346792527e-07 	0.02133914574 	3.821754533e-07 	4.067834269e-05