0.4642857292 	-0.006354133329 	0.0001856487997 	1.969364354e-07
0.4644580585 	0 	0 	0
0.4646303886 	0 	0 	0
0.4648027194 	0 	0 	0
0.464975051 	0 	0 	0
0.4651473832 	0 	0 	0
0.4653197161 	0 	0 	0
0.4654920495 	0 	0 	0
0.4656643834 	0 	0 	0
0.4658367177 	0 	0 	0
0.4660090525 	0 	0 	0
0.4661813876 	0 	0 	0
0.466353723 	0 	0 	0
0.4665260587 	0 	0 	0
0.4666983945 	0 	0 	0
0.4668707305 	0 	0 	0
0.4670430666 	0 	0 	0
0.4672154027 	0 	0 	0
0.4673877388 	0 	0 	0
0.4675600748 	0 	0 	0
0.4677324107 	0 	0 	0
0.4679047464 	0 	0 	0
0.4680770819 	0 	0 	0
0.4682494171 	0 	0 	0
0.468421752 	0 	0 	0
0.4685940865 	0 	0 	0
0.4687664205 	0 	0 	0
0.4689387541 	0 	0 	0
0.4691110871 	0 	0 	0
0.4692834196 	0 	0 	0
0.4694557514 	0 	0 	0
0.4697235139 	0 	0 	0
0.469996307 	0 	0 	0
0.4702742251 	0 	0 	0
0.4705573642 	0 	0 	0
0.470845822 	0 	0 	0
0.4711396981 	0 	0 	0
0.471439094 	0 	0 	0
0.4717441131 	0 	0 	0
0.4720548606 	0 	0 	0
0.4723714436 	0 	0 	0
0.4726939714 	0 	0 	0
0.473022555 	0 	0 	0
0.4733573078 	0 	0 	0
0.473698345 	0 	0 	0
0.4740457841 	0 	0 	0
0.4743997447 	0 	0 	0
0.4747603486 	0 	0 	0
0.4751277197 	0 	0 	0
0.4755030077 	0 	0 	0
0.4758860811 	0 	0 	0
0.4762763472 	0 	0 	0
0.4766739408 	0 	0 	0
0.4770789995 	0 	0 	0
0.4774916633 	0 	0 	0
0.4779120749 	0 	0 	0
0.4783403796 	0 	0 	0
0.4787767255 	0 	0 	0
0.4792212634 	0 	0 	0
0.4796741471 	0 	0 	0
0.480135533 	0 	0 	0
0.4806055808 	0 	0 	0
0.4810844527 	0 	0 	0
0.4815723144 	0 	0 	0
0.4820693345 	0 	0 	0
0.4825756847 	0 	0 	0
0.4830915401 	0 	0 	0
0.483617079 	0 	0 	0
0.4841524829 	0 	0 	0
0.4846979369 	0 	0 	0
0.4852536295 	0 	0 	0
0.4858197528 	0 	0 	0
0.4863971602 	0 	0 	0
0.4869872469 	0 	0 	0
0.4875884075 	0 	0 	0
0.4882008498 	0 	0 	0
0.4888247852 	0 	0 	0
0.4894604292 	0 	0 	0
0.4901080013 	0 	0 	0
0.4907677251 	0 	0 	0
0.4914398285 	0 	0 	0
0.4921245435 	0 	0 	0
0.4928221066 	0 	0 	0
0.4935327586 	0 	0 	0
0.494256745 	0 	0 	0
0.4949943156 	0 	0 	0
0.4957457251 	0 	0 	0
0.496511233 	0 	0 	0
0.4972915864 	0 	0 	0
0.4980891876 	0 	0 	0
0.4989017502 	0 	0 	0
0.5001491012 	0 	0 	0
0.5014103017 	0 	0 	0
0.502685506 	0 	0 	0
0.5039748697 	0 	0 	0
0.5052785505 	0 	0 	0
0.5065967078 	0 	0 	0
0.5079295026 	0 	0 	0
0.5092206927 	0 	0 	0
0.5092813988 	0 	0 	0
0.5106484713 	0 	0 	0
0.5120307241 	0 	0 	0
0.5134283261 	0 	0 	0
0.5148414483 	0 	0 	0
0.5162702635 	0 	0 	0
0.5177149467 	0 	0 	0
0.5191764905 	0 	0 	0
0.5206581837 	0 	0 	0
0.5221563259 	0 	0 	0
0.5236711006 	0 	0 	0
0.525202693 	0 	0 	0
0.5267512907 	0 	0 	0
0.5283170833 	0 	0 	0
0.5299006786 	0 	0 	0
0.5315060786 	0 	0 	0
0.5331292981 	0 	0 	0
0.5347705361 	0 	0 	0
0.5364299936 	0 	0 	0
0.5381078739 	0 	0 	0
0.5398043827 	0 	0 	0
0.541522211 	0 	0 	0
0.543261121 	0 	0 	0
0.5450193315 	0 	0 	0
0.546797058 	0 	0 	0
0.5485945187 	0 	0 	0
0.550411934 	0 	0 	0
0.5522516129 	0 	0 	0
0.554113947 	0 	0 	0
0.555996951 	0 	0 	0
0.557900856 	0 	0 	0
0.5598258958 	0 	0 	0
0.561772307 	0 	0 	0
0.5637436946 	0 	0 	0
0.565737713 	0 	0 	0
0.5677538642 	0 	0 	0
0.5697923962 	0 	0 	0
0.5718535597 	0 	0 	0
0.5739395723 	0 	0 	0
0.5760506688 	0 	0 	0
0.578185199 	0 	0 	0
0.5803434258 	0 	0 	0
0.5825256149 	0 	0 	0
0.5847338703 	0 	0 	0
0.5869684579 	0 	0 	0
0.5892278534 	0 	0 	0
0.5915123353 	0 	0 	0
0.5938221857 	0 	0 	0
0.5961603287 	0 	0 	0
0.5985251933 	0 	0 	0
0.6009163178 	0 	0 	0
0.6033339976 	0 	0 	0
0.6057794613 	0 	0 	0
0.6082543018 	0 	0 	0
0.6107566274 	0 	0 	0
0.6132867477 	0 	0 	0
0.6158450817 	0 	0 	0
0.6184346228 	0 	0 	0
0.6210529287 	0 	0 	0
0.6237003239 	0 	0 	0
0.6263771365 	0 	0 	0
0.6290862714 	0 	0 	0
0.6318255697 	0 	0 	0
0.6345953098 	0 	0 	0
0.6373960678 	0 	0 	0
0.6402301167 	0 	0 	0
0.6430956648 	0 	0 	0
0.6459930683 	0 	0 	0
0.6489235108 	0 	0 	0
0.6518878645 	0 	0 	0
0.6548851782 	0 	0 	0
0.6579158249 	0 	0 	0
0.6609817596 	0 	0 	0
0.6640821389 	0 	0 	0
0.6672170054 	0 	0 	0
0.6703874269 	0 	0 	0
0.673594155 	0 	0 	0
0.6768365625 	0 	0 	0
0.6801152063 	0 	0 	0
0.6834316982 	0 	0 	0
0.6867851015 	0 	0 	0
0.6901758354 	0 	0 	0
0.6936055424 	0 	0 	0
0.6970735343 	0 	0 	0
0.700580145 	0 	0 	0
0.7041267955 	0 	0 	0
0.7077131112 	0 	0 	0
0.7113393773 	0 	0 	0
0.7150069301 	0 	0 	0
0.7187154514 	0 	0 	0
0.7224653199 	0 	0 	0
0.7262578107 	0 	0 	0
0.7300925709 	0 	0 	0
0.7339274599 	0 	0 	0
0.7377205243 	0 	0 	0
0.7414716977 	0 	0 	0
0.7451816807 	0 	0 	0
0.7488510254 	0 	0 	0
0.7524798606 	0 	0 	0
0.7560688559 	0 	0 	0
0.7596184549 	0 	0 	0
0.7631288782 	0 	0 	0
0.7666007261 	0 	0 	0
0.7700344366 	0 	0 	0
0.7734302599 	0 	0 	0
0.7767887125 	0 	0 	0
0.7801102773 	0 	0 	0
0.7833951996 	0 	0 	0
0.7866439137 	0 	0 	0
0.7898569628 	0 	0 	0
0.7930345721 	0 	0 	0
0.7961771359 	0 	0 	0
0.7992851568 	0 	0 	0
0.8023589322 	0 	0 	0
0.805398811 	0 	0 	0
0.8084052021 	0 	0 	0
0.8113785157 	0 	0 	0
0.8143190433 	0 	0 	0
0.8172271484 	0 	0 	0
0.8201032429 	0 	0 	0
0.8229476498 	0 	0 	0
0.8257606958 	0 	0 	0
0.8285427279 	0 	0 	0
0.8312941389 	0 	0 	0
0.8340152199 	0 	0 	0
0.836706302 	0 	0 	0
0.8393677168 	0 	0 	0
0.841999829 	0 	0 	0
0.8446029242 	0 	0 	0
0.8471773226 	0 	0 	0
0.8497233412 	0 	0 	0
0.8522413154 	0 	0 	0
0.8547315346 	0 	0 	0
0.8571943021 	0 	0 	0
0.8596299208 	0 	0 	0
0.8620386999 	0 	0 	0
0.8644209325 	0 	0 	0
0.8667769039 	0 	0 	0
0.8691069039 	0 	0 	0
0.8714112196 	0 	0 	0
0.8736901437 	0 	0 	0
0.8759439454 	0 	0 	0
0.8781729018 	0 	0 	0
0.880377287 	0 	0 	0
0.8825573737 	0 	0 	0
0.8847134322 	0 	0 	0
0.8868457226 	0 	0 	0
0.8889545069 	0 	0 	0
0.8910400442 	0 	0 	0
0.8931025917 	0 	0 	0
0.8951424045 	0 	0 	0
0.8971597301 	0 	0 	0
0.8991548164 	0 	0 	0
0.9011279084 	0 	0 	0
0.9030792486 	0 	0 	0
0.9050090786 	0 	0 	0
0.9069176333 	0 	0 	0
0.9088051471 	0 	0 	0
0.9106718518 	0 	0 	0
0.9125179768 	0 	0 	0
0.914343749 	0 	0 	0
0.9161493933 	0 	0 	0
0.9179351304 	0 	0 	0
0.9197011796 	0 	0 	0
0.921447758 	0 	0 	0
0.9231750801 	0 	0 	0
0.9248833582 	0 	0 	0
0.9265728023 	0 	0 	0
0.9282436194 	0 	0 	0
0.9298960149 	0 	0 	0
0.9315301917 	0 	0 	0
0.9331463504 	0 	0 	0
0.9345222492 	0 	0 	0
0.934744687 	0 	0 	0
0.9363253843 	0 	0 	0
0.9378886538 	0 	0 	0
0.9394346874 	0 	0 	0
0.940963675 	0 	0 	0
0.9424758045 	0 	0 	0
0.9439712616 	0 	0 	0
0.9454502299 	0 	0 	0
0.9469128912 	0 	0 	0
0.9483594251 	0 	0 	0
0.9497900093 	0 	0 	0
0.9512048194 	0 	0 	0
0.9526040292 	0 	0 	0
0.9539878108 	0 	0 	0
0.9553563339 	0 	0 	0
0.9567097669 	0 	0 	0
0.9580482759 	0 	0 	0
0.9593720254 	0 	0 	0
0.960681178 	0 	0 	0
0.9619758945 	0 	0 	0
0.963256334 	0 	0 	0
0.9640904201 	0 	0 	0
0.9649091234 	0 	0 	0
0.9657127275 	0 	0 	0
0.9665015107 	0 	0 	0
0.9672757463 	0 	0 	0
0.9680357026 	0 	0 	0
0.9687816429 	0 	0 	0
0.9695138255 	0 	0 	0
0.9702325042 	0 	0 	0
0.9709379278 	0 	0 	0
0.971630341 	0 	0 	0
0.9723099835 	0 	0 	0
0.9729770908 	0 	0 	0
0.9736318941 	0 	0 	0
0.9742746202 	0 	0 	0
0.9749054919 	0 	0 	0
0.9755247278 	0 	0 	0
0.9761325423 	0 	0 	0
0.9767291462 	0 	0 	0
0.9773147462 	0 	0 	0
0.9778895451 	0 	0 	0
0.9784537421 	0 	0 	0
0.9790075328 	0 	0 	0
0.979551109 	0 	0 	0
0.9800846592 	0 	0 	0
0.9806083682 	0 	0 	0
0.9811224175 	0 	0 	0
0.9816269852 	0 	0 	0
0.9821222462 	0 	0 	0
0.9826083721 	0 	0 	0
0.9830855314 	0 	0 	0
0.9835538894 	0 	0 	0
0.9840136086 	0 	0 	0
0.984464848 	0 	0 	0
0.9849077643 	0 	0 	0
0.9853425108 	0 	0 	0
0.9857692383 	0 	0 	0
0.9861880946 	0 	0 	0
0.9865992248 	0 	0 	0
0.9870027716 	0 	0 	0
0.9873988747 	0 	0 	0
0.9877876714 	0 	0 	0
0.9881692965 	0 	0 	0
0.9885438823 	0 	0 	0
0.9889115585 	0 	0 	0
0.9892724526 	0 	0 	0
0.9896266897 	0 	0 	0
0.9899743926 	0 	0 	0
0.9903156818 	0 	0 	0
0.9906506755 	0 	0 	0
0.99097949 	0 	0 	0
0.9913022391 	0 	0 	0
0.9916190347 	0 	0 	0
0.9919299867 	0 	0 	0
0.9922352028 	0 	0 	0
0.9925347888 	0 	0 	0
0.9928288486 	0 	0 	0
0.993117484 	0 	0 	0
0.9934007952 	0 	0 	0
0.9936788803 	0 	0 	0
0.9938578551 	0 	0 	0
0.9940368302 	0 	0 	0
0.9942158055 	0 	0 	0
0.994394781 	0 	0 	0
0.9945737568 	0 	0 	0
0.9947527327 	0 	0 	0
0.9949317089 	0 	0 	0
0.9951106853 	0 	0 	0
0.9952896619 	0 	0 	0
0.9954686388 	0 	0 	0
0.9956476158 	0 	0 	0
0.9958265931 	0 	0 	0
0.9960055706 	0 	0 	0
0.9961845483 	0 	0 	0
0.9963635262 	0 	0 	0
0.9965425044 	0 	0 	0
0.9967214828 	0 	0 	0
0.9969004614 	0 	0 	0
0.9970794402 	0 	0 	0
0.9972584192 	0 	0 	0
0.9974373985 	0 	0 	0
0.9976163779 	0 	0 	0
0.9977953576 	0 	0 	0
0.9979743375 	0 	0 	0
0.9981533176 	0 	0 	0
0.998332298 	0 	0 	0
0.9985112786 	0 	0 	0
0.9986902593 	0 	0 	0
0.9988692404 	0 	0 	0
0.9990482216 	-0.00305111055 	1.851489387e-07 	9.003092216e-11
