0.4330902145 	2.890535975e-06 	-1.727867914e-08 	7.962865174e-12 	2.89245892e-06 	-7.11389005e-10 	5.513830618e-09
0.4332736287 	3.432708631e-05 	-8.228191475e-07 	2.611841517e-10 	3.461504339e-05 	-5.228225394e-09 	6.598589346e-08
0.4334570457 	0.0001926677877 	-1.092890558e-05 	2.779259979e-09 	0.0001969886049 	-2.224547324e-08 	3.755150311e-07
0.4336404653 	0.0006361231893 	-6.714830952e-05 	1.428125462e-08 	0.0006636773539 	-5.681029994e-08 	1.265153496e-06
0.4338238871 	0.001530306638 	-0.0002572468851 	4.632699231e-08 	0.001637368463 	-1.020316898e-07 	3.121279373e-06
0.4340073109 	0.002979664032 	-0.0007063541022 	1.081283657e-07 	0.003275269708 	-1.343555409e-07 	6.243574378e-06
0.4341907363 	0.004970477384 	-0.001507860236 	1.974311097e-07 	0.005603146925 	-1.233236695e-07 	1.068115535e-05
0.4343741631 	0.007364514136 	-0.002652439996 	3.008980066e-07 	0.008479262775 	-5.141026374e-08 	1.616383154e-05
0.4345575909 	0.009958027916 	-0.004030089756 	4.032917462e-07 	0.01165296938 	7.612256368e-08 	2.221379842e-05
0.4347410195 	0.01255955196 	-0.005495775046 	4.944085683e-07 	0.01486960621 	2.393756165e-07 	2.834560223e-05
0.4349244486 	0.01503472845 	-0.006929597598 	5.69865314e-07 	0.01794266529 	4.171537702e-07 	3.420370695e-05
0.4351078778 	0.01731083864 	-0.008257796888 	6.292780539e-07 	0.02076838767 	5.941024033e-07 	3.959031917e-05
0.435291307 	0.01936117858 	-0.009446838855 	6.7426235e-07 	0.02330652436 	7.636551356e-07 	4.442871315e-05
0.4354747357 	0.02118691679 	-0.01048968333 	7.062640888e-07 	0.02555605325 	9.168452419e-07 	4.871694043e-05
0.4356581637 	0.02280336054 	-0.01139437887 	7.327609075e-07 	0.02753712 	1.049966562e-06 	5.249340426e-05
0.4358415907 	0.02423332611 	-0.01216877889 	6.843326992e-07 	0.02927505166 	1.192559673e-06 	5.580638504e-05
0.4360250165 	0.02550111788 	-0.01282296476 	6.211869703e-07 	0.03079654374 	1.319696441e-06 	5.870677182e-05
0.4362084406 	0.02662504846 	-0.01338689272 	6.153313333e-07 	0.03213504631 	1.408138931e-06 	6.125832974e-05
0.4363918629 	0.02762096719 	-0.01388614705 	6.051137553e-07 	0.03331894959 	1.495404696e-06 	6.351517843e-05
0.436575283 	0.02850554552 	-0.01432928008 	5.90784461e-07 	0.03436627457 	1.58153773e-06 	6.551167095e-05
0.4367587007 	0.02929345258 	-0.01472366671 	5.731536233e-07 	0.03529471806 	1.67172718e-06 	6.728154229e-05
0.4369421156 	0.02999751858 	-0.01507523574 	5.713706896e-07 	0.03612125121 	1.761898948e-06 	6.885714419e-05
0.4371255275 	0.03062996422 	-0.01538399232 	6.735518087e-07 	0.03685743484 	1.805904102e-06 	7.02605148e-05
0.4373089361 	0.03120129622 	-0.01565026427 	7.631238888e-07 	0.03751311497 	1.856069306e-06 	7.151042336e-05
0.4374923411 	0.03171859897 	-0.0158832671 	7.455920914e-07 	0.03810065736 	1.952185252e-06 	7.263044245e-05
0.4376757422 	0.03218768381 	-0.01609133005 	7.180365379e-07 	0.03863004381 	2.037021755e-06 	7.363960016e-05
0.4378591391 	0.03261414637 	-0.01627793656 	6.878577516e-07 	0.03910748966 	2.108879527e-06 	7.454974466e-05
0.4380425315 	0.03300277067 	-0.01644594555 	6.566126929e-07 	0.03953913478 	2.182043472e-06 	7.537258023e-05
0.4382259191 	0.03335763556 	-0.01659799145 	6.247351742e-07 	0.03992940374 	2.25237912e-06 	7.611654132e-05
0.4384093017 	0.03368232337 	-0.01673597088 	5.918031483e-07 	0.04028264585 	2.319330606e-06 	7.678991897e-05
0.438592679 	0.03401756532 	-0.01688620582 	5.544534913e-07 	0.04065004295 	2.394846245e-06 	7.749027996e-05
0.4388775938 	0.03439337544 	-0.01705126674 	5.057084192e-07 	0.04105632732 	2.476504106e-06 	7.826477088e-05
0.4391678485 	0.03476389761 	-0.01720248422 	4.501318038e-07 	0.04144421015 	2.560348936e-06 	7.900418337e-05
0.4394635417 	0.03509492148 	-0.01733524875 	3.933864631e-07 	0.04178483384 	2.636201847e-06 	7.965350679e-05
0.4397647738 	0.03539062406 	-0.01745159522 	3.362848608e-07 	0.04208361866 	2.703655077e-06 	8.022307369e-05
0.4400716469 	0.03565452879 	-0.01755368753 	2.795619859e-07 	0.04234345643 	2.762558741e-06 	8.071839672e-05
0.4403842649 	0.0358897411 	-0.01764297954 	2.239984325e-07 	0.04256864767 	2.812674157e-06 	8.11476738e-05
0.4407027333 	0.03609899104 	-0.01772056272 	1.702295537e-07 	0.04276241849 	2.853873705e-06 	8.151705485e-05
0.4410271599 	0.03628465382 	-0.01778739955 	1.187926559e-07 	0.042927594 	2.88613279e-06 	8.183192526e-05
0.4413576537 	0.03644880951 	-0.01784433113 	7.012578288e-08 	0.04306665266 	2.909522706e-06 	8.209700972e-05
0.4416943261 	0.03659328838 	-0.01789209925 	2.456948977e-08 	0.0431817674 	2.924202663e-06 	8.231645042e-05
0.4420372902 	0.03671970842 	-0.0179313616 	-1.762801469e-08 	0.04327485896 	2.93040809e-06 	8.249390881e-05
0.4423866608 	0.03682950639 	-0.017962704 	-5.63043159e-08 	0.04334763161 	2.928439032e-06 	8.263263369e-05
0.4427425551 	0.03692396346 	-0.01798665123 	-9.137438715e-08 	0.04340160349 	2.918648476e-06 	8.27355191e-05
0.4431050918 	0.03700422684 	-0.01800367497 	-1.228202972e-07 	0.04343813145 	2.901430147e-06 	8.280515155e-05
0.4434743918 	0.03707132755 	-0.01801420167 	-1.506793618e-07 	0.043458442 	2.877213672e-06 	8.28438691e-05
0.443850578 	0.0371261953 	-0.01801862179 	-1.750367701e-07 	0.04346362096 	2.846446948e-06 	8.285374164e-05
0.4442337753 	0.03716967489 	-0.01801727639 	-1.960025482e-07 	0.04345465295 	2.809572211e-06 	8.283664611e-05
0.4446241106 	0.0372025402 	-0.01801057487 	-2.137977255e-07 	0.04343244069 	2.767072572e-06 	8.279430338e-05
0.4450233411 	0.03722548629 	-0.01799881791 	-2.28616234e-07 	0.04339770609 	2.719041251e-06 	8.272808958e-05
0.445431201 	0.03723910962 	-0.0179820954 	-2.405722653e-07 	0.04335110274 	2.665947543e-06 	8.263925063e-05
0.4458466793 	0.03724392837 	-0.01796065369 	-2.498205381e-07 	0.04329331563 	2.608364824e-06 	8.252909235e-05
0.4462699177 	0.03724045816 	-0.01793482003 	-2.565820424e-07 	0.0432250268 	2.546651464e-06 	8.239891485e-05
0.4467010604 	0.03722921038 	-0.01790483638 	-2.610974659e-07 	0.04314684909 	2.481298211e-06 	8.224988642e-05
0.4471402543 	0.03721064916 	-0.01787092825 	-2.635851424e-07 	0.04305931171 	2.412685221e-06 	8.208301583e-05
0.4475876489 	0.03718520392 	-0.01783330817 	-2.642793308e-07 	0.04296291867 	2.341202023e-06 	8.18992639e-05
0.4480433967 	0.03715327306 	-0.01779217688 	-2.634198295e-07 	0.04285813247 	2.267198933e-06 	8.169951228e-05
0.4485076529 	0.03711522678 	-0.01774772477 	-2.611938216e-07 	0.04274538064 	2.190981193e-06 	8.148457596e-05
0.4489805754 	0.037071409 	-0.01770013765 	-2.579289817e-07 	0.04262506308 	2.112934793e-06 	8.125521726e-05
0.4494623252 	0.03702214091 	-0.01764959055 	-2.537785434e-07 	0.04249754913 	2.03339e-06 	8.101214023e-05
0.4499530662 	0.03696772363 	-0.01759624291 	-2.486091505e-07 	0.04236317922 	1.952539492e-06 	8.075599384e-05
0.4504529654 	0.03690843634 	-0.01754025902 	-2.423216882e-07 	0.04222227742 	1.870623104e-06 	8.048739583e-05
0.4509621928 	0.03684454176 	-0.0174817853 	-2.349493379e-07 	0.04207514322 	1.787923227e-06 	8.020691715e-05
0.4514809216 	0.03677628745 	-0.0174209506 	-2.265025305e-07 	0.04192205162 	1.704645222e-06 	7.991508202e-05
0.4520093281 	0.03670390439 	-0.01735788027 	-2.171450536e-07 	0.04176326165 	1.621034037e-06 	7.961238421e-05
0.452547592 	0.0366276084 	-0.01729269612 	-2.071521886e-07 	0.04159901615 	1.537371203e-06 	7.929928662e-05
0.4530958961 	0.03654759985 	-0.01722552512 	-1.96622443e-07 	0.04142954442 	1.453852584e-06 	7.897622641e-05
0.4536544268 	0.03646406652 	-0.0171564874 	-1.856641595e-07 	0.04125505898 	1.370681296e-06 	7.864360867e-05
0.4542233737 	0.03637718368 	-0.01708569873 	-1.743636304e-07 	0.04107576207 	1.288075534e-06 	7.830181892e-05
0.4548029302 	0.03628711428 	-0.01701327326 	-1.627999761e-07 	0.04089183903 	1.206239126e-06 	7.79512105e-05
0.455393293 	0.03619401143 	-0.0169393135 	-1.510513376e-07 	0.04070344274 	1.12536587e-06 	7.75920748e-05
0.4559946626 	0.03609796692 	-0.01686392348 	-1.392087805e-07 	0.04051068578 	1.045638638e-06 	7.722462646e-05
0.4566082852 	0.03599892601 	-0.01678719173 	-1.273598101e-07 	0.04031339004 	9.67084097e-07 	7.684852595e-05
0.45723626 	0.03589695138 	-0.01670901501 	-1.155125235e-07 	0.04011155409 	8.896537084e-07 	7.646377053e-05
0.4578759321 	0.03579232126 	-0.01662951635 	-1.038085876e-07 	0.03990557248 	8.139632585e-07 	7.607111233e-05
0.4585275182 	0.03568523082 	-0.01654897375 	-9.237272587e-08 	0.03969577808 	7.402494356e-07 	7.567118589e-05
0.4591912389 	0.035575772 	-0.01646744547 	-8.128030916e-08 	0.0394823362 	6.686915985e-07 	7.526430635e-05
0.459867319 	0.03546402259 	-0.01638500627 	-7.061577166e-08 	0.03926530793 	5.99444952e-07 	7.485059015e-05
0.4605559872 	0.03535004899 	-0.01630172696 	-6.045902502e-08 	0.03904479058 	5.326663458e-07 	7.443022277e-05
0.4612574765 	0.03523390748 	-0.01621767138 	-5.088482941e-08 	0.0388208614 	4.685012514e-07 	7.400335153e-05
0.4619720244 	0.03511564339 	-0.01613289998 	-4.196279647e-08 	0.03859358853 	4.070862356e-07 	7.357010627e-05
0.4626998725 	0.03499529131 	-0.01604746912 	-3.375728392e-08 	0.03836303095 	3.485486606e-07 	7.313059944e-05
0.463441267 	0.03487287517 	-0.01596143111 	-2.632772381e-08 	0.03812923802 	2.930065282e-07 	7.268492515e-05
0.4641964587 	0.03474840841 	-0.01587483335 	-1.972895331e-08 	0.03789224822 	2.405684978e-07 	7.223315672e-05
0.4649657028 	0.03462189439 	-0.01578771644 	-1.401139435e-08 	0.03765209365 	1.913342104e-07 	7.177535535e-05
0.4657492594 	0.03449332588 	-0.01570011755 	-9.221407683e-09 	0.03740879941 	1.453946619e-07 	7.131156892e-05
0.4665473934 	0.03436268948 	-0.0156120514 	-5.400894847e-09 	0.03716232354 	1.028305534e-07 	7.084171739e-05
0.4673603745 	0.03422992437 	-0.0155235284 	-2.583498986e-09 	0.03691276378 	6.371255937e-08 	7.036598714e-05
0.4681892405 	0.03409475818 	-0.01543463616 	-7.803667353e-10 	0.036659413 	2.805409584e-08 	6.988303014e-05
0.4689198652 	0.03397620281 	-0.01535731937 	7.12303463e-07 	0.03643767069 	-1.955306283e-06 	6.946032766e-05
0.4690375466 	0.03395709791 	-0.01534486672 	5.135511126e-10 	0.03640192216 	4.274567715e-09 	6.939218103e-05
0.4699010404 	0.03379883322 	-0.01524428587 	4.687427358e-09 	0.0361081494 	3.283482898e-08 	6.883216849e-05
0.471226299 	0.0336030141 	-0.01511680599 	1.192202382e-08 	0.03574357451 	6.937107881e-08 	6.813718744e-05
0.4725659371 	0.03338824201 	-0.01497222048 	2.009399505e-08 	0.03534167313 	9.691612762e-08 	6.73710517e-05
0.4739201122 	0.03317161798 	-0.01482718687 	2.907946337e-08 	0.03493807946 	1.161173424e-07 	6.660168998e-05
0.475288984 	0.0329530198 	-0.01468220918 	3.882969888e-08 	0.03453281644 	1.27300074e-07 	6.582914604e-05
0.4766727141 	0.03273237434 	-0.01453753312 	4.929740719e-08 	0.03412513046 	1.307462362e-07 	6.505198324e-05
0.4780714658 	0.03250967818 	-0.01439294348 	6.046695458e-08 	0.03371523701 	1.267159258e-07 	6.427061242e-05
0.4794854044 	0.03228464989 	-0.01424809277 	7.23151391e-08 	0.03330240774 	1.154044794e-07 	6.348364507e-05
0.4809214894 	0.03205704898 	-0.01410221167 	8.499496723e-08 	0.03288600174 	9.699046768e-08 	6.268985951e-05
0.4823738791 	0.03182718632 	-0.01395487066 	9.849621428e-08 	0.03246625339 	7.157451943e-08 	6.188970248e-05
0.4838420137 	0.03159537869 	-0.01380600325 	1.127866206e-07 	0.0320434339 	3.942285108e-08 	6.108369103e-05
0.4853260666 	0.03136175136 	-0.01365504647 	1.279079171e-07 	0.03161756392 	7.618530709e-10 	6.027186447e-05
0.4868262135 	0.03112642979 	-0.01350138641 	1.438550856e-07 	0.03118837929 	-4.423297141e-08 	5.94537193e-05
0.4883426321 	0.0308895737 	-0.01334435641 	1.605566108e-07 	0.03075568576 	-9.536496571e-08 	5.862888517e-05
0.4898755023 	0.03065132825 	-0.01318322154 	1.778366569e-07 	0.03031928201 	-1.524476725e-07 	5.779697832e-05
0.4914262901 	0.03041162022 	-0.01301716538 	1.953923944e-07 	0.02987842509 	-2.15357031e-07 	5.695658251e-05
0.4930000595 	0.03017056542 	-0.01284513046 	2.129511744e-07 	0.02943272009 	-2.840495167e-07 	5.610694489e-05
0.4945908782 	0.02992876319 	-0.01266659869 	2.298143701e-07 	0.02898257558 	-3.580453439e-07 	5.524884435e-05
0.496198935 	0.02968673926 	-0.01248133548 	2.451391495e-07 	0.02852836579 	-4.368980495e-07 	5.438299424e-05
0.497824421 	0.02944485713 	-0.01228877489 	2.58079684e-07 	0.02807027867 	-5.202440317e-07 	5.350975288e-05
0.4994675299 	0.02920349488 	-0.01208851737 	2.676458268e-07 	0.02760830982 	-6.07784125e-07 	5.262911185e-05
0.5011284574 	0.02896302222 	-0.01188028348 	2.727916258e-07 	0.02714271135 	-6.992231215e-07 	5.174155177e-05
0.5028080558 	0.02872356261 	-0.01166390055 	2.724135604e-07 	0.0266731559 	-7.943964201e-07 	5.084644857e-05
0.5045124937 	0.02848536275 	-0.01143905441 	2.657663049e-07 	0.02619966649 	-8.934456871e-07 	4.994384616e-05
0.5062353919 	0.02824912922 	-0.01120620041 	2.519840245e-07 	0.02572314227 	-9.958691078e-07 	4.903545854e-05
0.5079769559 	0.02801547769 	-0.01096625064 	2.303561678e-07 	0.02524446602 	-1.101430928e-06 	4.812296856e-05
0.509737394 	0.02778485456 	-0.01071973035 	2.005621208e-07 	0.02476431336 	-1.210106278e-06 	4.720766414e-05
0.5115169172 	0.02755770776 	-0.01046730708 	1.624194242e-07 	0.02428321503 	-1.322060647e-06 	4.629055702e-05
0.5133157389 	0.02733434794 	-0.01020972421 	1.158067936e-07 	0.02380151276 	-1.437536231e-06 	4.537229861e-05
0.515137967 	0.02711503698 	-0.009947477938 	6.089411619e-08 	0.02331939192 	-1.557156811e-06 	4.445324228e-05
0.5169830942 	0.02690031399 	-0.009681293412 	-2.052758234e-09 	0.02283757327 	-1.681064649e-06 	4.353476203e-05
0.5188482099 	0.02669086315 	-0.009412424401 	-7.099718398e-08 	0.02235709277 	-1.757336135e-06 	4.261883265e-05
0.5207335384 	0.0264872766 	-0.009141884619 	-1.391067706e-07 	0.02187885124 	-1.772800935e-06 	4.170717137e-05
0.522639307 	0.02629009601 	-0.00887042179 	-2.057343126e-07 	0.02140352184 	-1.782812462e-06 	4.080106143e-05
0.5245657457 	0.02609971554 	-0.00859876766 	-2.700185506e-07 	0.02093142851 	-1.788965178e-06 	3.990112032e-05
0.526516352 	0.02591638681 	-0.008327328184 	-3.308114148e-07 	0.02046267328 	-1.793759828e-06 	3.900754258e-05
0.5284915975 	0.02574044901 	-0.008056567481 	-3.87320421e-07 	0.01999766905 	-1.798585035e-06 	3.812111528e-05
0.5304882478 	0.02557233882 	-0.00778743062 	-4.398520829e-07 	0.01953710078 	-1.801602225e-06 	3.724314415e-05
0.5325065448 	0.02541251714 	-0.007520661786 	-4.887160877e-07 	0.01908159081 	-1.800739961e-06 	3.637481554e-05
0.5345467337 	0.02526143437 	-0.007256689527 	-5.336158327e-07 	0.01863164184 	-1.796625584e-06 	3.551708774e-05
0.5366090627 	0.02511934926 	-0.00699595815 	-5.744897404e-07 	0.01818715036 	-1.790056626e-06 	3.466976344e-05
0.5386990383 	0.02498650222 	-0.006738490571 	-6.111292745e-07 	0.01774813094 	-1.780904219e-06 	3.383287041e-05
0.5408128428 	0.0248632692 	-0.006484699113 	-6.43608216e-07 	0.01731501101 	-1.769457681e-06 	3.300722345e-05
0.5429495711 	0.02474993743 	-0.006235362557 	-6.721191908e-07 	0.01688813792 	-1.755665106e-06 	3.219348468e-05
0.5451094844 	0.02464671285 	-0.005990745942 	-6.967228525e-07 	0.01646788954 	-1.739420983e-06 	3.139237448e-05
0.5472928472 	0.02455369236 	-0.005751115778 	-7.176218657e-07 	0.01605407696 	-1.720722465e-06 	3.060353268e-05
0.5495029917 	0.02447094416 	-0.005516465378 	-7.348480685e-07 	0.01564652049 	-1.699360846e-06 	2.982661679e-05
0.5517401277 	0.02439858177 	-0.005286867173 	-7.485348594e-07 	0.01524531955 	-1.675426331e-06 	2.906181628e-05
0.5540015404 	0.02433666104 	-0.005062826445 	-7.589927379e-07 	0.01485065948 	-1.648998061e-06 	2.830948449e-05
0.5562875083 	0.0242851594 	-0.004844597633 	-7.663862409e-07 	0.01446282814 	-1.619903273e-06 	2.757017017e-05
0.5585983135 	0.02424396673 	-0.004632277692 	-7.709173094e-07 	0.01408168848 	-1.588060916e-06 	2.684361204e-05
0.5609371009 	0.0242129515 	-0.004425696528 	-7.725804257e-07 	0.01370706976 	-1.553230593e-06 	2.612948465e-05
0.5633041214 	0.02419197272 	-0.00422473836 	-7.714422643e-07 	0.01333910171 	-1.515577661e-06 	2.542803528e-05
0.5656968536 	0.02418079376 	-0.004029677333 	-7.675046757e-07 	0.01297797335 	-1.475392667e-06 	2.473962426e-05
0.5681155946 	0.02417913486 	-0.003840499066 	-7.601645024e-07 	0.01262408586 	-1.432950659e-06 	2.406501634e-05
0.5705606454 	0.02418669615 	-0.003656987757 	-7.481664516e-07 	0.01227731685 	-1.388908024e-06 	2.340397822e-05
0.5730364139 	0.02420326199 	-0.003478412523 	-7.295354574e-07 	0.01193768796 	-1.343648966e-06 	2.275655116e-05
0.5755402815 	0.02422862448 	-0.003304128984 	-7.040162015e-07 	0.01160539233 	-1.296708549e-06 	2.212310332e-05
0.5780713847 	0.02426242255 	-0.00313370558 	-6.771420379e-07 	0.01128072016 	-1.242623558e-06 	2.150418794e-05
0.5806300406 	0.02430384843 	-0.002966578758 	-6.669037777e-07 	0.01096447534 	-1.16731534e-06 	2.090133743e-05
0.5832180167 	0.02435077155 	-0.002803235728 	-7.068066014e-07 	0.01065843892 	-1.045912508e-06 	2.031794694e-05
0.5858376189 	0.02439851438 	-0.002646916155 	-8.280440887e-07 	0.01036712277 	-8.583406595e-07 	1.97626174e-05
0.5884857425 	0.02443966732 	-0.002504900847 	-1.004021209e-06 	0.0100975723 	-6.248640329e-07 	1.924877929e-05
0.5911627215 	0.02446676572 	-0.002385288201 	-1.106198522e-06 	0.009859074459 	-3.724627849e-07 	1.879413611e-05
0.5938690591 	0.02447886186 	-0.002286338803 	-1.015307966e-06 	0.00965400072 	-1.215320493e-07 	1.840320856e-05
0.5966092402 	0.02447478501 	-0.00218466593 	-7.655471083e-07 	0.009494084391 	5.706051336e-08 	1.809836359e-05
0.5993792916 	0.02446575585 	-0.002055222417 	-4.862556766e-07 	0.009372240933 	1.518213273e-07 	1.78660961e-05
0.602179565 	0.02446011496 	-0.001882110455 	-2.924305691e-07 	0.009281519608 	1.569816813e-07 	1.769315604e-05
0.6050104173 	0.02446155276 	-0.001667321895 	-1.958843123e-07 	0.009214822093 	1.151802481e-07 	1.756601204e-05
0.6078761888 	0.02447801801 	-0.00143016847 	-1.439104077e-07 	0.00915277211 	8.740748958e-08 	1.744772752e-05
0.6107733423 	0.02450437064 	-0.001181401913 	-1.108682737e-07 	0.009098914668 	6.665694105e-08 	1.734506027e-05
0.6137021528 	0.02453722431 	-0.0009252039816 	-8.774732485e-08 	0.009054492879 	5.043218946e-08 	1.726037999e-05
0.6166633566 	0.02457523604 	-0.0006640713788 	-6.94400396e-08 	0.00902072953 	3.689139552e-08 	1.719601767e-05
0.6196602986 	0.02461729207 	-0.0003996132082 	-5.326063052e-08 	0.008998163824 	2.542853287e-08 	1.715300116e-05
0.6226900141 	0.02466256002 	-0.0001336260909 	-3.783618977e-08 	0.008987116198 	1.583234078e-08 	1.713194131e-05
0.6257528942 	0.02471041888 	0.0001322406164 	-2.234459621e-08 	0.008987668362 	8.003789336e-09 	1.713299389e-05
0.6288506095 	0.02476064099 	0.000397404068 	-6.422295879e-09 	0.0089998636 	1.923602525e-09 	1.71562414e-05
0.6301370712 	0.02478215909 	0.0005058986932 	4.695046578e-06 	0.009009606961 	-3.765244472e-07 	1.717481496e-05
0.6319842164 	0.02481305219 	0.0006616945886 	-9.409105546e-09 	0.009023608657 	2.204893871e-09 	1.720150608e-05
0.6351521115 	0.02486752141 	0.0009250745792 	-2.476258563e-08 	0.009058784608 	4.490911677e-09 	1.726856122e-05
0.6383547749 	0.02492406452 	0.00118820955 	-3.937712441e-08 	0.00910544283 	5.176012406e-09 	1.735750476e-05
0.6415950545 	0.02498274844 	0.001452350347 	-5.273702391e-08 	0.00916390519 	4.447363115e-09 	1.746895027e-05
0.6448714415 	0.0250434921 	0.001717835342 	-6.429796617e-08 	0.009234375607 	2.513756142e-09 	1.760328647e-05
0.6481838289 	0.02510618495 	0.001983740457 	-7.397535456e-08 	0.009316779084 	-3.931120389e-10 	1.77603704e-05
0.6515336955 	0.02517095048 	0.002248690046 	-8.189250451e-08 	0.009410950417 	-4.075028896e-09 	1.793988713e-05
0.6549219977 	0.02523798624 	0.002510156562 	-8.799537852e-08 	0.009516019064 	-8.31992619e-09 	1.814017718e-05
0.658347578 	0.02530772805 	0.002764700301 	-9.223675818e-08 	0.009630381922 	-1.285279892e-08 	1.835818457e-05
0.661811122 	0.02538092067 	0.003009561133 	-9.45525083e-08 	0.009752343009 	-1.735285248e-08 	1.85906763e-05
0.6653149209 	0.02545834573 	0.003243067011 	-9.466965804e-08 	0.009880272604 	-2.14447704e-08 	1.883454566e-05
0.6688573239 	0.02554066254 	0.003464291839 	-9.226042538e-08 	0.01001258341 	-2.471476595e-08 	1.908676684e-05
0.6724387986 	0.02562839832 	0.003673641597 	-8.719600382e-08 	0.01014833235 	-2.680268794e-08 	1.934554203e-05
0.6760616858 	0.02572184155 	0.003872887929 	-7.928575493e-08 	0.01028744956 	-2.736363121e-08 	1.961073811e-05
0.6797247083 	0.02582097277 	0.004063875574 	-6.825242048e-08 	0.01042999041 	-2.602392379e-08 	1.988246058e-05
0.6834281966 	0.02592567989 	0.004248560521 	-5.410808202e-08 	0.01057636221 	-2.251413839e-08 	2.016148593e-05
0.6871741462 	0.0260357972 	0.004429210885 	-3.684371995e-08 	0.01072750846 	-1.657481604e-08 	2.044961269e-05
0.6909617583 	0.02615106725 	0.004607352882 	-1.638081518e-08 	0.01088398279 	-7.909573575e-09 	2.074789624e-05
0.6936431587 	0.0262352755 	0.004731138086 	1.975932443e-06 	0.01099765564 	1.33146773e-06 	2.09645883e-05
0.694791239 	0.02627133186 	0.004784138005 	-7.073151683e-09 	0.01104632574 	-3.437114496e-09 	2.105736702e-05
0.6986643717 	0.02639648674 	0.00496080051 	-3.336940645e-08 	0.01121537501 	-1.726130976e-08 	2.137962193e-05
0.7025805467 	0.02652642339 	0.005137879685 	-6.223637772e-08 	0.01139140924 	-3.414094177e-08 	2.171519209e-05
0.7065401553 	0.02666115941 	0.005315710479 	-9.327946302e-08 	0.01157471237 	-5.410462526e-08 	2.206461881e-05
0.7105449492 	0.0268008107 	0.005494561427 	-1.263412047e-07 	0.01176561901 	-7.731137534e-08 	2.242853992e-05
0.7145941618 	0.02694527184 	0.005673275922 	-1.614383723e-07 	0.01196299928 	-1.040128645e-07 	2.280480157e-05
0.7186434165 	0.02709378718 	0.005849386789 	-1.981145571e-07 	0.01216424079 	-1.3408523e-07 	2.318842382e-05
0.7226486042 	0.02724544059 	0.00602068618 	-2.361504286e-07 	0.01236664736 	-1.674476328e-07 	2.3574267e-05
0.7266094196 	0.02739987636 	0.006186379333 	-2.755139316e-07 	0.01256877462 	-2.040854085e-07 	2.395957774e-05
0.7305267523 	0.02755689785 	0.006346981084 	-3.157902658e-07 	0.01277058976 	-2.436621817e-07 	2.434429349e-05
0.7344012368 	0.02771617261 	0.006503149734 	-3.564562279e-07 	0.01297219069 	-2.856663423e-07 	2.472860089e-05
0.7382328756 	0.02787738564 	0.006655483669 	-3.96573917e-07 	0.01317369196 	-3.291536383e-07 	2.511271831e-05
0.7420225095 	0.02804015918 	0.006805008626 	-4.350912248e-07 	0.013375866 	-3.730576023e-07 	2.549811822e-05
0.7457706092 	0.02820403526 	0.006952659073 	-4.714022105e-07 	0.01357941838 	-4.167258447e-07 	2.588614565e-05
0.7494773227 	0.0283685608 	0.007099216779 	-5.052932951e-07 	0.01378498903 	-4.599618143e-07 	2.627802042e-05
0.7531433854 	0.02853320783 	0.007245622599 	-5.37192361e-07 	0.01399357135 	-5.033617149e-07 	2.667563631e-05
0.7567692644 	0.02869745504 	0.007392435458 	-5.683318341e-07 	0.01420571218 	-5.484543023e-07 	2.70800357e-05
0.7603551552 	0.02886093482 	0.007539789645 	-6.001443635e-07 	0.01442150183 	-5.970564679e-07 	2.749139073e-05
0.763901668 	0.02902337439 	0.007687751649 	-6.338116991e-07 	0.01464103788 	-6.507472353e-07 	2.790988747e-05
0.7674093446 	0.02918466042 	0.007836044584 	-6.699655265e-07 	0.0148639282 	-7.103650582e-07 	2.833477837e-05
0.7708783745 	0.02934491197 	0.007984156653 	-7.080946227e-07 	0.01508946696 	-7.752166754e-07 	2.876471792e-05
0.7743092448 	0.02950432424 	0.008131785922 	-7.464310858e-07 	0.01531726624 	-8.429122966e-07 	2.919896667e-05
0.7777025987 	0.02966309568 	0.008278767358 	-7.824171943e-07 	0.01554707956 	-9.098895678e-07 	2.963705473e-05
0.7810585948 	0.02982142331 	0.008425067574 	-8.132091893e-07 	0.01577884011 	-9.721114044e-07 	3.007885474e-05
0.7843776614 	0.02997936316 	0.00857098735 	-8.363686194e-07 	0.01601300767 	-1.026137312e-06 	3.05252432e-05
0.7876603902 	0.03013672944 	0.008717100711 	-8.507178824e-07 	0.01625046304 	-1.070413607e-06 	3.097789913e-05
0.7909070506 	0.03029319017 	0.008863958826 	-8.569225054e-07 	0.0164920514 	-1.106124597e-06 	3.143843369e-05
0.7941180041 	0.03044832662 	0.009012038476 	-8.573774229e-07 	0.01673854894 	-1.137104792e-06 	3.190832652e-05
0.7972937061 	0.03060162066 	0.009161763134 	-8.558160611e-07 	0.01699069284 	-1.169311567e-06 	3.238898287e-05
0.8004346052 	0.03075263281 	0.009313230356 	-8.566886127e-07 	0.01724867452 	-1.209778679e-06 	3.288076765e-05
0.8035409751 	0.03090115442 	0.009466205049 	-8.641017487e-07 	0.01751215957 	-1.264928898e-06 	3.33830434e-05
0.8066132058 	0.03104720137 	0.009620273123 	-8.809083558e-07 	0.01778053361 	-1.339099409e-06 	3.389463891e-05
0.80965176 	0.03119100825 	0.009774900088 	-9.081401936e-07 	0.01805296101 	-1.433544445e-06 	3.441396124e-05
0.8126569591 	0.03133307698 	0.009929446939 	-9.448442136e-07 	0.01832839497 	-1.546082883e-06 	3.493901493e-05
0.8156291397 	0.03147410988 	0.01008331724 	-9.881370978e-07 	0.0186058632 	-1.671233313e-06 	3.54679465e-05
0.8185686718 	0.03161483161 	0.01023612519 	-1.033734091e-06 	0.01888476918 	-1.801273968e-06 	3.599961881e-05
0.8214759931 	0.03175588975 	0.01038768151 	-1.076826954e-06 	0.01916483436 	-1.9279012e-06 	3.653350089e-05
0.8243513843 	0.03189778813 	0.01053797732 	-1.113003417e-06 	0.01944607579 	-2.043928434e-06 	3.706962521e-05
0.8271951952 	0.03204076709 	0.01068720583 	-1.138974158e-06 	0.01972886249 	-2.144552769e-06 	3.760869526e-05
0.8300077779 	0.03218470005 	0.01083574968 	-1.153108284e-06 	0.02001389043 	-2.228127501e-06 	3.815203774e-05
0.8327895326 	0.03232913209 	0.01098406754 	-1.155631839e-06 	0.0203019572 	-2.296142105e-06 	3.870117306e-05
0.8355407393 	0.03247339744 	0.01113260917 	-1.148330493e-06 	0.02059383616 	-2.35228217e-06 	3.925757548e-05
0.8382617368 	0.03261672501 	0.01128179579 	-1.133891556e-06 	0.02089029914 	-2.400985468e-06 	3.982271631e-05
0.8409528603 	0.03275836068 	0.01143199669 	-1.115222307e-06 	0.0211921051 	-2.446160762e-06 	4.039804236e-05
0.8436144725 	0.03289773302 	0.01158348955 	-1.094884632e-06 	0.02149994242 	-2.490333187e-06 	4.098486586e-05
0.8462468653 	0.03303461799 	0.01173643638 	-1.074718482e-06 	0.02181438718 	-2.534354072e-06 	4.158428495e-05
0.848850357 	0.03316921497 	0.01189091227 	-1.05561005e-06 	0.02213596443 	-2.577533275e-06 	4.219730057e-05
0.8514252675 	0.03330215703 	0.01204692998 	-1.037467032e-06 	0.02246514448 	-2.618119892e-06 	4.282480925e-05
0.8539719263 	0.03343448844 	0.01220445191 	-1.019288741e-06 	0.02280229031 	-2.653719943e-06 	4.34675029e-05
0.856490637 	0.03356758432 	0.01236339208 	-9.998135796e-07 	0.02314757268 	-2.682562024e-06 	4.412570707e-05
0.8589816959 	0.03370297819 	0.01252363677 	-9.77372675e-07 	0.02350096423 	-2.702785021e-06 	4.479936959e-05
0.8614454083 	0.03384228603 	0.0126851304 	-9.142464261e-07 	0.02386238876 	-2.610840811e-06 	4.548834519e-05
0.8638820763 	0.03398714862 	0.01284791888 	-8.427442743e-07 	0.02423179413 	-2.495376951e-06 	4.619253449e-05
0.8662920105 	0.03413909235 	0.01301214285 	-7.654617283e-07 	0.02460918631 	-2.36478395e-06 	4.691194888e-05
0.8686754868 	0.03429954835 	0.01317804359 	-6.811564833e-07 	0.0249946929 	-2.215586673e-06 	4.764683158e-05
0.8710327965 	0.03446985135 	0.01334596007 	-5.899327399e-07 	0.02538864479 	-2.04626517e-06 	4.839781339e-05
0.8733642276 	0.03465127677 	0.01351629662 	-4.934805687e-07 	0.02579154389 	-1.858347503e-06 	4.916585105e-05
0.8756700675 	0.03484509732 	0.01368949464 	-3.930722793e-07 	0.02620401958 	-1.652866079e-06 	4.995214435e-05
0.8779505993 	0.03505270391 	0.01386603002 	-2.883597257e-07 	0.02662678082 	-1.428236766e-06 	5.075804477e-05
0.8802060927 	0.0352757347 	0.01404644569 	-1.779613069e-07 	0.02706061714 	-1.181594634e-06 	5.158505738e-05
0.8824368228 	0.03551595492 	0.01423134212 	-6.095922839e-08 	0.02750630022 	-9.118280653e-07 	5.243465319e-05
0.8846430618 	0.03577484344 	0.01442129186 	6.167129807e-08 	0.02796430681 	-6.221961815e-07 	5.330774106e-05
0.88682508 	0.03605266797 	0.01461664774 	1.852363106e-07 	0.02843442986 	-3.236227351e-07 	5.420392625e-05
0.8889831442 	0.03634691679 	0.0148171982 	2.991528301e-07 	0.02891532459 	-3.568125814e-08 	5.512064527e-05
0.8911175121 	0.03665018719 	0.01502166735 	3.856085963e-07 	0.02940409037 	2.116960519e-07 	5.60523687e-05
0.8932284436 	0.03694861602 	0.01522717825 	4.211369942e-07 	0.02989557274 	3.701360614e-07 	5.698927068e-05
0.895316196 	0.03722341064 	0.01542911852 	3.867114625e-07 	0.03038181154 	3.867241668e-07 	5.791617699e-05
0.8973810235 	0.03745741465 	0.01562195883 	2.81694887e-07 	0.03085300421 	2.380857751e-07 	5.881440118e-05
0.8994231797 	0.03764450936 	0.01580081323 	1.269560263e-07 	0.03129918451 	-7.228283598e-08 	5.966494483e-05
0.9014429092 	0.03779493684 	0.01596281298 	-4.601246711e-08 	0.03171137025 	-5.216349614e-07 	6.045068541e-05
0.9034404575 	0.03793142412 	0.01610766875 	-2.038871797e-07 	0.03208321769 	-1.040431589e-06 	6.115952999e-05
0.9054160679 	0.03807876987 	0.01623767949 	-3.155342007e-07 	0.03241361067 	-1.514613518e-06 	6.178935083e-05
0.9073699809 	0.03825344387 	0.01635709101 	-3.638872993e-07 	0.03270818976 	-1.833689891e-06 	6.235090045e-05
0.9093024346 	0.03845939865 	0.01647081376 	-3.501126966e-07 	0.03297812015 	-1.932092492e-06 	6.28654628e-05
0.9112136641 	0.03869129306 	0.01658323763 	-2.875743564e-07 	0.03323650143 	-1.816485055e-06 	6.335800934e-05
0.9131039001 	0.03894005228 	0.01669737383 	-1.969205518e-07 	0.03349417276 	-1.553328137e-06 	6.38492025e-05
0.9149733728 	0.03919719889 	0.01681473923 	-9.573240522e-08 	0.03375790052 	-1.212466432e-06 	6.435194092e-05
0.9168223097 	0.03945598507 	0.01693549005 	-3.770170153e-10 	0.0340303173 	-8.615805314e-07 	6.487124301e-05
0.9186509357 	0.03971077945 	0.01705845118 	7.514216802e-08 	0.03431000252 	-5.595684841e-07 	6.540440078e-05
0.9204594736 	0.03995686321 	0.01718154866 	1.255863099e-07 	0.03459265452 	-3.318126855e-07 	6.594321405e-05
0.9222481432 	0.04018973036 	0.01730230891 	1.510021731e-07 	0.03487274144 	-1.802881971e-07 	6.647713757e-05
0.9240171611 	0.04040447365 	0.01741820532 	1.543227272e-07 	0.03514477425 	-9.479103228e-08 	6.69957077e-05