0.1259213289 	-0.01850662526 	-0.01235239363 	4.549624708e-05
0.1262793061 	0 	0 	0
0.1266372716 	0 	0 	0
0.1269952209 	0 	0 	0
0.1273531494 	0 	0 	0
0.1277110527 	0 	0 	0
0.1280689261 	0 	0 	0
0.1284267651 	0 	0 	0
0.1287845652 	0 	0 	0
0.1291423219 	0 	0 	0
0.1295000308 	0 	0 	0
0.1298576873 	0 	0 	0
0.1302152869 	0 	0 	0
0.1305728251 	0 	0 	0
0.1309302976 	0 	0 	0
0.1312876999 	0 	0 	0
0.1316450274 	0 	0 	0
0.1320022759 	0 	0 	0
0.1323594408 	0 	0 	0
0.1327165178 	0 	0 	0
0.1330735024 	0 	0 	0
0.1334303903 	0 	0 	0
0.133787177 	0 	0 	0
0.1341438583 	0 	0 	0
0.1345004297 	0 	0 	0
0.1345200979 	0 	0 	0
0.1348448873 	0 	0 	0
0.1351885373 	0 	0 	0
0.1355320768 	0 	0 	0
0.1358755018 	0 	0 	0
0.1362188085 	0 	0 	0
0.1365619928 	0 	0 	0
0.1370949704 	0 	0 	0
0.1376376367 	0 	0 	0
0.1381901456 	0 	0 	0
0.1387526518 	0 	0 	0
0.1393253109 	0 	0 	0
0.1399082793 	0 	0 	0
0.1405017138 	0 	0 	0
0.1411057722 	0 	0 	0
0.1417206121 	0 	0 	0
0.1423463917 	0 	0 	0
0.1429832692 	0 	0 	0
0.1436314025 	0 	0 	0
0.1442909495 	0 	0 	0
0.1449620674 	0 	0 	0
0.1456449128 	0 	0 	0
0.1463396412 	0 	0 	0
0.1470464072 	0 	0 	0
0.1477653637 	0 	0 	0
0.1484966621 	0 	0 	0
0.1492404515 	0 	0 	0
0.1499968789 	0 	0 	0
0.1507660886 	0 	0 	0
0.1515482218 	0 	0 	0
0.1523434163 	0 	0 	0
0.153154247 	0 	0 	0
0.1540028413 	0 	0 	0
0.1548660003 	0 	0 	0
0.1557439519 	0 	0 	0
0.1566369267 	0 	0 	0
0.1575451583 	0 	0 	0
0.1583510363 	0 	0 	0
0.1584660267 	0 	0 	0
0.1593827974 	0 	0 	0
0.1603152827 	0 	0 	0
0.1612637283 	0 	0 	0
0.1622283831 	0 	0 	0
0.163209499 	0 	0 	0
0.1642073315 	0 	0 	0
0.165222139 	0 	0 	0
0.1662541832 	0 	0 	0
0.1673037291 	0 	0 	0
0.1683710452 	0 	0 	0
0.169456403 	0 	0 	0
0.1705600777 	0 	0 	0
0.1716823477 	0 	0 	0
0.1728234947 	0 	0 	0
0.1739838043 	0 	0 	0
0.1751635651 	0 	0 	0
0.1763630695 	0 	0 	0
0.1775826133 	0 	0 	0
0.1788397014 	0 	0 	0
0.1801389661 	0 	0 	0
0.1814596313 	0 	0 	0
0.1828020077 	0 	0 	0
0.1841485552 	0 	0 	0
0.18416605 	0 	0 	0
0.18552498 	0 	0 	0
0.1869062846 	0 	0 	0
0.1883102904 	0 	0 	0
0.1897373279 	0 	0 	0
0.1911877315 	0 	0 	0
0.1926618398 	0 	0 	0
0.194917909 	0 	0 	0
0.1971907412 	0 	0 	0
0.1994804504 	0 	0 	0
0.2017871531 	0 	0 	0
0.2041725415 	0 	0 	0
0.2065814515 	0 	0 	0
0.2090075945 	0 	0 	0
0.2107981571 	0 	0 	0
0.2114405296 	0 	0 	0
0.2138620629 	0 	0 	0
0.2163013646 	0 	0 	0
0.2187585689 	0 	0 	0
0.2212338133 	0 	0 	0
0.2237272386 	0 	0 	0
0.2262844816 	0 	0 	0
0.2288841363 	0 	0 	0
0.2315022259 	0 	0 	0
0.2341388985 	0 	0 	0
0.2367943064 	0 	0 	0
0.2387190331 	0 	0 	0
0.2394596258 	0 	0 	0
0.2421211125 	0 	0 	0
0.2448020967 	0 	0 	0
0.2475350655 	0 	0 	0
0.2503258165 	0 	0 	0
0.2531363547 	0 	0 	0
0.2559668634 	0 	0 	0
0.2588175317 	0 	0 	0
0.2616885543 	0 	0 	0
0.264580132 	0 	0 	0
0.2675004713 	0 	0 	0
0.2689517363 	0 	0 	0
0.2704904539 	0 	0 	0
0.2734881808 	0 	0 	0
0.2765073236 	0 	0 	0
0.2795481128 	0 	0 	0
0.2826107857 	0 	0 	0
0.2856955875 	0 	0 	0
0.2888351016 	0 	0 	0
0.2920349116 	0 	0 	0
0.2952572244 	0 	0 	0
0.2985023113 	0 	0 	0
0.3017704529 	0 	0 	0
0.3023784211 	0 	0 	0
0.3050417129 	0 	0 	0
0.3083587734 	0 	0 	0
0.3117421337 	0 	0 	0
0.3151496471 	0 	0 	0
0.3185816398 	0 	0 	0
0.3220384482 	0 	0 	0
0.3255204201 	0 	0 	0
0.3290810692 	0 	0 	0
0.3326809016 	0 	0 	0
0.3363064639 	0 	0 	0
0.3399581467 	0 	0 	0
0.3400009082 	0 	0 	0
0.3436167554 	0 	0 	0
0.3473421082 	0 	0 	0
0.3511193483 	0 	0 	0
0.3549242038 	0 	0 	0
0.3587571281 	0 	0 	0
0.3626185895 	0 	0 	0
0.3665578315 	0 	0 	0
0.3705385693 	0 	0 	0
0.3745486816 	0 	0 	0
0.3785886962 	0 	0 	0
0.3826754965 	0 	0 	0
0.3845023008 	0 	0 	0
0.386826837 	0 	0 	0
0.3910032662 	0 	0 	0
0.3952115833 	0 	0 	0
0.3994543048 	0 	0 	0
0.4037823229 	0 	0 	0
0.4081433549 	0 	0 	0
0.4125380618 	0 	0 	0
0.4169684189 	0 	0 	0
0.4214827764 	0 	0 	0
0.4260321037 	0 	0 	0
0.4306171419 	0 	0 	0
0.4352491377 	0 	0 	0
0.4399539769 	0 	0 	0
0.4423479416 	0 	0 	0
0.4446905644 	0 	0 	0
0.4494600003 	0 	0 	0
0.4542945485 	0 	0 	0
0.4591850403 	0 	0 	0
0.4641157131 	0 	0 	0
0.4690937196 	0 	0 	0
0.4741454846 	0 	0 	0
0.4792393223 	0 	0 	0
0.484376213 	0 	0 	0
0.4895867639 	0 	0 	0
0.4948461995 	0 	0 	0
0.500150834 	0 	0 	0
0.5055231693 	0 	0 	0
0.5109512262 	0 	0 	0
0.5164268225 	0 	0 	0
0.5219689509 	0 	0 	0
0.5275693167 	0 	0 	0
0.5332197666 	0 	0 	0
0.5370443662 	0 	0 	0
0.5389372376 	0 	0 	0
0.5447098637 	0 	0 	0
0.5505356794 	0 	0 	0
0.5564344686 	0 	0 	0
0.5623900213 	0 	0 	0
0.5684048535 	0 	0 	0
0.5744913721 	0 	0 	0
0.5805680299 	0 	0 	0
0.5865762445 	0 	0 	0
0.5925167773 	0 	0 	0
0.5983839848 	0 	0 	0
0.6041885817 	0 	0 	0
0.609924862 	0 	0 	0
0.6155918012 	0 	0 	0
0.6211996839 	0 	0 	0
0.6267405924 	0 	0 	0
0.632216296 	0 	0 	0
0.6376339047 	0 	0 	0
0.6429876209 	0 	0 	0
0.6482792542 	0 	0 	0
0.6535142602 	0 	0 	0
0.6586883686 	0 	0 	0
0.6638027592 	0 	0 	0
0.6688625183 	0 	0 	0
0.6738640927 	0 	0 	0
0.6788084956 	0 	0 	0
0.6836992744 	0 	0 	0
0.6885349454 	0 	0 	0
0.6933158242 	0 	0 	0
0.6980440199 	0 	0 	0
0.7027200283 	0 	0 	0
0.7073434376 	0 	0 	0
0.711915207 	0 	0 	0
0.7164374468 	0 	0 	0
0.7209091221 	0 	0 	0
0.7253309727 	0 	0 	0
0.7297043654 	0 	0 	0
0.7340297528 	0 	0 	0
0.7383071582 	0 	0 	0
0.7425372445 	0 	0 	0
0.7467213447 	0 	0 	0
0.7508593764 	0 	0 	0
0.7549517763 	0 	0 	0
0.7589991451 	0 	0 	0
0.7630026057 	0 	0 	0
0.7669620699 	0 	0 	0
0.7708780631 	0 	0 	0
0.7747511348 	0 	0 	0
0.7785821642 	0 	0 	0
0.7823712521 	0 	0 	0
0.7861188721 	0 	0 	0
0.7898255312 	0 	0 	0
0.7934918964 	0 	0 	0
0.7971182852 	0 	0 	0
0.8007050767 	0 	0 	0
0.804252742 	0 	0 	0
0.807761783 	0 	0 	0
0.8112327012 	0 	0 	0
0.8146657788 	0 	0 	0
0.8180614562 	0 	0 	0
0.8184468325 	0 	0 	0
0.821419617 	0 	0 	0
0.8247412418 	0 	0 	0
0.8280267635 	0 	0 	0
0.83127654 	0 	0 	0
0.8344909783 	0 	0 	0
0.8376704786 	0 	0 	0
0.8408154687 	0 	0 	0
0.8439262864 	0 	0 	0
0.8470032886 	0 	0 	0
0.8500468538 	0 	0 	0
0.8530573547 	0 	0 	0
0.8560351715 	0 	0 	0
0.8589806486 	0 	0 	0
0.8618941178 	0 	0 	0
0.8647759328 	0 	0 	0
0.8676264425 	0 	0 	0
0.8704459909 	0 	0 	0
0.8732349262 	0 	0 	0
0.8759935556 	0 	0 	0
0.8787222088 	0 	0 	0
0.8814212137 	0 	0 	0
0.8840908936 	0 	0 	0
0.8867315682 	0 	0 	0
0.8893435546 	0 	0 	0
0.8919271484 	0 	0 	0
0.8944826583 	0 	0 	0
0.8970103891 	0 	0 	0
0.8995106423 	0 	0 	0
0.9019837154 	0 	0 	0
0.9044299033 	0 	0 	0
0.9068494884 	0 	0 	0
0.9092427571 	0 	0 	0
0.9116099941 	0 	0 	0
0.9139514807 	0 	0 	0
0.9162674951 	0 	0 	0
0.9185583122 	0 	0 	0
0.9208242029 	0 	0 	0
0.9230654317 	0 	0 	0
0.9252822647 	0 	0 	0
0.9274749651 	0 	0 	0
0.9296437933 	0 	0 	0
0.9317890067 	0 	0 	0
0.9339108598 	0 	0 	0
0.9360096042 	0 	0 	0
0.9380854865 	0 	0 	0
0.940138753 	0 	0 	0
0.9421696475 	0 	0 	0
0.9434927291 	0 	0 	0
0.9447915204 	0 	0 	0
0.9460664655 	0 	0 	0
0.9473180001 	0 	0 	0
0.9485465523 	0 	0 	0
0.9497525422 	0 	0 	0
0.9509363824 	0 	0 	0
0.9520984777 	0 	0 	0
0.9532392257 	0 	0 	0
0.9543590169 	0 	0 	0
0.9554582347 	0 	0 	0
0.9565372556 	0 	0 	0
0.9575964493 	0 	0 	0
0.9586361788 	0 	0 	0
0.9596568004 	0 	0 	0
0.9606586639 	0 	0 	0
0.9616421128 	0 	0 	0
0.9626074845 	0 	0 	0
0.9635551099 	0 	0 	0
0.9644853143 	0 	0 	0
0.9653984168 	0 	0 	0
0.9662947307 	0 	0 	0
0.9671745637 	0 	0 	0
0.9680382177 	0 	0 	0
0.9688859894 	0 	0 	0
0.9697181699 	0 	0 	0
0.970535045 	0 	0 	0
0.9713368954 	0 	0 	0
0.9721239966 	0 	0 	0
0.9728966191 	0 	0 	0
0.9736550286 	0 	0 	0
0.9743994857 	0 	0 	0
0.9751302464 	0 	0 	0
0.975847562 	0 	0 	0
0.9765516793 	0 	0 	0
0.9772428404 	0 	0 	0
0.9779212832 	0 	0 	0
0.978587241 	0 	0 	0
0.9792409432 	0 	0 	0
0.9798826146 	0 	0 	0
0.9805124762 	0 	0 	0
0.9811307448 	0 	0 	0
0.9817376333 	0 	0 	0
0.9823333508 	0 	0 	0
0.9829181023 	0 	0 	0
0.9834920893 	0 	0 	0
0.9840555095 	0 	0 	0
0.9846085571 	0 	0 	0
0.9851514226 	0 	0 	0
0.9856842931 	0 	0 	0
0.9862073523 	0 	0 	0
0.9867207804 	0 	0 	0
0.9872247546 	0 	0 	0
0.9877194484 	0 	0 	0
0.9882050326 	0 	0 	0
0.9886816745 	0 	0 	0
0.9891495385 	0 	0 	0
0.9896087861 	0 	0 	0
0.9900595756 	0 	0 	0
0.9905020626 	0 	0 	0
0.9907868528 	0 	0 	0
0.9910716487 	0 	0 	0
0.9913564502 	0 	0 	0
0.9916412574 	0 	0 	0
0.9919260701 	0 	0 	0
0.9922108886 	0 	0 	0
0.9924957126 	0 	0 	0
0.9927805423 	0 	0 	0
0.9930653777 	0 	0 	0
0.9933502186 	0 	0 	0
0.9936350652 	0 	0 	0
0.9939199175 	0 	0 	0
0.9942047754 	0 	0 	0
0.9944896389 	0 	0 	0
0.994774508 	0 	0 	0
0.9950593828 	0 	0 	0
0.9953442632 	0 	0 	0
0.9956291493 	0 	0 	0
0.995914041 	0 	0 	0
0.9961989383 	0 	0 	0
0.9964838413 	0 	0 	0
0.9967687499 	0 	0 	0
0.9970536641 	0 	0 	0
0.997338584 	0 	0 	0
0.9976235095 	0 	0 	0
0.9979084407 	0 	0 	0
0.9981933774 	0 	0 	0
0.9984783199 	0 	0 	0
0.9987632679 	0 	0 	0
0.9990482216 	-0.002125340445 	3.709396774e-07 	1.287249606e-10
