0 	0 	0 	0
0.0003212932665 	0 	0 	0
0.0006425861829 	0 	0 	0
0.0009638787488 	0 	0 	0
0.001285170964 	0 	0 	0
0.001606462828 	0 	0 	0
0.00192775434 	0 	0 	0
0.002249045499 	0 	0 	0
0.002570336307 	0 	0 	0
0.002891626762 	0 	0 	0
0.003212916864 	0 	0 	0
0.003534206613 	0 	0 	0
0.003855496009 	0 	0 	0
0.004176785052 	0 	0 	0
0.00449807374 	0 	0 	0
0.004819362076 	0 	0 	0
0.005140650057 	0 	0 	0
0.005461937685 	0 	0 	0
0.005783224959 	0 	0 	0
0.00610451188 	0 	0 	0
0.006425798446 	0 	0 	0
0.00674708466 	0 	0 	0
0.00706837052 	0 	0 	0
0.007389656026 	0 	0 	0
0.00771094118 	0 	0 	0
0.00803222598 	0 	0 	0
0.008353510428 	0 	0 	0
0.008674794524 	0 	0 	0
0.008996078268 	0 	0 	0
0.00931736166 	0 	0 	0
0.0096386447 	0 	0 	0
0.01013784382 	0 	0 	0
0.01064642451 	0 	0 	0
0.01116456308 	0 	0 	0
0.01169243912 	0 	0 	0
0.01223023561 	0 	0 	0
0.012778139 	0 	0 	0
0.01333633918 	0 	0 	0
0.01390502967 	0 	0 	0
0.01448440758 	0 	0 	0
0.01507467376 	0 	0 	0
0.01509462328 	0 	0 	0
0.0156760328 	0 	0 	0
0.01628869316 	0 	0 	0
0.01691286722 	0 	0 	0
0.01754877132 	0 	0 	0
0.01819662591 	0 	0 	0
0.01885665553 	0 	0 	0
0.01952908899 	0 	0 	0
0.02021415937 	0 	0 	0
0.02091383357 	0 	0 	0
0.02162790732 	0 	0 	0
0.02235540062 	0 	0 	0
0.02309656566 	0 	0 	0
0.02385165934 	0 	0 	0
0.0246209434 	0 	0 	0
0.02540468448 	0 	0 	0
0.02620315426 	0 	0 	0
0.02701662949 	0 	0 	0
0.02784539215 	0 	0 	0
0.0286897295 	0 	0 	0
0.02954993419 	0 	0 	0
0.0304263044 	0 	0 	0
0.03131914388 	0 	0 	0
0.0322287621 	0 	0 	0
0.03315547435 	0 	0 	0
0.03409960182 	0 	0 	0
0.03506147177 	0 	0 	0
0.03604141757 	0 	0 	0
0.03703977888 	0 	0 	0
0.03805690174 	0 	0 	0
0.03909313868 	0 	0 	0
0.04014884885 	0 	0 	0
0.04122551531 	0 	0 	0
0.04232554311 	0 	0 	0
0.04344624324 	0 	0 	0
0.04458800415 	0 	0 	0
0.0457512216 	0 	0 	0
0.04693629876 	0 	0 	0
0.04814364639 	0 	0 	0
0.04937368297 	0 	0 	0
0.05062683483 	0 	0 	0
0.05190353633 	0 	0 	0
0.05320422996 	0 	0 	0
0.05452936655 	0 	0 	0
0.05587940538 	0 	0 	0
0.05725481439 	0 	0 	0
0.05865607028 	0 	0 	0
0.06008365872 	0 	0 	0
0.06153889687 	0 	0 	0
0.06302592625 	0 	0 	0
0.06454090062 	0 	0 	0
0.06686661108 	0 	0 	0
0.06921826507 	0 	0 	0
0.07159615198 	0 	0 	0
0.07400056442 	0 	0 	0
0.07643179831 	0 	0 	0
0.07889015281 	0 	0 	0
0.08137593046 	0 	0 	0
0.08389681688 	0 	0 	0
0.08644662745 	0 	0 	0
0.08902488323 	0 	0 	0
0.09163190155 	0 	0 	0
0.0942680033 	0 	0 	0
0.09693351292 	0 	0 	0
0.09962875848 	0 	0 	0
0.102355471 	0 	0 	0
0.1034723224 	0 	0 	0
0.1051193293 	0 	0 	0
0.1079140226 	0 	0 	0
0.1107398951 	0 	0 	0
0.1135972945 	0 	0 	0
0.1164865725 	0 	0 	0
0.1194080849 	0 	0 	0
0.1223629069 	0 	0 	0
0.1253579596 	0 	0 	0
0.1283864287 	0 	0 	0
0.1314486871 	0 	0 	0
0.1345451118 	0 	0 	0
0.1376760841 	0 	0 	0
0.1408419893 	0 	0 	0
0.1440475001 	0 	0 	0
0.1472922521 	0 	0 	0
0.1505732086 	0 	0 	0
0.1538907736 	0 	0 	0
0.1572453555 	0 	0 	0
0.1606373674 	0 	0 	0
0.1640708328 	0 	0 	0
0.167546476 	0 	0 	0
0.171060902 	0 	0 	0
0.1746145435 	0 	0 	0
0.1782078381 	0 	0 	0
0.1818412283 	0 	0 	0
0.1855209962 	0 	0 	0
0.1892431269 	0 	0 	0
0.1930067927 	0 	0 	0
0.1968124572 	0 	0 	0
0.2006605889 	0 	0 	0
0.2045550713 	0 	0 	0
0.2084963619 	0 	0 	0
0.2124816352 	0 	0 	0
0.2165113818 	0 	0 	0
0.220586098 	0 	0 	0
0.2247094769 	0 	0 	0
0.2265534131 	0 	0 	0
0.2288820322 	0 	0 	0
0.2331011525 	0 	0 	0
0.2373673574 	0 	0 	0
0.2416811722 	0 	0 	0
0.2460477287 	0 	0 	0
0.2504643428 	0 	0 	0
0.2549302469 	0 	0 	0
0.259445991 	0 	0 	0
0.2640137526 	0 	0 	0
0.2686363606 	0 	0 	0
0.2733105587 	0 	0 	0
0.2780369227 	0 	0 	0
0.2828162191 	0 	0 	0
0.2876537208 	0 	0 	0
0.292545212 	0 	0 	0
0.2974912951 	0 	0 	0
0.302492579 	0 	0 	0
0.3075541865 	0 	0 	0
0.3126723942 	0 	0 	0
0.3178477247 	0 	0 	0
0.3230812214 	0 	0 	0
0.32837691 	0 	0 	0
0.3337317031 	0 	0 	0
0.3391462598 	0 	0 	0
0.3446226897 	0 	0 	0
0.350162574 	0 	0 	0
0.3557642883 	0 	0 	0
0.3614285223 	0 	0 	0
0.3671587446 	0 	0 	0
0.3729535305 	0 	0 	0
0.3788129912 	0 	0 	0
0.3847390365 	0 	0 	0
0.3907330384 	0 	0 	0
0.3967939386 	0 	0 	0
0.40292275 	0 	0 	0
0.4091223501 	0 	0 	0
0.415391143 	0 	0 	0
0.4217299005 	0 	0 	0
0.4281415507 	0 	0 	0
0.4346249376 	0 	0 	0
0.4411806837 	0 	0 	0
0.4478113283 	0 	0 	0
0.4545162663 	0 	0 	0
0.4612960355 	0 	0 	0
0.4681530281 	0 	0 	0
0.4750867375 	0 	0 	0
0.4765326312 	0 	0 	0
0.4820978659 	0 	0 	0
0.4891887013 	0 	0 	0
0.4963586739 	0 	0 	0
0.5035289548 	0 	0 	0
0.5106210553 	0 	0 	0
0.5176348988 	0 	0 	0
0.524571751 	0 	0 	0
0.5314326313 	0 	0 	0
0.5382178046 	0 	0 	0
0.5449284847 	0 	0 	0
0.5515655 	0 	0 	0
0.5581292774 	0 	0 	0
0.56462091 	0 	0 	0
0.5710412155 	0 	0 	0
0.5773906735 	0 	0 	0
0.5836702305 	0 	0 	0
0.5898807815 	0 	0 	0
0.596022799 	0 	0 	0
0.6020970845 	0 	0 	0
0.6081046371 	0 	0 	0
0.6140458957 	0 	0 	0
0.6199215913 	0 	0 	0
0.6257326483 	0 	0 	0
0.6314796341 	0 	0 	0
0.6371632004 	0 	0 	0
0.6427841045 	0 	0 	0
0.6483431106 	0 	0 	0
0.6538407712 	0 	0 	0
0.6592777631 	0 	0 	0
0.6646548492 	0 	0 	0
0.6699726393 	0 	0 	0
0.6752317453 	0 	0 	0
0.6804328147 	0 	0 	0
0.6855765764 	0 	0 	0
0.690663582 	0 	0 	0
0.6956944499 	0 	0 	0
0.7006697996 	0 	0 	0
0.7055903096 	0 	0 	0
0.71045652 	0 	0 	0
0.7152690291 	0 	0 	0
0.7200284294 	0 	0 	0
0.7247353465 	0 	0 	0
0.7293903257 	0 	0 	0
0.7339939345 	0 	0 	0
0.7385467395 	0 	0 	0
0.7430493185 	0 	0 	0
0.7475022216 	0 	0 	0
0.7519059841 	0 	0 	0
0.7562611482 	0 	0 	0
0.760568251 	0 	0 	0
0.7648278404 	0 	0 	0
0.7690404224 	0 	0 	0
0.7732065157 	0 	0 	0
0.7773266334 	0 	0 	0
0.781401286 	0 	0 	0
0.7854309805 	0 	0 	0
0.7894162045 	0 	0 	0
0.7933574489 	0 	0 	0
0.7972551988 	0 	0 	0
0.801109936 	0 	0 	0
0.8049221386 	0 	0 	0
0.8086922709 	0 	0 	0
0.8124207971 	0 	0 	0
0.8161081764 	0 	0 	0
0.8197548627 	0 	0 	0
0.8233613088 	0 	0 	0
0.8269279554 	0 	0 	0
0.8304552415 	0 	0 	0
0.8339436015 	0 	0 	0
0.8373934648 	0 	0 	0
0.8408052569 	0 	0 	0
0.8441793988 	0 	0 	0
0.8475163046 	0 	0 	0
0.8508163852 	0 	0 	0
0.8540800469 	0 	0 	0
0.8573076917 	0 	0 	0
0.8604997173 	0 	0 	0
0.8636565172 	0 	0 	0
0.8667784796 	0 	0 	0
0.8698659887 	0 	0 	0
0.8729194249 	0 	0 	0
0.8759391641 	0 	0 	0
0.8789255782 	0 	0 	0
0.8818790354 	0 	0 	0
0.884799899 	0 	0 	0
0.8876885287 	0 	0 	0
0.8905452802 	0 	0 	0
0.8933705053 	0 	0 	0
0.8961645519 	0 	0 	0
0.8989277641 	0 	0 	0
0.9016604823 	0 	0 	0
0.9043630429 	0 	0 	0
0.9070357788 	0 	0 	0
0.909679019 	0 	0 	0
0.912293089 	0 	0 	0
0.9148783108 	0 	0 	0
0.9174350027 	0 	0 	0
0.9199634796 	0 	0 	0
0.9224640529 	0 	0 	0
0.9249370305 	0 	0 	0
0.9273827169 	0 	0 	0
0.9298014133 	0 	0 	0
0.9321934175 	0 	0 	0
0.9337515725 	0 	0 	0
0.9352809823 	0 	0 	0
0.9367821771 	0 	0 	0
0.9382556774 	0 	0 	0
0.9397019943 	0 	0 	0
0.941121629 	0 	0 	0
0.942515074 	0 	0 	0
0.9438828123 	0 	0 	0
0.9452253182 	0 	0 	0
0.9465430572 	0 	0 	0
0.9478364862 	0 	0 	0
0.9491060536 	0 	0 	0
0.9503521998 	0 	0 	0
0.9515753567 	0 	0 	0
0.9527759484 	0 	0 	0
0.9539543913 	0 	0 	0
0.955111094 	0 	0 	0
0.9562464575 	0 	0 	0
0.9573608755 	0 	0 	0
0.9584547344 	0 	0 	0
0.9595284136 	0 	0 	0
0.9605822851 	0 	0 	0
0.9616167146 	0 	0 	0
0.9626320607 	0 	0 	0
0.9636286753 	0 	0 	0
0.9646069042 	0 	0 	0
0.9655670864 	0 	0 	0
0.9665095549 	0 	0 	0
0.9674346365 	0 	0 	0
0.968342652 	0 	0 	0
0.9692339161 	0 	0 	0
0.9701087379 	0 	0 	0
0.9709674208 	0 	0 	0
0.9718102625 	0 	0 	0
0.9726375552 	0 	0 	0
0.9734495857 	0 	0 	0
0.9742466358 	0 	0 	0
0.9750289816 	0 	0 	0
0.9757968945 	0 	0 	0
0.9765506407 	0 	0 	0
0.9772904816 	0 	0 	0
0.9780166737 	0 	0 	0
0.9787294689 	0 	0 	0
0.9794291141 	0 	0 	0
0.9801158522 	0 	0 	0
0.9807899211 	0 	0 	0
0.9814515546 	0 	0 	0
0.9821009821 	0 	0 	0
0.9827384288 	0 	0 	0
0.9833641157 	0 	0 	0
0.9839782598 	0 	0 	0
0.984581074 	0 	0 	0
0.9851727673 	0 	0 	0
0.9857535448 	0 	0 	0
0.986323608 	0 	0 	0
0.9868831546 	0 	0 	0
0.9874323785 	0 	0 	0
0.9879714701 	0 	0 	0
0.9885006164 	0 	0 	0
0.9890200009 	0 	0 	0
0.989354275 	0 	0 	0
0.989688549 	0 	0 	0
0.990022823 	0 	0 	0
0.990357097 	0 	0 	0
0.990691371 	0 	0 	0
0.9910256451 	0 	0 	0
0.9913599191 	0 	0 	0
0.9916941931 	0 	0 	0
0.9920284671 	0 	0 	0
0.9923627412 	0 	0 	0
0.9926970152 	0 	0 	0
0.9930312892 	0 	0 	0
0.9933655632 	0 	0 	0
0.9936998372 	0 	0 	0
0.9940341113 	0 	0 	0
0.9943683853 	0 	0 	0
0.9947026593 	0 	0 	0
0.9950369333 	0 	0 	0
0.9953712073 	0 	0 	0
0.9957054814 	0 	0 	0
0.9960397554 	0 	0 	0
0.9963740294 	0 	0 	0
0.9967083034 	0 	0 	0
0.9970425775 	0 	0 	0
0.9973768515 	0 	0 	0
0.9977111255 	0 	0 	0
0.9980453995 	0 	0 	0
0.9983796735 	0 	0 	0
0.9987139476 	0 	0 	0
0.9990482216 	54.58216 	-0.0007945395599 	-4.127516386e-08
