0.1783438654 	3.706461183e-06 	-3.987527252e-08 	-6.171609653e-13 	3.613927027e-06 	1.576224278e-10 	6.889149352e-09
0.1786309848 	7.832260314e-05 	-3.688691918e-06 	6.430397201e-10 	7.027671509e-05 	-6.697600518e-09 	1.339669514e-07
0.1789181097 	0.0005415090438 	-5.526796692e-05 	1.057946001e-08 	0.000422013253 	-4.147136772e-08 	8.044745528e-07
0.1792052371 	0.001985762411 	-0.000310310976 	3.792165772e-08 	0.001316322803 	-5.97911684e-08 	2.509277115e-06
0.1794923643 	0.004768985217 	-0.0009476737131 	2.148475475e-09 	0.002729812948 	1.363285059e-07 	5.203782192e-06
0.1797794886 	0.008462181738 	-0.001921152485 	-3.551968518e-07 	0.004343273217 	6.453575081e-07 	8.279485902e-06
0.1800666071 	0.01203325852 	-0.002846476055 	-1.093591434e-06 	0.005940466722 	1.374274315e-06 	1.132418064e-05
0.1803537171 	0.01484677358 	-0.00351405817 	-1.906031339e-06 	0.007325968496 	2.397989645e-06 	1.39653321e-05
0.1806408159 	0.01681907997 	-0.003984599548 	-2.684067098e-06 	0.008302742352 	3.694921844e-06 	1.582733455e-05
0.1809279006 	0.01794410199 	-0.004259401739 	-3.484516336e-06 	0.008863613293 	5.057898746e-06 	1.689651045e-05
0.1812149686 	0.01833061329 	-0.004361016575 	-4.236445346e-06 	0.009063368289 	6.312872861e-06 	1.727729899e-05
0.181502017 	0.01814381042 	-0.004326434376 	-4.823648027e-06 	0.008992137637 	7.284290217e-06 	1.714151357e-05
0.1817890432 	0.01755455321 	-0.004196008572 	-5.131006185e-06 	0.00873669924 	7.859884338e-06 	1.665457699e-05
0.1820760443 	0.01673379279 	-0.004013109824 	-5.09957249e-06 	0.008377239897 	7.934332773e-06 	1.596934758e-05
0.1823630177 	0.01583698098 	-0.003819043058 	-4.709146175e-06 	0.007991124975 	7.317998067e-06 	1.523330522e-05
0.1826499607 	0.01497975069 	-0.003646159423 	-3.953874158e-06 	0.007648354268 	5.853360678e-06 	1.457988898e-05
0.1829368704 	0.01417538018 	-0.003459448373 	-4.316539948e-06 	0.007431278415 	2.858937232e-06 	1.416608208e-05
0.1832237443 	0.01337771546 	-0.003187370948 	-6.047198968e-06 	0.00739935244 	-1.281273676e-06 	1.41052223e-05
0.1835105795 	0.01263023939 	-0.002865235669 	-6.324588273e-06 	0.007517720682 	-4.664285396e-06 	1.433086506e-05
0.1837973734 	0.01201131644 	-0.002577595784 	-5.230750156e-06 	0.007719173627 	-7.27479721e-06 	1.471489037e-05
0.1840841232 	0.01152979943 	-0.002343635883 	-4.382005556e-06 	0.00796935194 	-9.750301002e-06 	1.519179976e-05
0.1843708264 	0.01116059143 	-0.002150907201 	-3.730750398e-06 	0.008253880792 	-1.209020504e-05 	1.573419084e-05
0.1846574801 	0.01088017803 	-0.001991319434 	-3.136022966e-06 	0.008564338004 	-1.426699646e-05 	1.632600857e-05
0.1849440817 	0.01066809738 	-0.001858934803 	-2.575500566e-06 	0.008892126754 	-1.61947644e-05 	1.695086503e-05
0.1852306285 	0.01050816388 	-0.001749055238 	-2.055426031e-06 	0.009229106353 	-1.794557473e-05 	1.759324181e-05
0.1855171178 	0.01038735748 	-0.001657681325 	-1.576461478e-06 	0.009569493108 	-1.957828786e-05 	1.824211357e-05
0.185803547 	0.01029567982 	-0.001581529158 	-1.136171438e-06 	0.009909638489 	-2.109997226e-05 	1.88905252e-05
0.1860899134 	0.01022519257 	-0.001517998793 	-7.170745824e-07 	0.01024708977 	-2.212100451e-05 	1.953380113e-05
0.1863762143 	0.0101697184 	-0.001465140769 	-3.291072562e-07 	0.01058026591 	-2.22784874e-05 	2.016892745e-05
0.1866624471 	0.0101240866 	-0.001420994137 	2.103660105e-09 	0.01090844894 	-2.229535437e-05 	2.079453553e-05
0.1869486091 	0.01008199374 	-0.001382644842 	3.091569625e-07 	0.0112739152 	-2.226373092e-05 	2.149121579e-05
0.1873930922 	0.01003462832 	-0.001343344821 	6.166666357e-07 	0.01171123766 	-2.18520771e-05 	2.232487396e-05
0.1878457368 	0.009982693046 	-0.001304748319 	8.844102658e-07 	0.01217165007 	-2.127357018e-05 	2.320254797e-05
0.1883066783 	0.009929863865 	-0.001272294761 	1.080155405e-06 	0.01260914665 	-2.052317725e-05 	2.403653805e-05
0.1887760532 	0.009873216265 	-0.00124402441 	1.218863723e-06 	0.01302351575 	-1.963578876e-05 	2.482644073e-05
0.1892539993 	0.009811378083 	-0.001219042717 	1.3125906e-06 	0.01341518214 	-1.864254858e-05 	2.557306572e-05
0.1897406558 	0.009743629144 	-0.001196679672 	1.370665428e-06 	0.01378493049 	-1.756903379e-05 	2.627790883e-05
0.1902361626 	0.009669695087 	-0.001176319359 	1.394676644e-06 	0.0141332974 	-1.642214192e-05 	2.6941993e-05
0.1907406609 	0.009590154925 	-0.001157180647 	1.364923546e-06 	0.01445905623 	-1.510763625e-05 	2.756297986e-05
0.1912542927 	0.009508336334 	-0.001135777643 	1.156894937e-06 	0.01474905524 	-1.305126022e-05 	2.811579858e-05
0.191777201 	0.009423785625 	-0.001113517714 	8.450456855e-07 	0.01500973831 	-1.052493665e-05 	2.861273297e-05
0.1923095293 	0.009345749927 	-0.001082934829 	5.921810526e-07 	0.01520331485 	-8.205718359e-06 	2.898174365e-05
0.1928514221 	0.009276208413 	-0.001044698333 	4.064123816e-07 	0.01533011012 	-6.149647336e-06 	2.922345067e-05
0.1934030241 	0.00921303295 	-0.001004352729 	3.475083782e-07 	0.01540997383 	-4.733423861e-06 	2.93756931e-05
0.1939644807 	0.009159648451 	-0.0009614879089 	3.762787348e-07 	0.01543678189 	-3.857398688e-06 	2.942679671e-05
0.1945359374 	0.009110109078 	-0.0009236898135 	3.965160808e-07 	0.01544734059 	-3.09700627e-06 	2.944692453e-05
0.1951175399 	0.009063677437 	-0.0008921257829 	3.884563589e-07 	0.01544871855 	-2.394522016e-06 	2.944955131e-05
0.195709434 	0.009020585072 	-0.0008667478317 	3.478464877e-07 	0.01544208465 	-1.75002819e-06 	2.943690525e-05
0.1963117652 	0.00898072843 	-0.0008470503616 	2.747927781e-07 	0.01542843335 	-1.16088087e-06 	2.941088208e-05
0.1969246789 	0.008944084552 	-0.000832504085 	1.706254229e-07 	0.01540900557 	-6.206199696e-07 	2.937384732e-05
0.1975483196 	0.008910574445 	-0.000822540267 	3.807594866e-08 	0.01538501084 	-1.219301777e-07 	2.932810671e-05
0.1977099383 	0.008902813908 	-0.000821058354 	5.597576255e-08 	0.01537794248 	-7.361341232e-07 	2.931463244e-05
0.198177056 	0.00888010083 	-0.000817251434 	8.707484949e-08 	0.01535658212 	-3.643391843e-07 	2.927391365e-05
0.198814728 	0.008852383868 	-0.0008154290237 	2.262955553e-07 	0.01532542893 	-8.242979099e-07 	2.921452703e-05
0.1994634536 	0.008827100544 	-0.0008161951122 	3.876259631e-07 	0.01529272256 	-1.255537078e-06 	2.915217959e-05
0.2001233747 	0.00880388917 	-0.0008189588644 	5.671425833e-07 	0.01525910555 	-1.663580701e-06 	2.908809623e-05
0.2007966969 	0.008782250849 	-0.0008232675374 	7.615998303e-07 	0.01522479704 	-2.054119156e-06 	2.902269466e-05
0.2015021159 	0.008761832734 	-0.0008287362339 	9.724956418e-07 	0.01519003075 	-2.442255708e-06 	2.895642046e-05
0.2022199664 	0.008742478186 	-0.0008349474717 	1.191783827e-06 	0.01515537884 	-2.818597792e-06 	2.889036429e-05
0.2029504546 	0.008724072454 	-0.0008415254715 	1.416591872e-06 	0.01512134725 	-3.185952923e-06 	2.882549061e-05
0.2036937895 	0.008706400235 	-0.0008482329769 	1.64508153e-06 	0.01508810595 	-3.545875512e-06 	2.876212347e-05
0.2044501833 	0.008689260276 	-0.0008548670604 	1.87614259e-06 	0.01505575042 	-3.899291021e-06 	2.870044483e-05
0.2052198512 	0.008672498149 	-0.0008612854442 	2.109294781e-06 	0.01502433778 	-4.246658716e-06 	2.864056361e-05
0.2060030118 	0.00865599385 	-0.0008673890266 	2.34455459e-06 	0.01499389255 	-4.588112327e-06 	2.858252654e-05
0.2067998865 	0.008639656867 	-0.0008731134861 	2.582296585e-06 	0.01496441449 	-4.923581449e-06 	2.852633316e-05
0.2076107001 	0.008623421833 	-0.0008784220817 	2.823123477e-06 	0.01493588663 	-5.252885471e-06 	2.847195113e-05
0.2084356808 	0.008607243934 	-0.0008832991422 	3.067754102e-06 	0.01490828109 	-5.575800745e-06 	2.841932731e-05
0.2092750599 	0.008591094718 	-0.0008877446265 	3.316934922e-06 	0.01488156343 	-5.892105139e-06 	2.836839602e-05
0.2101290719 	0.008574958501 	-0.0008917697562 	3.111872699e-06 	0.01485569591 	-5.403688025e-06 	2.831908532e-05
0.210997955 	0.008558829383 	-0.0008953935773 	2.884868563e-06 	0.01483063993 	-4.896924554e-06 	2.827132167e-05
0.2118819506 	0.008542708831 	-0.0008986403396 	2.652825416e-06 	0.01480635784 	-4.401196082e-06 	2.822503326e-05
0.2127813036 	0.008526603799 	-0.000901537567 	2.41562687e-06 	0.01478281413 	-3.916161622e-06 	2.81801524e-05
0.2136962623 	0.008510525311 	-0.0009041147018 	2.173034265e-06 	0.01475997623 	-3.441574913e-06 	2.813661702e-05
0.2146270787 	0.008494487455 	-0.0009064022173 	1.924748265e-06 	0.01473781509 	-2.977249393e-06 	2.809437172e-05
0.2155740083 	0.008478506554 	-0.0009084309704 	1.670451298e-06 	0.01471630523 	-2.523034481e-06 	2.805336795e-05
0.2165373102 	0.008462600362 	-0.0009102316461 	1.409834663e-06 	0.01469542458 	-2.078803643e-06 	2.801356363e-05
0.2175172471 	0.00844678818 	-0.0009118351616 	1.142614806e-06 	0.01467515489 	-1.644446173e-06 	2.797492396e-05
0.2185140857 	0.008431090335 	-0.0009132728865 	8.685378541e-07 	0.01465548003 	-1.219860606e-06 	2.793741822e-05
0.219528096 	0.008415517675 	-0.000914568173 	5.873724812e-07 	0.01463637456 	-8.049518225e-07 	2.790099788e-05
0.2205595522 	0.008400085157 	-0.0009157471563 	2.989233548e-07 	0.01461781806 	-3.996524218e-07 	2.786562403e-05
0.2216087322 	0.008384794078 	-0.0009168869426 	2.999546622e-09 	0.01459976529 	-3.911626669e-09 	2.783121043e-05
0.2216193344 	0.008384645003 	-0.0009168979823 	-1.566480158e-09 	0.01459959202 	-3.414962178e-08 	2.783088013e-05
0.2226804039 	0.008369406094 	-0.0009184297494 	2.83364515e-07 	0.01458121293 	-3.973842184e-07 	2.779584448e-05
0.2237888356 	0.00835405287 	-0.0009199126761 	5.820166384e-07 	0.01456299403 	-7.960470522e-07 	2.776111419e-05
0.2249161825 	0.008338883686 	-0.0009213937129 	8.885529272e-07 	0.01454522614 	-1.184981841e-06 	2.772724365e-05
0.2260627418 	0.008324021591 	-0.0009228959404 	1.203217927e-06 	0.01452804757 	-1.564257743e-06 	2.769449653e-05
0.2272288148 	0.008309473542 	-0.0009244229886 	1.526250802e-06 	0.01451146299 	-1.933896791e-06 	2.766288171e-05
0.2284147069 	0.008295241136 	-0.0009259757829 	1.857888379e-06 	0.01449546631 	-2.293885274e-06 	2.76323876e-05
0.2296207278 	0.008281359548 	-0.0009275773693 	2.198389529e-06 	0.01448009646 	-2.644220732e-06 	2.760308838e-05
0.2308471917 	0.00826782938 	-0.0009292340572 	2.547954327e-06 	0.01446533259 	-2.984780811e-06 	2.757494435e-05
0.2320944168 	0.008254411956 	-0.0009307651142 	2.906713776e-06 	0.01445090845 	-3.315326972e-06 	2.754744792e-05
0.233362726 	0.008241387982 	-0.0009324357582 	3.275599471e-06 	0.01443698954 	-3.635439867e-06 	2.752091462e-05
0.2346524466 	0.008227563383 	-0.0009352887504 	3.320840554e-06 	0.0144222866 	-3.580007537e-06 	2.749288674e-05
0.2366276474 	0.008211767211 	-0.0009374239769 	2.81791443e-06 	0.01440727598 	-2.920524983e-06 	2.746427231e-05
0.2386191471 	0.008194413093 	-0.0009396043223 	2.304596145e-06 	0.01439105282 	-2.292718167e-06 	2.743334646e-05
0.240627077 	0.008178146708 	-0.0009418203331 	1.779327511e-06 	0.01437656156 	-1.69864494e-06 	2.740572208e-05
0.2426515706 	0.008163152892 	-0.0009442565784 	1.241750436e-06 	0.01436422445 	-1.137350521e-06 	2.738220414e-05
0.2447475868 	0.008149011615 	-0.0009465019413 	6.764214673e-07 	0.01435380636 	-5.93813105e-07 	2.736234436e-05
0.2468661807 	0.008135672295 	-0.0009485831324 	9.683716708e-08 	0.0143451428 	-8.144579034e-08 	2.73458292e-05
0.2472182194 	0.008133663563 	-0.0009489233898 	-5.277069145e-08 	0.01434403022 	-8.601691729e-07 	2.734370832e-05
0.2489867295 	0.008123472845 	-0.0009511072477 	4.686872674e-07 	0.0143372117 	-4.150310235e-07 	2.733071032e-05
0.2511215216 	0.008112366484 	-0.0009535944058 	1.041260238e-06 	0.01433105193 	-8.851506779e-07 	2.73189681e-05
0.2532736824 	0.008102274219 	-0.0009558955017 	1.626087227e-06 	0.0143268607 	-1.326685899e-06 	2.731097844e-05
0.2554433585 	0.008093170953 	-0.0009579951503 	2.223108566e-06 	0.01432463263 	-1.740355431e-06 	2.730673112e-05
0.2576306994 	0.008085028565 	-0.0009598768294 	2.832239254e-06 	0.01432435703 	-2.126784457e-06 	2.730620575e-05
0.2598358573 	0.008077798837 	-0.0009615137199 	3.453488875e-06 	0.01432599462 	-2.486534174e-06 	2.730932745e-05
0.2620589875 	0.008071510431 	-0.0009630026124 	3.241124046e-06 	0.01432959287 	-2.236454262e-06 	2.731618671e-05
0.2643412975 	0.008066121443 	-0.0009641980348 	2.666667102e-06 	0.01433536221 	-1.761502703e-06 	2.732718468e-05
0.2666636301 	0.008061507805 	-0.0009650291389 	2.074458552e-06 	0.01434316556 	-1.310559659e-06 	2.734206003e-05
0.2690044075 	0.008057787264 	-0.0009655964521 	1.470328058e-06 	0.01435298388 	-8.881397818e-07 	2.736077647e-05
0.2713637933 	0.008055045393 	-0.0009658951243 	8.542873569e-07 	0.01436496101 	-4.930313935e-07 	2.738360821e-05
0.2737419551 	0.008053123609 	-0.0009658780883 	2.264802385e-07 	0.01437887323 	-1.247052274e-07 	2.741012878e-05
0.2745958917 	0.00805274896 	-0.0009657815487 	-9.141905757e-08 	0.01438447781 	-1.588608185e-06 	2.742081267e-05
0.2761284299 	0.00805221083 	-0.0009659873438 	3.914280771e-07 	0.01439371635 	-2.33195725e-07 	2.743842388e-05
0.2785282274 	0.008052306835 	-0.0009660007722 	1.009289166e-06 	0.01441005386 	-5.755528744e-07 	2.746956773e-05
0.2809474335 	0.008053319045 	-0.0009657344582 	1.639022093e-06 	0.0144284415 	-8.940707709e-07 	2.750461968e-05
0.2834156804 	0.008055270936 	-0.000965104353 	2.288268137e-06 	0.01444912853 	-1.192741293e-06 	2.75440549e-05
0.2859383954 	0.008058031357 	-0.000963957031 	2.958082092e-06 	0.01447208311 	-1.47161587e-06 	2.758781272e-05
0.2884810233 	0.00806157484 	-0.0009624000101 	3.639135693e-06 	0.01449704565 	-1.726722173e-06 	2.763539825e-05
0.2910437586 	0.008065963272 	-0.0009604593811 	3.28174767e-06 	0.01452403319 	-1.484135043e-06 	2.768684401e-05
0.2936268003 	0.00807116276 	-0.0009580964427 	2.659248481e-06 	0.01455304588 	-1.145417902e-06 	2.774215025e-05
0.2962303525 	0.008077126171 	-0.0009552890225 	2.025557792e-06 	0.01458403146 	-8.303364643e-07 	2.780121738e-05
0.2988546242 	0.008083817083 	-0.0009520280448 	1.380934499e-06 	0.01461695469 	-5.382977535e-07 	2.786397821e-05
0.3015071491 	0.00809137248 	-0.0009483882818 	7.236285181e-07 	0.01465208976 	-2.679580648e-07 	2.793095541e-05
0.3042385563 	0.008099769191 	-0.0009440729821 	4.105904094e-08 	0.01468980633 	-1.441651715e-08 	2.800285368e-05
0.3044030552 	0.008100318102 	-0.0009437867834 	-6.298753091e-09 	0.01469218005 	-2.287198136e-07 	2.800737866e-05
0.3069777986 	0.008109342687 	-0.0009397819853 	6.226501468e-07 	0.01472825835 	-2.463660188e-07 	2.807615392e-05
0.3097378333 	0.008119723628 	-0.0009350574394 	1.294584181e-06 	0.01476856565 	-4.885790186e-07 	2.815299084e-05
0.3125197515 	0.008130879439 	-0.0009298064145 	1.976233234e-06 	0.0148108908 	-7.110908606e-07 	2.823367434e-05
0.3153237939 	0.008142713286 	-0.0009239787221 	2.667300972e-06 	0.01485512453 	-9.146005319e-07 	2.831799612e-05
0.3181502078 	0.008155299872 	-0.0009176452296 	3.367532613e-06 	0.01490136813 	-1.099809829e-06 	2.840614928e-05
0.321029074 	0.008168763006 	-0.0009106890783 	3.842688373e-06 	0.01495005609 	-1.194205181e-06 	2.849896205e-05
0.3239656974 	0.008182969947 	-0.0009029300665 	3.18351833e-06 	0.01500117149 	-9.405347801e-07 	2.859640222e-05
0.3269252817 	0.008197829618 	-0.0008945291207 	2.515822931e-06 	0.01505428699 	-7.062850682e-07 	2.869765513e-05
0.3299080977 	0.008213393346 	-0.0008855439332 	1.839847796e-06 	0.01510935923 	-4.906073832e-07 	2.880263813e-05
0.3329144238 	0.008229594044 	-0.0008758992007 	1.156033723e-06 	0.0151663563 	-2.927008485e-07 	2.891129037e-05
0.3359445461 	0.008246466239 	-0.0008656393284 	4.647974435e-07 	0.01522532341 	-1.116982087e-07 	2.902369807e-05
0.3379814723 	0.008258208532 	-0.0008584067669 	3.926856781e-08 	0.01526593567 	-1.089339354e-06 	2.910111633e-05
0.3390189598 	0.008264369109 	-0.0008548597403 	2.305246647e-07 	0.01528627937 	-6.509560972e-08 	2.913989709e-05
0.3421483435 	0.008283418726 	-0.0008435099299 	9.240732906e-07 	0.01534886547 	-2.497192348e-07 	2.925920359e-05
0.345302372 	0.00830308709 	-0.0008313756647 	1.623560835e-06 	0.01541343941 	-4.200366747e-07 	2.938229947e-05
0.3484813625 	0.008323426629 	-0.0008185521444 	2.328443353e-06 	0.01547990805 	-5.769348352e-07 	2.950900717e-05
0.3516856411 	0.008344345568 	-0.0008049292351 	3.03826539e-06 	0.01554822497 	-7.214001512e-07 	2.963923821e-05
0.3549155431 	0.008365998146 	-0.0007906118186 	3.752548815e-06 	0.01561861251 	-8.542976394e-07 	2.977341641e-05
0.3582209652 	0.008388510835 	-0.0007752727368 	3.733299747e-06 	0.01569165991 	-8.149614204e-07 	2.991266507e-05
0.3615652749 	0.008411618873 	-0.000758872433 	3.057662609e-06 	0.0157669153 	-6.406588578e-07 	3.005612275e-05
0.3649359601 	0.008435325705 	-0.0007416714012 	2.378289006e-06 	0.01584400418 	-4.787752703e-07 	3.020307558e-05
0.3683333932 	0.00845959844 	-0.000723580211 	1.695719481e-06 	0.01592291803 	-3.284299998e-07 	3.035350731e-05
0.3717579577 	0.008484532879 	-0.0007046548613 	1.010516082e-06 	0.01600380559 	-1.885598164e-07 	3.050770149e-05
0.3752473145 	0.008510277799 	-0.0006846281056 	3.153613533e-07 	0.01608721646 	-5.675852221e-08 	3.066670578e-05
0.3768453004 	0.008522204989 	-0.0006750520718 	2.286869607e-07 	0.01612590524 	-1.244900373e-06 	3.074045735e-05
0.3787812557 	0.008536994562 	-0.000663662965 	3.714753167e-07 	0.01617227401 	-8.353150775e-08 	3.082884912e-05
0.3823383014 	0.008564574275 	-0.0006419579693 	1.047156892e-06 	0.01625864059 	-2.294567324e-07 	3.099348782e-05
0.385923978 	0.008592695278 	-0.0006192218953 	1.722275269e-06 	0.01634675331 	-3.684747642e-07 	3.116145516e-05
0.3895387241 	0.008621512513 	-0.0005955031929 	2.396184486e-06 	0.01643687421 	-5.015304977e-07 	3.133325064e-05
0.3932287925 	0.008651162791 	-0.0005704241741 	3.076930148e-06 	0.01652957332 	-6.311281481e-07 	3.150996091e-05
0.3969602753 	0.00868139392 	-0.0005439438074 	3.755989647e-06 	0.01662439955 	-7.569199796e-07 	3.169072606e-05
0.4007218029 	0.008712153557 	-0.0005163259403 	3.857413629e-06 	0.01672091752 	-7.655778149e-07 	3.187471614e-05
0.4045138648 	0.008743517169 	-0.000487536978 	3.218675581e-06 	0.01681923745 	-6.307709485e-07 	3.206214125e-05
0.4083523342 	0.008775637667 	-0.0004574216442 	2.579958709e-06 	0.01691976495 	-5.005215585e-07 	3.22537746e-05
0.4122614271 	0.008808492826 	-0.0004256385108 	1.938658935e-06 	0.01702269711 	-3.733260162e-07 	3.24499919e-05
0.4162021298 	0.008841893994 	-0.0003923765928 	1.303343054e-06 	0.01712744829 	-2.499143645e-07 	3.264967676e-05
0.4201749888 	0.008875817212 	-0.0003577437218 	6.746552849e-07 	0.01723377757 	-1.291963779e-07 	3.285236993e-05
0.4241823718 	0.008910483502 	-0.0003216768337 	5.292981885e-08 	0.01734210263 	-1.015384504e-08 	3.30588676e-05
0.42453075 	0.008913511056 	-0.0003184423909 	9.978036503e-08 	0.017351546 	-1.993921316e-07 	3.307686929e-05
0.4282650768 	0.00894651561 	-0.0002841223448 	5.486365538e-07 	0.01745209854 	-1.31366411e-07 	3.326855037e-05
0.4323807078 	0.008983148177 	-0.0002447478317 	1.138370021e-06 	0.01756385212 	-2.739457846e-07 	3.348158377e-05
0.4365305639 	0.009020296153 	-0.000203751864 	1.717414169e-06 	0.01767706956 	-4.163823134e-07 	3.369740767e-05
0.4407164899 	0.009058210839 	-0.0001610145562 	2.285124263e-06 	0.01779220951 	-5.596063004e-07 	3.391689641e-05
0.444984256 	0.009096980758 	-0.0001160061134 	2.8467068e-06 	0.01790968573 	-7.058707577e-07 	3.414083875e-05
0.4492876033 	0.009136307368 	-6.877563431e-05 	3.393128315e-06 	0.01802882391 	-8.543944089e-07 	3.436794923e-05
0.4536272051 	0.009176219451 	-1.961597839e-05 	3.923495989e-06 	0.0181493415 	-1.005625316e-06 	3.459768926e-05
0.4580136809 	0.009216962508 	3.177041071e-05 	3.50323924e-06 	0.01827171335 	-9.163146307e-07 	3.483096401e-05
0.462471639 	0.009258519921 	8.582807744e-05 	2.970392907e-06 	0.01839604021 	-7.948714123e-07 	3.506796555e-05
0.4669673713 	0.009300665128 	0.0001424463127 	2.451889064e-06 	0.01852170053 	-6.730449347e-07 	3.530750905e-05
0.471501625 	0.009343534231 	0.0002014346555 	1.948280325e-06 	0.01864865411 	-5.498306552e-07 	3.554951785e-05
0.4760997355 	0.009387338262 	0.0002633074845 	1.45741737e-06 	0.01877732063 	-4.238693845e-07 	3.5794792e-05
0.4807530769 	0.009431895223 	0.0003283189589 	9.829358659e-07 	0.01890732748 	-2.953480951e-07 	3.604262121e-05
0.4854466441 	0.009477148598 	0.0003962080613 	5.278332383e-07 	0.01903824415 	-1.642147526e-07 	3.629218475e-05
0.4901872076 	0.009523333244 	0.0004671696826 	9.222795149e-08 	0.01917030465 	-2.977380314e-08 	3.654392878e-05
0.4912417911 	0.009533668617 	0.0004835242882 	5.777490934e-07 	0.01919952908 	-4.948950234e-07 	3.659963866e-05
0.494995955 	0.009570800369 	0.0005415233424 	3.148563645e-07 	0.01930323042 	-1.172786142e-07 	3.679732224e-05
0.4998458934 	0.00961910536 	0.0006193820438 	6.961757575e-07 	0.01943665246 	-2.686714432e-07 	3.705166173e-05
0.5047390435 	0.009668328881 	0.0007006620422 	1.053507413e-06 	0.01957062627 	-4.220972022e-07 	3.730705305e-05
0.5097045418 	0.009718701319 	0.0007860051145 	1.388033278e-06 	0.01970538821 	-5.785434697e-07 	3.756394676e-05
0.5147188802 	0.009769993601 	0.0008755900708 	1.695889557e-06 	0.01984025869 	-7.367005855e-07 	3.782104738e-05
0.5197784943 	0.009822345103 	0.0009691726756 	1.975670039e-06 	0.01997500771 	-8.959924161e-07 	3.807791646e-05
0.5249048007 	0.009876053748 	0.00106726715 	2.226729362e-06 	0.02010978234 	-1.056692102e-06 	3.833483436e-05
0.5300864618 	0.009930930828 	0.001170080644 	2.445457559e-06 	0.02024396676 	-1.21728421e-06 	3.859062716e-05
0.5353156258 	0.009987048855 	0.001277319095 	2.630513941e-06 	0.02037724884 	-1.376348845e-06 	3.884469986e-05
0.5406103714 	0.01004472073 	0.001389399692 	2.782264106e-06 	0.0205096401 	-1.533537392e-06 	3.909707438e-05
0.5459628564 	0.01010384108 	0.001506496458 	2.706900222e-06 	0.02064051212 	-1.575352704e-06 	3.934655283e-05
0.5513652427 	0.01016450209 	0.001628247791 	2.390699973e-06 	0.02076953211 	-1.472231855e-06 	3.959250079e-05
0.5568351765 	0.01022703488 	0.001754943987 	2.094925133e-06 	0.02089661628 	-1.368361756e-06 	3.983475853e-05
0.5623626196 	0.01029135651 	0.001886547996 	1.821696725e-06 	0.02102111046 	-1.265227198e-06 	4.007207906e-05
0.5679425403 	0.01035760987 	0.002022572166 	1.571337206e-06 	0.02114276396 	-1.163203869e-06 	4.030398443e-05
0.573593848 	0.01042613035 	0.002163134611 	1.343558296e-06 	0.02126144611 	-1.062747577e-06 	4.05302256e-05
0.5793010596 	0.01049684887 	0.002307840957 	1.139301807e-06 	0.02137658106 	-9.65462949e-07 	4.074970481e-05
0.5850665138 	0.01056997952 	0.002456163988 	9.574035146e-07 	0.02148805574 	-8.716451846e-07 	4.096220654e-05
0.5909021007 	0.01064554937 	0.002607652514 	7.974349629e-07 	0.02159540127 	-7.822747922e-07 	4.116683695e-05
0.596729614 	0.01072281296 	0.002760334584 	6.600060882e-07 	0.02169746379 	-6.993771598e-07 	4.136139648e-05
0.6024927359 	0.01080130319 	0.00291248535 	5.436876848e-07 	0.02179358656 	-6.237203535e-07 	4.15446332e-05
0.6081921426 	0.01088078152 	0.003063491868 	4.463351684e-07 	0.02188356605 	-5.557906622e-07 	4.171615912e-05
0.6138223047 	0.0109611409 	0.003212765453 	3.653046843e-07 	0.02196767778 	-4.952908096e-07 	4.187649944e-05
0.6193933868 	0.01104252332 	0.003360178668 	2.980805508e-07 	0.02204624906 	-4.417886051e-07 	4.202627814e-05
0.6248998757 	0.01112472548 	0.003505511056 	2.429109319e-07 	0.02211928699 	-3.954052842e-07 	4.216550873e-05
0.6303406761 	0.01120769245 	0.003648428957 	1.974669056e-07 	0.02218710507 	-3.550398881e-07 	4.229478886e-05
0.6357255812 	0.01129157895 	0.003789089257 	1.591136788e-07 	0.02224988846 	-3.197585385e-07 	4.241447144e-05
0.6410469534 	0.01137607297 	0.003927288862 	1.267338039e-07 	0.02230767003 	-2.892277874e-07 	4.252461918e-05
0.6463063937 	0.01146114649 	0.004062806523 	9.908277542e-08 	0.02236078758 	-2.626547075e-07 	4.262587598e-05
0.6515106776 	0.01154702419 	0.00419585545 	7.35025524e-08 	0.02240937041 	-2.396416935e-07 	4.271848837e-05
0.6566541997 	0.01163330328 	0.004326230181 	5.159974971e-08 	0.02245344724 	-2.217343323e-07 	4.280251106e-05
0.6617386178 	0.01172041422 	0.004454052859 	3.70014933e-08 	0.02249327321 	-2.105828418e-07 	4.287843043e-05
0.6667691337 	0.01180944345 	0.004579456792 	4.248445165e-08 	0.02252806975 	-1.711500042e-07 	4.29447623e-05
0.6717416141 	0.01189949565 	0.004701109018 	7.509008133e-08 	0.02255809087 	-8.083200721e-08 	4.300199089e-05
0.6766571275 	0.01198990733 	0.004818773512 	1.265769979e-07 	0.02258485358 	2.599577747e-08 	4.305300806e-05
0.6815205256 	0.01208684609 	0.004929084987 	1.912720795e-07 	0.02259903101 	1.255198018e-07 	4.308003418e-05
0.6863283752 	0.01219095338 	0.005030343233 	2.630444265e-07 	0.02259917147 	2.278358982e-07 	4.308030195e-05
0.6910815969 	0.01229557398 	0.005125311893 	3.330737845e-07 	0.02259590315 	3.355719005e-07 	4.307407161e-05
0.6957835648 	0.01240323341 	0.005211987651 	3.832683784e-07 	0.02258469151 	4.063172362e-07 	4.305269911e-05
0.7004328444 	0.01251568716 	0.005291153585 	4.071357059e-07 	0.02256366901 	4.227533669e-07 	4.301262438e-05
0.7050296979 	0.01262782746 	0.005366957615 	4.203661011e-07 	0.02254123871 	4.263370212e-07 	4.296986599e-05
0.7095761173 	0.01273730432 	0.005440247097 	4.251038173e-07 	0.02251972896 	4.292865232e-07 	4.292886243e-05
0.7140725754 	0.01284415086 	0.005512087523 	4.280359282e-07 	0.02249920179 	4.335351952e-07 	4.288973194e-05
0.7185186488 	0.01294879441 	0.005582934775 	4.345256029e-07 	0.02247939877 	4.407116616e-07 	4.285198188e-05
0.7229152277 	0.01305115775 	0.005652788073 	4.454799096e-07 	0.02246018546 	4.512083126e-07 	4.281535598e-05
0.7272643304 	0.01315125855 	0.005721591738 	4.599861059e-07 	0.02244147885 	4.66664633e-07 	4.277969597e-05
0.731564952 	0.01324939878 	0.005789138443 	4.762986998e-07 	0.02242287376 	4.864063544e-07 	4.274422949e-05
0.735817778 	0.0133458797 	0.005855248199 	4.923615706e-07 	0.02240414104 	5.082370604e-07 	4.270851973e-05
0.7400241023 	0.01344085384 	0.00592008253 	5.071626017e-07 	0.02238529318 	5.305426566e-07 	4.267259047e-05
0.7441843609 	0.0135344168 	0.005983776909 	5.208595311e-07 	0.02236616001 	5.525392166e-07 	4.263611734e-05
0.7482985596 	0.01362662109 	0.006046319186 	5.337277842e-07 	0.02234666137 	5.738137546e-07 	4.25989475e-05
0.7523673173 	0.01371746671 	0.006107813862 	5.461262953e-07 	0.02232695839 	5.94419676e-07 	4.256138815e-05
0.7563919055 	0.01380694555 	0.006168441468 	5.584483429e-07 	0.02230712751 	6.146774744e-07 	4.252358498e-05
0.7603722455 	0.01389507749 	0.006228241579 	5.709314849e-07 	0.02228707895 	6.349209018e-07 	4.248536686e-05
0.7643087428 	0.0139819082 	0.006287164031 	5.834863567e-07 	0.0222668034 	6.552483088e-07 	4.244671601e-05
0.7682019616 	0.01406747443 	0.006345300963 	5.960354994e-07 	0.02224642799 	6.756935351e-07 	4.240787483e-05
0.772052977 	0.01415181487 	0.006402784294 	6.085992831e-07 	0.02222596783 	6.963072182e-07 	4.236887208e-05
0.7758617041 	0.01423498289 	0.006459633191 	6.211877494e-07 	0.02220535065 	7.171041743e-07 	4.232957001e-05
0.7796286373 	0.0143170378 	0.00651583442 	6.337371067e-07 	0.02218459637 	7.38016587e-07 	4.229000657e-05
0.7833542952 	0.01439802714 	0.006571479831 	6.462855376e-07 	0.0221638129 	7.590342579e-07 	4.22503875e-05
0.7870395204 	0.0144779942 	0.006626700646 	6.589742301e-07 	0.02214303622 	7.802260509e-07 	4.221078137e-05
0.7906844109 	0.01455699416 	0.006681530232 	6.719180102e-07 	0.02212223167 	8.016878802e-07 	4.217112212e-05
0.7942894146 	0.01463508763 	0.006735972336 	6.851345823e-07 	0.02210143017 	8.234467664e-07 	4.213146869e-05
0.7978550122 	0.0147123292 	0.006790097115 	6.986878772e-07 	0.02208073046 	8.455736997e-07 	4.209200927e-05
0.8013818414 	0.01478876762 	0.006844032886 	7.127023732e-07 	0.0220602017 	8.681684385e-07 	4.205287576e-05
0.8048702107 	0.01486446106 	0.006897839477 	7.273010781e-07 	0.02203983753 	8.913689416e-07 	4.201405599e-05
0.8083204798 	0.01493947589 	0.006951521531 	7.424890189e-07 	0.02201966464 	9.152322307e-07 	4.197560085e-05
0.8117330971 	0.01501387275 	0.007005135608 	7.583054769e-07 	0.02199977788 	9.398328977e-07 	4.193769117e-05
0.8151085413 	0.01508770798 	0.007058786286 	7.748241262e-07 	0.02198026384 	9.652636738e-07 	4.190049197e-05
0.818447297 	0.01516103979 	0.007112565669 	7.921567409e-07 	0.02196115553 	9.916512243e-07 	4.186406622e-05
0.821749635 	0.01523393547 	0.007166487596 	8.103072325e-07 	0.02194248044 	1.019090118e-06 	4.182846632e-05
0.8250159754 	0.01530645749 	0.007220600419 	8.29273985e-07 	0.02192432076 	1.047641673e-06 	4.179384892e-05
0.8282467314 	0.0153786683 	0.007274956756 	8.16536055e-07 	0.02190675489 	1.036140953e-06 	4.176036348e-05
0.8314423625 	0.0154506235 	0.007329658495 	7.919741984e-07 	0.02188987257 	1.009435158e-06 	4.172818109e-05
0.8346032194 	0.01552238242 	0.007384760757 	7.684116586e-07 	0.02187370563 	9.838277697e-07 	4.169736242e-05
0.8377296449 	0.01559400824 	0.007440266682 	7.456439782e-07 	0.02185830746 	9.592282643e-07 	4.166800921e-05
0.8408220284 	0.01566555642 	0.007496222722 	7.235119081e-07 	0.02184376782 	9.355526972e-07 	4.164029262e-05
0.8438807534 	0.01573708175 	0.007552659866 	7.018394878e-07 	0.02183015657 	9.127284644e-07 	4.161434579e-05
0.8469062311 	0.01580863096 	0.007609646492 	6.8046345e-07 	0.02181755876 	8.906582106e-07 	4.159033088e-05
0.8498987902 	0.01588025141 	0.007667200788 	6.591436668e-07 	0.0218060093 	8.691922443e-07 	4.156831439e-05
0.8528587734 	0.01595198958 	0.007725296535 	6.376448091e-07 	0.02179556354 	8.482427436e-07 	4.154840188e-05
0.8557865438 	0.01602388221 	0.007783937858 	6.157552225e-07 	0.02178629895 	8.277332568e-07 	4.153074098e-05
0.8586824593 	0.01609596207 	0.007843098384 	5.932357752e-07 	0.02177826931 	8.076003079e-07 	4.151543426e-05
0.8615468859 	0.01616825084 	0.007902774475 	5.698520981e-07 	0.02177154739 	7.877859083e-07 	4.150262041e-05
0.8643801578 	0.01624076405 	0.007962919882 	5.453007348e-07 	0.02176616432 	7.682025726e-07 	4.149235878e-05
0.8671825949 	0.01631351104 	0.008023426002 	5.192483487e-07 	0.02176215374 	7.488333754e-07 	4.148471352e-05