0 	0 	0 	0 	1.179702606 	-4.819316161e-14 	-2.377807157e-20 	0 	0 	0
0.0003162438639 	0 	0 	0 	1.179705655 	-6.803927806e-05 	2.932230487e-09 	0 	0 	0
0.0006324872147 	0 	0 	0 	1.179716044 	-0.0001280379593 	5.037361196e-09 	0 	0 	0
0.0009487300517 	0 	0 	0 	1.179735151 	-0.0001875154684 	6.677978517e-09 	0 	0 	0
0.001264972374 	0 	0 	0 	1.179762425 	-0.0002491966323 	7.945099251e-09 	0 	0 	0
0.001581214182 	0 	0 	0 	1.179797608 	-0.0003108890568 	8.752310893e-09 	0 	0 	0
0.001897455474 	0 	0 	0 	1.179840661 	-0.0003726752827 	9.101478558e-09 	0 	0 	0
0.00221369625 	0 	0 	0 	1.179891568 	-0.0004344796224 	8.99003144e-09 	0 	0 	0
0.002529936509 	0 	0 	0 	1.179950327 	-0.0004963027049 	8.417835063e-09 	0 	0 	0
0.002846176252 	0 	0 	0 	1.180016939 	-0.0005581290321 	7.384572105e-09 	0 	0 	0
0.003162415477 	0 	0 	0 	1.180091411 	-0.0006199504667 	5.890248138e-09 	0 	0 	0
0.003478654184 	0 	0 	0 	1.180173744 	-0.000681760792 	3.935012665e-09 	0 	0 	0
0.003794892374 	0 	0 	0 	1.180263944 	-0.000743555562 	1.519109904e-09 	0 	0 	0
0.003968165635 	0 	0 	0 	1.180317674 	-0.0007774024315 	4.654082499e-09 	0 	0 	0
0.004111130046 	0 	0 	0 	1.180361753 	-0.0008053328716 	1.429949729e-09 	0 	0 	0
0.004427367199 	0 	0 	0 	1.180467114 	-0.0008670905564 	4.945330888e-09 	0 	0 	0
0.004743603834 	0 	0 	0 	1.180580334 	-0.0009288242911 	8.945363104e-09 	0 	0 	0
0.005059839951 	0 	0 	0 	1.180701401 	-0.0009905319946 	1.342986821e-08 	0 	0 	0
0.005376075549 	0 	0 	0 	1.180830297 	-0.001052211906 	1.839875295e-08 	0 	0 	0
0.005692310629 	0 	0 	0 	1.180966996 	-0.001113862554 	2.385203713e-08 	0 	0 	0
0.00600854519 	0 	0 	0 	1.181111465 	-0.001175482737 	2.978988152e-08 	0 	0 	0
0.006324779232 	0 	0 	0 	1.181263661 	-0.001237071517 	3.621261497e-08 	0 	0 	0
0.006641012757 	0 	0 	0 	1.181423529 	-0.001298628216 	4.312076007e-08 	0 	0 	0
0.006957245763 	0 	0 	0 	1.181591005 	-0.001360152422 	5.051505679e-08 	0 	0 	0
0.007273478252 	0 	0 	0 	1.18176601 	-0.001421643989 	5.839648351e-08 	0 	0 	0
0.007589710222 	0 	0 	0 	1.181948455 	-0.001483103042 	6.67662744e-08 	0 	0 	0
0.007905941676 	0 	0 	0 	1.182138235 	-0.001544529985 	7.562593214e-08 	0 	0 	0
0.008222172613 	0 	0 	0 	1.182335231 	-0.001605925485 	8.49772292e-08 	0 	0 	0
0.008538403033 	0 	0 	0 	1.182539309 	-0.00166729045 	9.482221507e-08 	0 	0 	0
0.008854632937 	0 	0 	0 	1.18275032 	-0.001728626136 	1.051632205e-07 	0 	0 	0
0.009170862325 	0 	0 	0 	1.182968099 	-0.001789935003 	1.160032269e-07 	0 	0 	0
0.009487091199 	0 	0 	0 	1.183224511 	-0.001859814795 	1.279549126e-07 	0 	0 	0
0.009978436983 	0 	0 	0 	1.183556248 	-0.001947074749 	1.460212852e-07 	0 	0 	0
0.01047901633 	0 	0 	0 	1.183939122 	-0.002043992903 	1.662643941e-07 	0 	0 	0
0.01098900275 	0 	0 	0 	1.184344256 	-0.00214269082 	1.882162881e-07 	0 	0 	0
0.01150857298 	0 	0 	0 	1.184772155 	-0.002243211058 	2.119753024e-07 	0 	0 	0
0.01203790712 	0 	0 	0 	1.185223289 	-0.002345596939 	2.376460127e-07 	0 	0 	0
0.01257718863 	0 	0 	0 	1.185698095 	-0.002449895055 	2.653381631e-07 	0 	0 	0
0.01312660441 	0 	0 	0 	1.18619697 	-0.002556154203 	2.951674935e-07 	0 	0 	0
0.01368634489 	0 	0 	0 	1.186720282 	-0.002664425286 	3.272558443e-07 	0 	0 	0
0.01425660407 	0 	0 	0 	1.18726836 	-0.002774761323 	3.617309289e-07 	0 	0 	0
0.01483757959 	0 	0 	0 	1.187841506 	-0.002887217419 	3.987256257e-07 	0 	0 	0
0.01542947281 	0 	0 	0 	1.188439985 	-0.003001850737 	4.383777258e-07 	0 	0 	0
0.01603248888 	0 	0 	0 	1.189064037 	-0.003118720443 	4.808311484e-07 	0 	0 	0
0.01664683679 	0 	0 	0 	1.189713871 	-0.003237887649 	5.262349725e-07 	0 	0 	0
0.01727272946 	0 	0 	0 	1.190389674 	-0.003359415344 	5.747413222e-07 	0 	0 	0
0.01791038382 	0 	0 	0 	1.191091614 	-0.003483368341 	6.265052331e-07 	0 	0 	0
0.01856002087 	0 	0 	0 	1.191819848 	-0.003609812658 	6.816847539e-07 	0 	0 	0
0.01922186577 	0 	0 	0 	1.192574522 	-0.003738815801 	7.404401689e-07 	0 	0 	0
0.0198961479 	0 	0 	0 	1.193356528 	-0.003870572806 	8.029680564e-07 	0 	0 	0
0.02058563618 	0 	0 	0 	1.194167357 	-0.004005369649 	8.696446313e-07 	0 	0 	0
0.0212899146 	0 	0 	0 	1.195007072 	-0.004143247276 	9.406767866e-07 	0 	0 	0
0.0220074278 	0 	0 	0 	1.195874636 	-0.004284072009 	1.016111967e-06 	0 	0 	0
0.02273842446 	0 	0 	0 	1.196769732 	-0.004427829556 	1.096114661e-06 	0 	0 	0
0.02348315793 	0 	0 	0 	1.197692603 	-0.004574592143 	1.180876063e-06 	0 	0 	0
0.0242418863 	0 	0 	0 	1.198643525 	-0.004724432898 	1.270589316e-06 	0 	0 	0
0.02501487254 	0 	0 	0 	1.19962282 	-0.004877424399 	1.365448931e-06 	0 	0 	0
0.02580238453 	0 	0 	0 	1.200630858 	-0.005033638934 	1.465650616e-06 	0 	0 	0
0.0266046952 	0 	0 	0 	1.201668064 	-0.005193148182 	1.57139104e-06 	0 	0 	0
0.02742208261 	0 	0 	0 	1.202734924 	-0.005356023039 	1.682867645e-06 	0 	0 	0
0.02825483002 	0 	0 	0 	1.203831991 	-0.005522333414 	1.800278486e-06 	0 	0 	0
0.02910322604 	0 	0 	0 	1.204959889 	-0.00569214804 	1.923822089e-06 	0 	0 	0
0.02996756467 	0 	0 	0 	1.20611932 	-0.005865534286 	2.053697333e-06 	0 	0 	0
0.03084814547 	0 	0 	0 	1.207311066 	-0.006042557975 	2.108649896e-06 	0 	0 	0
0.03174527359 	0 	0 	0 	1.208535995 	-0.006223283213 	2.104635639e-06 	0 	0 	0
0.03265925995 	0 	0 	0 	1.209795068 	-0.006407772212 	2.09590746e-06 	0 	0 	0
0.03359042126 	0 	0 	0 	1.211089337 	-0.006596085131 	2.082198059e-06 	0 	0 	0
0.03453908024 	0 	0 	0 	1.212419955 	-0.006788279913 	2.063238395e-06 	0 	0 	0
0.03550556561 	0 	0 	0 	1.213788176 	-0.006984412125 	2.038758064e-06 	0 	0 	0
0.03649021232 	0 	0 	0 	1.21519536 	-0.00718453487 	2.00848565e-06 	0 	0 	0
0.03749336157 	0 	0 	0 	1.216642977 	-0.007388698314 	1.972148981e-06 	0 	0 	0
0.038515361 	0 	0 	0 	1.218132605 	-0.007596949723 	1.929475518e-06 	0 	0 	0
0.03955656474 	0 	0 	0 	1.219666552 	-0.007809419641 	1.880217132e-06 	0 	0 	0
0.04061897128 	0 	0 	0 	1.221249001 	-0.008026468578 	1.823967344e-06 	0 	0 	0
0.04170592738 	0 	0 	0 	1.222883143 	-0.008248290098 	1.760079561e-06 	0 	0 	0
0.04281330888 	0 	0 	0 	1.224568851 	-0.008474612634 	1.688775175e-06 	0 	0 	0
0.04394149956 	0 	0 	0 	1.226306674 	-0.008705239362 	1.609722895e-06 	0 	0 	0
0.04509089038 	0 	0 	0 	1.228098953 	-0.008940195967 	1.522654291e-06 	0 	0 	0
0.04626187968 	0 	0 	0 	1.229948157 	-0.009179507244 	1.427302691e-06 	0 	0 	0
0.04745487325 	0 	0 	0 	1.231856888 	-0.009423192387 	1.323402564e-06 	0 	0 	0
0.04867028451 	0 	0 	0 	1.233827881 	-0.00967126702 	1.210689884e-06 	0 	0 	0
0.04990853467 	0 	0 	0 	1.235864007 	-0.009923742548 	1.08890208e-06 	0 	0 	0
0.05117005282 	0 	0 	0 	1.237968272 	-0.01018062616 	9.577779733e-07 	0 	0 	0
0.05245527612 	0 	0 	0 	1.240143818 	-0.01044192068 	8.170579438e-07 	0 	0 	0
0.05376464996 	0 	0 	0 	1.242393924 	-0.01070762449 	6.664830719e-07 	0 	0 	0
0.05509862807 	0 	0 	0 	1.244722005 	-0.0109777315 	5.057956915e-07 	0 	0 	0
0.05645767272 	0 	0 	0 	1.247131614 	-0.01125223079 	3.347390905e-07 	0 	0 	0
0.05784225486 	0 	0 	0 	1.249626437 	-0.01153110568 	1.530568583e-07 	0 	0 	0
0.05896831121 	0 	0 	0 	1.251689482 	-0.01175723749 	2.074582908e-08 	0 	0 	0
0.05925285427 	0 	0 	0 	1.252210358 	-0.01181443044 	4.093459313e-08 	0 	0 	0
0.06069116533 	0 	0 	0 	1.254889536 	-0.01210267481 	2.521204023e-07 	0 	0 	0
0.06216301825 	0 	0 	0 	1.257672855 	-0.01239596032 	4.761023709e-07 	0 	0 	0
0.06366252918 	0 	0 	0 	1.260937864 	-0.01273215072 	7.138979784e-07 	0 	0 	0
0.06596449752 	0 	0 	0 	1.265099571 	-0.01314914655 	1.088817895e-06 	0 	0 	0
0.06829214033 	0 	0 	0 	1.269804171 	-0.01360542927 	1.487005487e-06 	0 	0 	0
0.07064574395 	0 	0 	0 	1.274688042 	-0.01406308327 	1.906393005e-06 	0 	0 	0
0.07302559793 	0 	0 	0 	1.279757563 	-0.01452179872 	2.346778427e-06 	0 	0 	0
0.07543199504 	0 	0 	0 	1.285019033 	-0.01498124421 	2.807991896e-06 	0 	0 	0
0.07786523129 	0 	0 	0 	1.29047868 	-0.01544111463 	3.289874156e-06 	0 	0 	0
0.08032560604 	0 	0 	0 	1.296148956 	-0.01590159428 	3.792406476e-06 	0 	0 	0
0.08282424015 	0 	0 	0 	1.302043941 	-0.01636292059 	4.317667457e-06 	0 	0 	0
0.08535191996 	0 	0 	0 	1.30816468 	-0.01682429678 	4.863448316e-06 	0 	0 	0
0.08790779437 	0 	0 	0 	1.314510552 	-0.01728485824 	5.429257706e-06 	0 	0 	0
0.09049217788 	0 	0 	0 	1.321086974 	-0.01774421706 	5.954807955e-06 	0 	0 	0
0.0931053885 	0 	0 	0 	1.327900025 	-0.0182020454 	5.594713975e-06 	0 	0 	0
0.09574774776 	0 	0 	0 	1.334955789 	-0.01865800244 	5.21310263e-06 	0 	0 	0
0.09841958081 	0 	0 	0 	1.342261777 	-0.01911183124 	4.810149116e-06 	0 	0 	0
0.1011232676 	0 	0 	0 	1.349832676 	-0.01956365523 	4.385616343e-06 	0 	0 	0
0.1038669738 	0 	0 	0 	1.35768144 	-0.0200134133 	3.93805688e-06 	0 	0 	0
0.1066412871 	0 	0 	0 	1.365806396 	-0.0204601918 	3.469926563e-06 	0 	0 	0
0.109446549 	0 	0 	0 	1.374207346 	-0.0209031943 	2.981315372e-06 	0 	0 	0
0.1122831048 	0 	0 	0 	1.382890946 	-0.02134199549 	2.472417915e-06 	0 	0 	0
0.1151513035 	0 	0 	0 	1.391864043 	-0.02177616106 	1.943449167e-06 	0 	0 	0
0.1180514982 	0 	0 	0 	1.401134565 	-0.02220527231 	1.394648023e-06 	0 	0 	0
0.1209850947 	0 	0 	0 	1.410719512 	-0.02262924408 	8.260353751e-07 	0 	0 	0
0.1239620669 	0 	0 	0 	1.420636054 	-0.023047884 	2.358573095e-07 	0 	0 	0
0.125139059 	0 	0 	0 	1.424641837 	-0.02320904119 	2.756342024e-06 	0 	0 	0
0.1269722515 	0 	0 	0 	1.430881146 	-0.02346044629 	3.847674473e-07 	0 	0 	0
0.130016019 	0 	0 	0 	1.441455909 	-0.02386587877 	1.031592442e-06 	0 	0 	0
0.133093744 	0 	0 	0 	1.452370948 	-0.0242633514 	1.696619455e-06 	0 	0 	0
0.1362058055 	0 	0 	0 	1.463636353 	-0.02465217056 	2.379442615e-06 	0 	0 	0
0.1393525864 	0 	0 	0 	1.475268789 	-0.02503173792 	3.079748258e-06 	0 	0 	0
0.1425407528 	0 	0 	0 	1.4872919 	-0.02540150008 	3.798675417e-06 	0 	0 	0
0.1457695841 	0 	0 	0 	1.499719074 	-0.02576032591 	4.534848732e-06 	0 	0 	0
0.1490344407 	0 	0 	0 	1.512555332 	-0.02610656227 	5.28528815e-06 	0 	0 	0
0.1523357245 	0 	0 	0 	1.525813597 	-0.02643807234 	6.041046536e-06 	0 	0 	0
0.155673842 	0 	0 	0 	1.5395082 	-0.02675145234 	6.823266445e-06 	0 	0 	0
0.1590492042 	0 	0 	0 	1.553645493 	-0.02705677591 	7.616292233e-06 	0 	0 	0
0.1624675126 	0 	0 	0 	1.568208809 	-0.02735438845 	8.368457347e-06 	0 	0 	0
0.1659296299 	0 	0 	0 	1.583147582 	-0.02762651916 	8.5446701e-06 	0 	0 	0
0.1694303785 	0 	0 	0 	1.598419172 	-0.02788026517 	7.889394958e-06 	0 	0 	0
0.1729701892 	0 	0 	0 	1.614013684 	-0.02812300165 	7.206019612e-06 	0 	0 	0
0.176549498 	0 	0 	0 	1.629932837 	-0.02834855112 	6.509965976e-06 	0 	0 	0
0.1801687455 	0 	0 	0 	1.646188047 	-0.02855604164 	5.801355868e-06 	0 	0 	0
0.1838369307 	0 	0 	0 	1.662792956 	-0.02874465516 	5.07980173e-06 	0 	0 	0
0.1875479555 	0 	0 	0 	1.67973946 	-0.02891322014 	4.349005236e-06 	0 	0 	0
0.1913003917 	0 	0 	0 	1.697015161 	-0.0290605095 	3.611258039e-06 	0 	0 	0
0.1950947013 	0 	0 	0 	1.714616249 	-0.02918540852 	2.868592554e-06 	0 	0 	0
0.1989313516 	0 	0 	0 	1.73254564 	-0.02928684833 	2.123200503e-06 	0 	0 	0
0.2028158131 	0 	0 	0 	1.750811986 	-0.02936375623 	1.376391656e-06 	0 	0 	0
0.206748532 	0 	0 	0 	1.769410667 	-0.02941497657 	6.314981343e-07 	0 	0 	0
0.2101444908 	0 	0 	0 	1.785560962 	-0.02943580995 	3.493897033e-06 	0 	0 	0
0.2107251389 	0 	0 	0 	1.788323115 	-0.02943945453 	1.115672657e-07 	0 	0 	0
0.2147461234 	0 	0 	0 	1.807534989 	-0.02943657942 	8.689528306e-07 	0 	0 	0
0.2188119806 	0 	0 	0 	1.827042627 	-0.02940484935 	1.615107161e-06 	0 	0 	0
0.2229278897 	0 	0 	0 	1.846845497 	-0.02934331771 	2.348218465e-06 	0 	0 	0
0.2270943661 	0 	0 	0 	1.866928667 	-0.02925114583 	3.064710617e-06 	0 	0 	0
0.2313073414 	0 	0 	0 	1.887262163 	-0.02912771246 	3.761016454e-06 	0 	0 	0
0.2355673346 	0 	0 	0 	1.907818875 	-0.02897259336 	4.434981144e-06 	0 	0 	0
0.2398748701 	0 	0 	0 	1.928580537 	-0.02878550036 	5.084821745e-06 	0 	0 	0
0.2442372224 	0 	0 	0 	1.949528362 	-0.02856634044 	5.710087464e-06 	0 	0 	0
0.248650206 	0 	0 	0 	1.970619779 	-0.0283155211 	6.308439207e-06 	0 	0 	0
0.2531124416 	0 	0 	0 	1.991802996 	-0.02803394401 	6.879813568e-06 	0 	0 	0
0.2576244788 	0 	0 	0 	2.01303087 	-0.02772286473 	7.425499307e-06 	0 	0 	0
0.2621892502 	0 	0 	0 	2.034258749 	-0.02738390849 	7.948235569e-06 	0 	0 	0
0.2668106401 	0 	0 	0 	2.055430191 	-0.02701932932 	8.02128484e-06 	0 	0 	0
0.2714836098 	0 	0 	0 	2.076467388 	-0.02663226304 	7.299994214e-06 	0 	0 	0
0.2762087349 	0 	0 	0 	2.097291856 	-0.02622641871 	6.610519275e-06 	0 	0 	0
0.2809868679 	0 	0 	0 	2.117833896 	-0.02580583833 	5.953025855e-06 	0 	0 	0
0.2858254639 	0 	0 	0 	2.138022166 	-0.02537502683 	5.326192149e-06 	0 	0 	0
0.2907180655 	0 	0 	0 	2.157767066 	-0.02493921657 	4.729306558e-06 	0 	0 	0
0.2956652752 	0 	0 	0 	2.176985735 	-0.02450385438 	4.159043724e-06 	0 	0 	0
0.3006677021 	0 	0 	0 	2.195614895 	-0.02407393882 	3.608844404e-06 	0 	0 	0
0.3057325688 	0 	0 	0 	2.213604482 	-0.02365292681 	3.056032166e-06 	0 	0 	0
0.3108541272 	0 	0 	0 	2.230896035 	-0.02323553989 	2.522130657e-06 	0 	0 	0
0.3160328503 	0 	0 	0 	2.247428649 	-0.02284879877 	2.006528917e-06 	0 	0 	0
0.3212699707 	0 	0 	0 	2.263134588 	-0.02250662713 	1.467651598e-06 	0 	0 	0
0.3265710904 	0 	0 	0 	2.277952341 	-0.02217460009 	9.376536077e-07 	0 	0 	0
0.3319313799 	0 	0 	0 	2.291903076 	-0.02186381612 	4.161187296e-07 	0 	0 	0
0.3361906958 	0 	0 	0 	2.302264946 	-0.02164637472 	5.943475032e-06 	0 	0 	0
0.3373514992 	0 	0 	0 	2.305088428 	-0.02158725566 	1.195459701e-07 	0 	0 	0
0.3428342305 	0 	0 	0 	2.317605145 	-0.02132918919 	6.741795741e-07 	0 	0 	0
0.3483815784 	0 	0 	0 	2.329522358 	-0.02108412083 	1.223560663e-06 	0 	0 	0
0.3539908448 	0 	0 	0 	2.340883142 	-0.02084861237 	1.76464332e-06 	0 	0 	0
0.3596627202 	0 	0 	0 	2.351722844 	-0.02061999685 	2.295878536e-06 	0 	0 	0
0.3654019652 	0 	0 	0 	2.362071437 	-0.02039585672 	2.81598203e-06 	0 	0 	0
0.3712061637 	0 	0 	0 	2.371947918 	-0.02017402187 	3.322941858e-06 	0 	0 	0
0.3770751474 	0 	0 	0 	2.381366808 	-0.01995247968 	3.816417087e-06 	0 	0 	0
0.3830113807 	0 	0 	0 	2.390341156 	-0.01972930202 	4.296548358e-06 	0 	0 	0
0.3890165364 	0 	0 	0 	2.398879222 	-0.01950272703 	4.762470454e-06 	0 	0 	0
0.3950887203 	0 	0 	0 	2.406984442 	-0.01927117501 	5.213993352e-06 	0 	0 	0
0.4012290711 	0 	0 	0 	2.414660434 	-0.01903313935 	5.651617221e-06 	0 	0 	0
0.4074414565 	0 	0 	0 	2.42191016 	-0.01878725575 	6.074940526e-06 	0 	0 	0
0.4137231831 	0 	0 	0 	2.428732975 	-0.01853242694 	6.483170599e-06 	0 	0 	0
0.420075024 	0 	0 	0 	2.435129507 	-0.01826769281 	6.876421416e-06 	0 	0 	0
0.4265009097 	0 	0 	0 	2.441101665 	-0.01799224825 	7.254063494e-06 	0 	0 	0
0.4329987794 	0 	0 	0 	2.446649718 	-0.01770557779 	7.614613319e-06 	0 	0 	0
0.4395691754 	0 	0 	0 	2.451775447 	-0.01740732593 	7.957792135e-06 	0 	0 	0
0.4462154458 	0 	0 	0 	2.456482275 	-0.01709728111 	7.771268196e-06 	0 	0 	0
0.452936325 	0 	0 	0 	2.46077329 	-0.0167754896 	7.343790289e-06 	0 	0 	0
0.4597322186 	0 	0 	0 	2.46465323 	-0.01644213617 	6.927092959e-06 	0 	0 	0
0.4666062465 	0 	0 	0 	2.46812891 	-0.01609751719 	6.521506886e-06 	0 	0 	0
0.4735572746 	0 	0 	0 	2.471208367 	-0.01574214283 	6.128167373e-06 	0 	0 	0
0.4805859366 	0 	0 	0 	2.473902439 	-0.0153766018 	5.7469555e-06 	0 	0 	0
0.4876951865 	0 	0 	0 	2.476224617 	-0.01500152421 	5.378682931e-06 	0 	0 	0
0.4948837843 	0 	0 	0 	2.478185458 	-0.01461858282 	5.024458486e-06 	0 	0 	0
0.5020728327 	0 	0 	0 	2.47979034 	-0.01423197573 	4.687681435e-06 	0 	0 	0
0.5091839358 	0 	0 	0 	2.481055384 	-0.01384595105 	4.372145146e-06 	0 	0 	0
0.5162165766 	0 	0 	0 	2.482010006 	-0.0134622573 	4.077151259e-06 	0 	0 	0
0.5231722107 	0 	0 	0 	2.48268405 	-0.01308159446 	3.80135215e-06 	0 	0 	0
0.5300519365 	0 	0 	0 	2.483103849 	-0.01270456888 	3.54452816e-06 	0 	0 	0
0.5368557511 	0 	0 	0 	2.483292574 	-0.01233170338 	3.305474287e-06 	0 	0 	0
0.5435850468 	0 	0 	0 	2.483270645 	-0.01196344039 	3.08289749e-06 	0 	0 	0
0.5502406551 	0 	0 	0 	2.483055949 	-0.01160015007 	2.876461029e-06 	0 	0 	0
0.5568228235 	0 	0 	0 	2.482664105 	-0.01124213327 	2.684902407e-06 	0 	0 	0
0.5633327798 	0 	0 	0 	2.482108761 	-0.01088964292 	2.50697867e-06 	0 	0 	0
0.5697713528 	0 	0 	0 	2.481401845 	-0.0105428869 	2.342263854e-06 	0 	0 	0
0.5761388792 	0 	0 	0 	2.480553825 	-0.01020204297 	2.189618579e-06 	0 	0 	0
0.5824363843 	0 	0 	0 	2.479573833 	-0.00986724468 	2.047887389e-06 	0 	0 	0
0.5886648223 	0 	0 	0 	2.478469848 	-0.009538605587 	1.91672777e-06 	0 	0 	0
0.5948245315 	0 	0 	0 	2.477248895 	-0.009216223155 	1.795289366e-06 	0 	0 	0
0.6009163367 	0 	0 	0 	2.475917091 	-0.008900162051 	1.6825569e-06 	0 	0 	0
0.6069413562 	0 	0 	0 	2.47447975 	-0.008590470954 	1.57814161e-06 	0 	0 	0
0.6128998905 	0 	0 	0 	2.47294157 	-0.00828719755 	1.481478499e-06 	0 	0 	0
0.6187926729 	0 	0 	0 	2.471306616 	-0.007990367676 	1.391687336e-06 	0 	0 	0
0.6246207232 	0 	0 	0 	2.469578362 	-0.00769999596 	1.308191396e-06 	0 	0 	0
0.630384542 	0 	0 	0 	2.46775983 	-0.007416102981 	1.230770274e-06 	0 	0 	0
0.6360847567 	0 	0 	0 	2.465853582 	-0.007138699715 	1.158707584e-06 	0 	0 	0
0.6417221536 	0 	0 	0 	2.463861703 	-0.006867790139 	1.091342479e-06 	0 	0 	0
0.6472975325 	0 	0 	0 	2.461785854 	-0.006603382757 	1.028542174e-06 	0 	0 	0
0.6528113863 	0 	0 	0 	2.45962733 	-0.006345489013 	9.698673028e-07 	0 	0 	0
0.6582643935 	0 	0 	0 	2.457386989 	-0.006094115065 	9.147300455e-07 	0 	0 	0
0.663657363 	0 	0 	0 	2.455065238 	-0.005849268893 	8.627224929e-07 	0 	0 	0
0.6689908816 	0 	0 	0 	2.452662083 	-0.005610965975 	8.137769035e-07 	0 	0 	0
0.6742655434 	0 	0 	0 	2.450177079 	-0.005379220774 	7.67410742e-07 	0 	0 	0
0.6794819976 	0 	0 	0 	2.447609253 	-0.005154043702 	7.231213268e-07 	0 	0 	0
0.6846410163 	0 	0 	0 	2.444957055 	-0.004935444012 	6.806540355e-07 	0 	0 	0
0.6897431149 	0 	0 	0 	2.442218328 	-0.00472342503 	6.398383514e-07 	0 	0 	0
0.6947889098 	0 	0 	0 	2.439390127 	-0.004517956564 	6.001413691e-07 	0 	0 	0
0.6997790223 	0 	0 	0 	2.436468527 	-0.004318970826 	5.609529796e-07 	0 	0 	0
0.7047141634 	0 	0 	0 	2.433448455 	-0.004126285511 	5.218249329e-07 	0 	0 	0
0.7095948444 	0 	0 	0 	2.430323755 	-0.003939410866 	4.822033941e-07 	0 	0 	0
0.7144216649 	0 	0 	0 	2.427086921 	-0.003757576053 	4.410722737e-07 	0 	0 	0
0.719195219 	0 	0 	0 	2.423730902 	-0.003575215308 	3.992019211e-07 	0 	0 	0
0.7239161526 	0 	0 	0 	2.420251935 	-0.003387912488 	3.496848195e-07 	0 	0 	0
0.7285849967 	0 	0 	0 	2.416633121 	-0.003193392816 	2.927750507e-07 	0 	0 	0
0.7332023176 	0 	0 	0 	2.412817675 	-0.002981261456 	2.346457595e-07 	0 	0 	0
0.7377686838 	0 	0 	0 	2.408783589 	-0.00275466157 	1.654987985e-07 	0 	0 	0
0.7422846824 	0 	0 	0 	2.404621253 	-0.002542328551 	9.059565198e-08 	0 	0 	0
0.7467508634 	0 	0 	0 	2.400465931 	-0.002371285356 	2.914781499e-08 	0 	0 	0
0.7511677575 	0 	0 	0 	2.396396236 	-0.002249540405 	-8.919928324e-09 	0 	0 	0
0.7555359085 	0 	0 	0 	2.3923957 	-0.002165185041 	-2.311884225e-08 	0 	0 	0
0.7598558555 	0 	0 	0 	2.388393923 	-0.002095639028 	-2.482186735e-08 	0 	0 	0
0.764128156 	0 	0 	0 	2.384337278 	-0.002028592363 	-2.420776009e-08 	0 	0 	0
0.768353309 	0 	0 	0 	2.38020793 	-0.001964113501 	-1.996875307e-08 	0 	0 	0
0.7725318348 	0 	0 	0 	2.375997744 	-0.00189833437 	-1.215988283e-08 	0 	0 	0
0.776664248 	0 	0 	0 	2.371675516 	-0.001825672126 	7.467999037e-10 	0 	0 	0
0.7807510619 	0 	0 	0 	2.367111354 	-0.001730709866 	2.953811672e-08 	0 	0 	0
0.7847927877 	0 	0 	0 	2.362034997 	-0.001567123534 	7.15693432e-08 	0 	0 	0
0.7887899104 	0 	0 	0 	2.356178447 	-0.00128965141 	1.066454321e-07 	0 	0 	0
0.7927429222 	0 	0 	0 	2.349502577 	-0.0009040230358 	1.152049874e-07 	0 	0 	0
0.7966523098 	0 	0 	0 	2.342313888 	-0.0004805693598 	9.178008816e-08 	0 	0 	0
0.8005185571 	0 	0 	0 	2.335150732 	-0.0001247405539 	5.168409845e-08 	0 	0 	0
0.8043421454 	0 	0 	0 	2.328448945 	9.210601827e-05 	1.67432989e-08 	0 	0 	0
0.8081235378 	0 	0 	0 	2.322290908 	0.0001683846088 	-2.493550929e-09 	0 	0 	0
0.8118631999 	0 	0 	0 	2.31645732 	0.0001519764506 	-6.847129054e-09 	0 	0 	0
0.8155615922 	0 	0 	0 	2.310654364 	0.0001024194359 	-3.872172077e-09 	0 	0 	0
0.8192191701 	0 	0 	0 	2.3046965 	5.333005736e-05 	6.157953222e-10 	0 	0 	0
0.8228363893 	0 	0 	0 	2.298516154 	1.275690735e-05 	6.718683647e-09 	0 	0 	0
0.8264136904 	0 	0 	0 	2.292081574 	-1.22934019e-05 	1.445149091e-08 	0 	0 	0
0.8299515134 	0 	0 	0 	2.285362546 	-1.243664749e-05 	2.257646366e-08 	0 	0 	0
0.833450294 	0 	0 	0 	2.278345502 	1.796947064e-05 	3.021124611e-08 	0 	0 	0
0.836910463 	0 	0 	0 	2.271039165 	8.096404122e-05 	3.698857371e-08 	0 	0 	0
0.8403324473 	0 	0 	0 	2.263447658 	0.0001802794613 	4.272757238e-08 	0 	0 	0
0.8437166697 	0 	0 	0 	2.255542352 	0.0003256911653 	4.687377349e-08 	0 	0 	0
0.8470635448 	0 	0 	0 	2.247258086 	0.0005305514423 	4.849414882e-08 	0 	0 	0
0.8503734847 	0 	0 	0 	2.238516503 	0.0008051247096 	4.657070057e-08 	0 	0 	0
0.853646897 	0 	0 	0 	2.229269104 	0.001147636186 	4.065791944e-08 	0 	0 	0
0.8568841848 	0 	0 	0 	2.219547495 	0.00153556291 	3.154574601e-08 	0 	0 	0
0.860085747 	0 	0 	0 	2.209479019 	0.001925954203 	2.117532459e-08 	0 	0 	0
0.8632519787 	0 	0 	0 	2.199247773 	0.002267905255 	1.189453228e-08 	0 	0 	0
0.8663832688 	0 	0 	0 	2.189020351 	0.002520537911 	5.210285931e-09 	0 	0 	0
0.8694800027 	0 	0 	0 	2.178880736 	0.002667251788 	1.328377949e-09 	0 	0 	0
0.8725425619 	0 	0 	0 	2.168823483 	0.002716029064 	-3.512458257e-10 	0 	0 	0
0.8755713235 	0 	0 	0 	2.158790467 	0.002688565723 	-6.31658466e-10 	0 	0 	0
0.8785666604 	0 	0 	0 	2.148706963 	0.002606479575 	-1.694379352e-10 	0 	0 	0
0.8793129363 	0 	0 	0 	2.146136741 	0.002577449631 	-1.364309987e-06 	0 	0 	0
0.881528942 	0 	0 	0 	2.138504681 	0.002491252031 	-6.979839587e-10 	0 	0 	0
0.8844585328 	0 	0 	0 	2.12813283 	0.002365018449 	-1.739296542e-09 	0 	0 	0
0.8873557934 	0 	0 	0 	2.117540425 	0.002238718286 	-2.703123312e-09 	0 	0 	0
0.8902210805 	0 	0 	0 	2.106599357 	0.002129162021 	-3.372965757e-09 	0 	0 	0
0.893054747 	0 	0 	0 	2.095084578 	0.002078841604 	-3.16593702e-09 	0 	0 	0
0.8958571419 	0 	0 	0 	2.082791946 	0.002127645376 	-1.728602996e-09 	0 	0 	0
0.8986286103 	0 	0 	0 	2.069669624 	0.002288001001 	7.269394012e-10 	0 	0 	0
0.9013694936 	0 	0 	0 	2.055897663 	0.002538039753 	3.504682853e-09 	0 	0 	0
0.9040801293 	0 	0 	0 	2.041868806 	0.002821091063 	5.484594654e-09 	0 	0 	0
0.906760851 	0 	0 	0 	2.02803114 	0.003071582834 	5.899647892e-09 	0 	0 	0
0.909411989 	0 	0 	0 	2.014656143 	0.003245270024 	4.761255365e-09 	0 	0 	0
0.9120338697 	0 	0 	0 	2.001697348 	0.003337924836 	3.020816682e-09 	0 	0 	0
0.9146268159 	0 	0 	0 	1.988892642 	0.003386296247 	1.953202403e-09 	0 	0 	0
0.9171911471 	0 	0 	0 	1.976016952 	0.003422954211 	1.519576311e-09 	0 	0 	0
0.9197271789 	0 	0 	0 	1.96299373 	0.003450696285 	1.103783268e-09 	0 	0 	0
0.9222352237 	0 	0 	0 	1.949819863 	0.003470854964 	8.096639842e-10 	0 	0 	0
0.9247155904 	0 	0 	0 	1.936501279 	0.003486513751 	6.672646031e-10 	0 	0 	0
0.9271685843 	0 	0 	0 	1.923044622 	0.003495984036 	5.442520434e-10 	0 	0 	0
0.9295945076 	0 	0 	0 	1.909456316 	0.003498028555 	4.432976225e-10 	0 	0 	0
0.931993659 	0 	0 	0 	1.896896143 	0.003492465211 	3.602770519e-10 	0 	0 	0
0.9335564697 	0 	0 	0 	1.886671861 	0.003482700699 	2.923561603e-10 	0 	0 	0
0.9350904493 	0 	0 	0 	1.877656641 	0.003470613569 	2.314834903e-10 	0 	0 	0
0.9365961296 	0 	0 	0 	1.868707588 	0.003455150799 	1.720225201e-10 	0 	0 	0
0.9380740326 	0 	0 	0 	1.859825792 	0.003436248199 	1.141264516e-10 	0 	0 	0
0.939524671 	0 	0 	0 	1.851010841 	0.003414036908 	5.799178352e-11 	0 	0 	0
0.9409485475 	0 	0 	0 	1.842261402 	0.003388640379 	3.750329288e-12 	0 	0 	0
0.942346156 	0 	0 	0 	1.833575494 	0.003360169451 	-4.850112431e-11 	0 	0 	0
0.9437179811 	0 	0 	0 	1.824950617 	0.003328737459 	-9.869103425e-11 	0 	0 	0
0.9450644983 	0 	0 	0 	1.816383852 	0.003294464214 	-1.467779686e-10 	0 	0 	0
0.9463861746 	0 	0 	0 	1.807871939 	0.003257477219 	-1.927370256e-10 	0 	0 	0
0.9476834683 	0 	0 	0 	1.799411359 	0.003217910767 	-2.365522595e-10 	0 	0 	0
0.9489568292 	0 	0 	0 	1.790998393 	0.003175904328 	-2.782140412e-10 	0 	0 	0
0.9502066987 	0 	0 	0 	1.782629176 	0.003131600868 	-3.177184382e-10 	0 	0 	0
0.9514335103 	0 	0 	0 	1.774299729 	0.003085145279 	-3.550673472e-10 	0 	0 	0
0.9526376894 	0 	0 	0 	1.766005988 	0.003036683011 	-3.90268687e-10 	0 	0 	0
0.9538196534 	0 	0 	0 	1.75774382 	0.002986358917 	-4.23336381e-10 	0 	0 	0
0.9549798122 	0 	0 	0 	1.74950903 	0.002934316312 	-4.542901177e-10 	0 	0 	0
0.9561185681 	0 	0 	0 	1.741297367 	0.002880696225 	-4.831549249e-10 	0 	0 	0
0.957236316 	0 	0 	0 	1.733104516 	0.002825636811 	-5.099606515e-10 	0 	0 	0
0.9583334433 	0 	0 	0 	1.724926099 	0.002769272905 	-5.347413969e-10 	0 	0 	0
0.9594103305 	0 	0 	0 	1.716757662 	0.002711735685 	-5.575315058e-10 	0 	0 	0
0.960467351 	0 	0 	0 	1.708594663 	0.002653152461 	-5.782872022e-10 	0 	0 	0
0.9615048713 	0 	0 	0 	1.700432465 	0.002593646491 	-5.97008792e-10 	0 	0 	0
0.9625232512 	0 	0 	0 	1.692266318 	0.002533336876 	-6.137353172e-10 	0 	0 	0
0.9635228437 	0 	0 	0 	1.684091344 	0.002472338521 	-6.285103973e-10 	0 	0 	0
0.9645039954 	0 	0 	0 	1.675902521 	0.00241076211 	-6.41381649e-10 	0 	0 	0
0.9654670466 	0 	0 	0 	1.667694665 	0.002348714117 	-6.524001088e-10 	0 	0 	0
0.9664123311 	0 	0 	0 	1.659462411 	0.002286296845 	-6.616196286e-10 	0 	0 	0
0.9673401768 	0 	0 	0 	1.651200189 	0.002223608481 	-6.690962141e-10 	0 	0 	0
0.9682509054 	0 	0 	0 	1.642902204 	0.00216074317 	-6.748872684e-10 	0 	0 	0
0.9691448325 	0 	0 	0 	1.634562408 	0.002097791111 	-6.790498565e-10 	0 	0 	0
0.9700222683 	0 	0 	0 	1.626174473 	0.002034838512 	-6.816442855e-10 	0 	0 	0
0.9708835169 	0 	0 	0 	1.617731759 	0.001971967652 	-6.827415284e-10 	0 	0 	0
0.9717288769 	0 	0 	0 	1.609227288 	0.001909257496 	-6.824129145e-10 	0 	0 	0
0.9725586415 	0 	0 	0 	1.6006537 	0.001846783885 	-6.807163901e-10 	0 	0 	0
0.9733730984 	0 	0 	0 	1.592003211 	0.001784618936 	-6.777059892e-10 	0 	0 	0
0.97417253 	0 	0 	0 	1.583267565 	0.001722831184 	-6.734398746e-10 	0 	0 	0
0.9749572134 	0 	0 	0 	1.574437984 	0.001661486173 	-6.679760403e-10 	0 	0 	0
0.9757274208 	0 	0 	0 	1.56550511 	0.001600646474 	-6.613714324e-10 	0 	0 	0
0.9764834191 	0 	0 	0 	1.556458938 	0.001540371674 	-6.53682035e-10 	0 	0 	0
0.9772254706 	0 	0 	0 	1.547288742 	0.001480718541 	-6.449619987e-10 	0 	0 	0
0.9779538326 	0 	0 	0 	1.537982992 	0.001421741156 	-6.352637437e-10 	0 	0 	0
0.9786687575 	0 	0 	0 	1.528529258 	0.001363491015 	-6.246381281e-10 	0 	0 	0
0.9793704933 	0 	0 	0 	1.518914102 	0.001306017133 	-6.131325607e-10 	0 	0 	0
0.9800592833 	0 	0 	0 	1.509122954 	0.001249366146 	-6.00774952e-10 	0 	0 	0
0.9807353663 	0 	0 	0 	1.499139968 	0.001193582375 	-5.876102604e-10 	0 	0 	0
0.9813989767 	0 	0 	0 	1.488947863 	0.001138707907 	-5.736895427e-10 	0 	0 	0
0.9820503447 	0 	0 	0 	1.478527733 	0.001084782646 	-5.590644629e-10 	0 	0 	0
0.982689696 	0 	0 	0 	1.46785883 	0.001031843888 	-5.437961456e-10 	0 	0 	0
0.9833172525 	0 	0 	0 	1.456918314 	0.0009799296523 	-5.279021281e-10 	0 	0 	0
0.9839332316 	0 	0 	0 	1.44568096 	0.0009290718216 	-5.114396734e-10 	0 	0 	0
0.9845378469 	0 	0 	0 	1.43411879 	0.0008792994831 	-4.945049108e-10 	0 	0 	0
0.9851313081 	0 	0 	0 	1.422200668 	0.0008306494405 	-4.770625215e-10 	0 	0 	0
0.985713821 	0 	0 	0 	1.409891858 	0.0007831487889 	-4.591524702e-10 	0 	0 	0
0.9862855876 	0 	0 	0 	1.39715347 	0.0007368241439 	-4.409152976e-10 	0 	0 	0
0.986846806 	0 	0 	0 	1.383941758 	0.0006917066113 	-4.22432052e-10 	0 	0 	0
0.987397671 	0 	0 	0 	1.370207214 	0.0006478014317 	-4.03789322e-10 	0 	0 	0
0.9879383734 	0 	0 	0 	1.355893972 	0.0006056733601 	-3.850898084e-10 	0 	0 	0
0.9884691008 	0 	0 	0 	1.340938694 	0.0005639140302 	-3.668648901e-10 	0 	0 	0
0.9889900372 	0 	0 	0 	1.326636038 	0.0005263680121 	-3.504672918e-10 	0 	0 	0
0.98932531 	0 	0 	0 	1.314528792 	0.0004979474528 	-3.372207979e-10 	0 	0 	0
0.9896605828 	0 	0 	0 	1.303360349 	0.0004730223253 	-3.257646315e-10 	0 	0 	0
0.9899958556 	0 	0 	0 	1.291642138 	0.0004478885805 	-3.142840206e-10 	0 	0 	0
0.9903311284 	0 	0 	0 	1.279320115 	0.0004232969962 	-3.027715056e-10 	0 	0 	0
0.9906664012 	0 	0 	0 	1.266332497 	0.00039902887 	-2.91220088e-10 	0 	0 	0
0.991001674 	0 	0 	0 	1.252608322 	0.0003751260848 	-2.796060047e-10 	0 	0 	0
0.9913369469 	0 	0 	0 	1.238065399 	0.0003516170906 	-2.679197032e-10 	0 	0 	0
0.9916722197 	0 	0 	0 	1.222608033 	0.0003285309002 	-2.561579842e-10 	0 	0 	0
0.9920074925 	0 	0 	0 	1.206124142 	0.0003059019535 	-2.443196489e-10 	0 	0 	0
0.9923427653 	0 	0 	0 	1.188481641 	0.0002837680914 	-2.324032518e-10 	0 	0 	0
0.9926780381 	0 	0 	0 	1.169523873 	0.0002621729301 	-2.20402958e-10 	0 	0 	0
0.9930133109 	0 	0 	0 	1.14906382 	0.0002411682614 	-2.083135741e-10 	0 	0 	0
0.9933485837 	0 	0 	0 	1.126876716 	0.0002208178642 	-1.961208832e-10 	0 	0 	0
0.9936838566 	0 	0 	0 	1.102690616 	0.000201202017 	-1.837971431e-10 	0 	0 	0
0.9940191294 	0 	0 	0 	1.076174363 	0.0001824208286 	-1.713124393e-10 	0 	0 	0
0.9943544022 	0 	0 	0 	1.046922291 	0.0001645916963 	-1.586187368e-10 	0 	0 	0
0.994689675 	0 	0 	0 	1.014435062 	0.0001478228149 	-1.456642125e-10 	0 	0 	0
0.9950249478 	0 	0 	0 	0.9780962377 	0.0001321187334 	-1.324031623e-10 	0 	0 	0
0.9953602206 	0 	0 	0 	0.9371451131 	0.0001170979129 	-1.187868124e-10 	0 	0 	0
0.9956954934 	0 	0 	0 	0.8906487483 	0.0001011756362 	-1.047680027e-10 	0 	0 	0
0.9960307663 	0 	0 	0 	0.8374821053 	7.961246672e-05 	-9.03630199e-11 	0 	0 	0
0.9963660391 	0 	0 	0 	0.7763403648 	4.330727803e-05 	-7.616929028e-11 	0 	0 	0
0.9967013119 	0 	0 	0 	0.7058467092 	-9.479766684e-06 	-6.428092089e-11 	0 	0 	0
0.9970365847 	0 	0 	0 	0.6248923833 	-4.270432258e-05 	-5.589173717e-11 	0 	0 	0
0.9973718575 	0 	0 	0 	0.5333515434 	-4.635008473e-06 	-4.533180035e-11 	0 	0 	0
0.9977071303 	0 	0 	0 	0.4328829453 	6.770876736e-05 	-2.779987993e-11 	0 	0 	0
0.9980424031 	0 	0 	0 	0.3267410174 	7.98968387e-05 	-1.170084086e-11 	0 	0 	0
0.998377676 	0 	0 	0 	0.2181784801 	3.623929577e-05 	-4.415903372e-12 	0 	0 	0
0.9987129488 	0 	0 	0 	0.1090638386 	5.10162169e-06 	-1.626948154e-12 	0 	0 	0