0.3179529243 	312.0303645 	60.31420838 	-0.01253733532
0.318152706 	0 	0 	0
0.3183524966 	0 	0 	0
0.318552295 	0 	0 	0
0.3187521003 	0 	0 	0
0.3189519114 	0 	0 	0
0.3191517275 	0 	0 	0
0.3193515475 	0 	0 	0
0.3195513705 	0 	0 	0
0.3197511955 	0 	0 	0
0.3199510214 	0 	0 	0
0.3201508474 	0 	0 	0
0.3203506724 	0 	0 	0
0.3205504955 	0 	0 	0
0.3207503157 	0 	0 	0
0.3209501321 	0 	0 	0
0.3211499436 	0 	0 	0
0.3213497493 	0 	0 	0
0.3215495483 	0 	0 	0
0.3217493395 	0 	0 	0
0.3219491221 	0 	0 	0
0.322148895 	0 	0 	0
0.3223486573 	0 	0 	0
0.322548408 	0 	0 	0
0.3227481462 	0 	0 	0
0.322947871 	0 	0 	0
0.3231475813 	0 	0 	0
0.3233472762 	0 	0 	0
0.3235469548 	0 	0 	0
0.3237466161 	0 	0 	0
0.3239462591 	0 	0 	0
0.32425642 	0 	0 	0
0.3245723591 	0 	0 	0
0.3248941791 	0 	0 	0
0.3252219844 	0 	0 	0
0.3255558808 	0 	0 	0
0.3258959756 	0 	0 	0
0.3262423775 	0 	0 	0
0.3265951969 	0 	0 	0
0.3269545455 	0 	0 	0
0.3273205366 	0 	0 	0
0.3276932849 	0 	0 	0
0.3280729065 	0 	0 	0
0.328459519 	0 	0 	0
0.3288532414 	0 	0 	0
0.3292541942 	0 	0 	0
0.329662499 	0 	0 	0
0.330078279 	0 	0 	0
0.3305016584 	0 	0 	0
0.330932763 	0 	0 	0
0.3313717196 	0 	0 	0
0.3318186562 	0 	0 	0
0.332273702 	0 	0 	0
0.3327369872 	0 	0 	0
0.333208643 	0 	0 	0
0.333690202 	0 	0 	0
0.3341943182 	0 	0 	0
0.3347076387 	0 	0 	0
0.3352303273 	0 	0 	0
0.3357625509 	0 	0 	0
0.3363044791 	0 	0 	0
0.3368562843 	0 	0 	0
0.337418142 	0 	0 	0
0.3374324648 	0 	0 	0
0.337988836 	0 	0 	0
0.3385698873 	0 	0 	0
0.3391615162 	0 	0 	0
0.3397639102 	0 	0 	0
0.3403772602 	0 	0 	0
0.3410017602 	0 	0 	0
0.3416376076 	0 	0 	0
0.342285003 	0 	0 	0
0.3429441507 	0 	0 	0
0.3436152583 	0 	0 	0
0.3442985368 	0 	0 	0
0.3449942011 	0 	0 	0
0.3457024694 	0 	0 	0
0.3464235639 	0 	0 	0
0.3471577105 	0 	0 	0
0.3479051389 	0 	0 	0
0.3486660827 	0 	0 	0
0.34945109 	0 	0 	0
0.3502630611 	0 	0 	0
0.3510896352 	0 	0 	0
0.3519310666 	0 	0 	0
0.3527876142 	0 	0 	0
0.3536595409 	0 	0 	0
0.3545471142 	0 	0 	0
0.3554506062 	0 	0 	0
0.3563702933 	0 	0 	0
0.357306457 	0 	0 	0
0.358259383 	0 	0 	0
0.3597206513 	0 	0 	0
0.3611962551 	0 	0 	0
0.3622065599 	0 	0 	0
0.3626853298 	0 	0 	0
0.3641869071 	0 	0 	0
0.3657415917 	0 	0 	0
0.3673153958 	0 	0 	0
0.3689044967 	0 	0 	0
0.3705090474 	0 	0 	0
0.372129203 	0 	0 	0
0.3737651208 	0 	0 	0
0.3754169603 	0 	0 	0
0.3770848833 	0 	0 	0
0.3787690537 	0 	0 	0
0.3804988631 	0 	0 	0
0.3822608994 	0 	0 	0
0.384039893 	0 	0 	0
0.3858360178 	0 	0 	0
0.3876494502 	0 	0 	0
0.3894803696 	0 	0 	0
0.3900584941 	0 	0 	0
0.3913268074 	0 	0 	0
0.3931901374 	0 	0 	0
0.3950927878 	0 	0 	0
0.3970388981 	0 	0 	0
0.3990036413 	0 	0 	0
0.400987215 	0 	0 	0
0.4029898197 	0 	0 	0
0.4050116593 	0 	0 	0
0.4070529411 	0 	0 	0
0.4091191997 	0 	0 	0
0.4112474576 	0 	0 	0
0.4133959597 	0 	0 	0
0.4155649276 	0 	0 	0
0.4177545874 	0 	0 	0
0.4199651688 	0 	0 	0
0.4221969057 	0 	0 	0
0.4223203246 	0 	0 	0
0.424469228 	0 	0 	0
0.4267889352 	0 	0 	0
0.4291306938 	0 	0 	0
0.4314947558 	0 	0 	0
0.4338813777 	0 	0 	0
0.4362908213 	0 	0 	0
0.43874163 	0 	0 	0
0.4412451404 	0 	0 	0
0.4437723886 	0 	0 	0
0.446323657 	0 	0 	0
0.4488992335 	0 	0 	0
0.4514994119 	0 	0 	0
0.4541616688 	0 	0 	0
0.4568588278 	0 	0 	0
0.4595815725 	0 	0 	0
0.4615041402 	0 	0 	0
0.4623294293 	0 	0 	0
0.4651017109 	0 	0 	0
0.4679286799 	0 	0 	0
0.4708000474 	0 	0 	0
0.4736987461 	0 	0 	0
0.476625129 	0 	0 	0
0.4795795562 	0 	0 	0
0.4825972259 	0 	0 	0
0.4856526605 	0 	0 	0
0.4887372686 	0 	0 	0
0.4918514422 	0 	0 	0
0.4950073042 	0 	0 	0
0.4982235491 	0 	0 	0
0.5014705527 	0 	0 	0
0.5047487424 	0 	0 	0
0.5080599365 	0 	0 	0
0.5114411945 	0 	0 	0
0.5135991682 	0 	0 	0
0.5148541725 	0 	0 	0
0.5182988631 	0 	0 	0
0.5217779526 	0 	0 	0
0.52532682 	0 	0 	0
0.528910028 	0 	0 	0
0.5325280828 	0 	0 	0
0.5361891746 	0 	0 	0
0.539912511 	0 	0 	0
0.5436721471 	0 	0 	0
0.5474686338 	0 	0 	0
0.5513216279 	0 	0 	0
0.5552246668 	0 	0 	0
0.5591661162 	0 	0 	0
0.5631511971 	0 	0 	0
0.5671996694 	0 	0 	0
0.5712881919 	0 	0 	0
0.5754174009 	0 	0 	0
0.5796100922 	0 	0 	0
0.5838480727 	0 	0 	0
0.5881285045 	0 	0 	0
0.592468147 	0 	0 	0
0.5968582973 	0 	0 	0
0.6012927572 	0 	0 	0
0.6057856853 	0 	0 	0
0.6058686619 	0 	0 	0
0.6103303191 	0 	0 	0
0.6149212656 	0 	0 	0
0.6195723842 	0 	0 	0
0.6242759264 	0 	0 	0
0.6290278534 	0 	0 	0
0.6338430612 	0 	0 	0
0.6387094544 	0 	0 	0
0.6436287687 	0 	0 	0
0.6486104566 	0 	0 	0
0.6535885607 	0 	0 	0
0.65851419 	0 	0 	0
0.6633878192 	0 	0 	0
0.6682048624 	0 	0 	0
0.6729731885 	0 	0 	0
0.6776883892 	0 	0 	0
0.6823494001 	0 	0 	0
0.6869638811 	0 	0 	0
0.69152573 	0 	0 	0
0.6960360527 	0 	0 	0
0.7005001735 	0 	0 	0
0.7049135952 	0 	0 	0
0.7092775063 	0 	0 	0
0.7135960089 	0 	0 	0
0.7178657865 	0 	0 	0
0.7220875898 	0 	0 	0
0.7262652504 	0 	0 	0
0.7303960315 	0 	0 	0
0.7344805912 	0 	0 	0
0.7385215828 	0 	0 	0
0.7425178833 	0 	0 	0
0.7464696505 	0 	0 	0
0.7503784336 	0 	0 	0
0.7542446399 	0 	0 	0
0.7580679078 	0 	0 	0
0.7618489142 	0 	0 	0
0.7655892833 	0 	0 	0
0.7692882266 	0 	0 	0
0.7729462699 	0 	0 	0
0.7765644362 	0 	0 	0
0.7801431096 	0 	0 	0
0.7836822925 	0 	0 	0
0.7871824709 	0 	0 	0
0.7906446711 	0 	0 	0
0.7940688637 	0 	0 	0
0.7974553732 	0 	0 	0
0.8008046515 	0 	0 	0
0.8041175789 	0 	0 	0
0.8073941181 	0 	0 	0
0.8106346707 	0 	0 	0
0.8138396595 	0 	0 	0
0.8170097807 	0 	0 	0
0.8175402391 	0 	0 	0
0.8201450131 	0 	0 	0
0.8232458362 	0 	0 	0
0.8263126747 	0 	0 	0
0.8293460587 	0 	0 	0
0.832346269 	0 	0 	0
0.8353136109 	0 	0 	0
0.8382484591 	0 	0 	0
0.8411512145 	0 	0 	0
0.8440222961 	0 	0 	0
0.8468619449 	0 	0 	0
0.8496705157 	0 	0 	0
0.852448358 	0 	0 	0
0.8551958614 	0 	0 	0
0.857913338 	0 	0 	0
0.8606010833 	0 	0 	0
0.8632594293 	0 	0 	0
0.8658887031 	0 	0 	0
0.8684892567 	0 	0 	0
0.8710613826 	0 	0 	0
0.8736053763 	0 	0 	0
0.8761215493 	0 	0 	0
0.8786102089 	0 	0 	0
0.8810716699 	0 	0 	0
0.883506227 	0 	0 	0
0.8859141583 	0 	0 	0
0.888295757 	0 	0 	0
0.8906513125 	0 	0 	0
0.8929811107 	0 	0 	0
0.8952854442 	0 	0 	0
0.8975645752 	0 	0 	0
0.8998187786 	0 	0 	0
0.9020483272 	0 	0 	0
0.9042534911 	0 	0 	0
0.9064345369 	0 	0 	0
0.9085917323 	0 	0 	0
0.9107253281 	0 	0 	0
0.912835582 	0 	0 	0
0.9149227491 	0 	0 	0
0.9169870814 	0 	0 	0
0.9190288278 	0 	0 	0
0.9210482361 	0 	0 	0
0.923045546 	0 	0 	0
0.9250209973 	0 	0 	0
0.9269748283 	0 	0 	0
0.9289072748 	0 	0 	0
0.9308185697 	0 	0 	0
0.9327089434 	0 	0 	0
0.9345786239 	0 	0 	0
0.9364278344 	0 	0 	0
0.9382567978 	0 	0 	0
0.9400657346 	0 	0 	0
0.9418548629 	0 	0 	0
0.9436243985 	0 	0 	0
0.9453745545 	0 	0 	0
0.9471055421 	0 	0 	0
0.948817569 	0 	0 	0
0.9505108414 	0 	0 	0
0.9521855636 	0 	0 	0
0.9532765531 	0 	0 	0
0.9543474718 	0 	0 	0
0.9553986881 	0 	0 	0
0.9564305636 	0 	0 	0
0.957443453 	0 	0 	0
0.958437705 	0 	0 	0
0.9594136616 	0 	0 	0
0.9603716585 	0 	0 	0
0.9613120254 	0 	0 	0
0.962235086 	0 	0 	0
0.963141158 	0 	0 	0
0.9640305534 	0 	0 	0
0.9649035784 	0 	0 	0
0.9657605337 	0 	0 	0
0.9666017145 	0 	0 	0
0.9674274106 	0 	0 	0
0.9682379063 	0 	0 	0
0.9690334809 	0 	0 	0
0.9698144087 	0 	0 	0
0.9705809586 	0 	0 	0
0.9713333949 	0 	0 	0
0.972071977 	0 	0 	0
0.9727969594 	0 	0 	0
0.9735085922 	0 	0 	0
0.9742071205 	0 	0 	0
0.9748927854 	0 	0 	0
0.9755658233 	0 	0 	0
0.9762264663 	0 	0 	0
0.9768749423 	0 	0 	0
0.9775114751 	0 	0 	0
0.9781362841 	0 	0 	0
0.9787495851 	0 	0 	0
0.9793515896 	0 	0 	0
0.9799425054 	0 	0 	0
0.9805225364 	0 	0 	0
0.9810918828 	0 	0 	0
0.9816507412 	0 	0 	0
0.9821993045 	0 	0 	0
0.9827377621 	0 	0 	0
0.9832662998 	0 	0 	0
0.9837851002 	0 	0 	0
0.9842943424 	0 	0 	0
0.9847942024 	0 	0 	0
0.9852848526 	0 	0 	0
0.9857664627 	0 	0 	0
0.986239199 	0 	0 	0
0.9867032246 	0 	0 	0
0.9871587001 	0 	0 	0
0.9876057827 	0 	0 	0
0.9880446269 	0 	0 	0
0.9884753843 	0 	0 	0
0.9888982039 	0 	0 	0
0.9893132316 	0 	0 	0
0.989720611 	0 	0 	0
0.9901204828 	0 	0 	0
0.9905129853 	0 	0 	0
0.9908982542 	0 	0 	0
0.9912764225 	0 	0 	0
0.9916476211 	0 	0 	0
0.9920119783 	0 	0 	0
0.9922464807 	0 	0 	0
0.9924809859 	0 	0 	0
0.9927154937 	0 	0 	0
0.9929500042 	0 	0 	0
0.9931845174 	0 	0 	0
0.9934190332 	0 	0 	0
0.9936535518 	0 	0 	0
0.9938880731 	0 	0 	0
0.994122597 	0 	0 	0
0.9943571236 	0 	0 	0
0.994591653 	0 	0 	0
0.994826185 	0 	0 	0
0.9950607197 	0 	0 	0
0.9952952571 	0 	0 	0
0.9955297972 	0 	0 	0
0.99576434 	0 	0 	0
0.9959988855 	0 	0 	0
0.9962334336 	0 	0 	0
0.9964679845 	0 	0 	0
0.996702538 	0 	0 	0
0.9969370943 	0 	0 	0
0.9971716532 	0 	0 	0
0.9974062148 	0 	0 	0
0.9976407792 	0 	0 	0
0.9978753462 	0 	0 	0
0.9981099159 	0 	0 	0
0.9983444883 	0 	0 	0
0.9985790633 	0 	0 	0
0.9988136411 	0 	0 	0
0.9990482216 	80.89685015 	-0.01657108414 	7.611173211e-08
