0.4642857292 	3.537652327e-06 	-2.395567461e-08 	3.037336935e-12 	3.533725802e-06 	-1.765100779e-10 	6.736263527e-09
0.4644580585 	3.94759751e-05 	-1.034687323e-06 	1.018963538e-10 	3.952192909e-05 	-1.360926888e-09 	7.533978139e-08
0.4646303886 	0.0002174925573 	-1.318892488e-05 	1.088085767e-09 	0.0002186219571 	-5.924109962e-09 	4.167542131e-07
0.4648027194 	0.0007133799381 	-7.895704165e-05 	5.457509152e-09 	0.000721248032 	-1.468514281e-08 	1.374899209e-06
0.464975051 	0.001716286743 	-0.0002966982698 	1.677446817e-08 	0.001747548689 	-2.302954474e-08 	3.331313508e-06
0.4651473832 	0.003352811474 	-0.0008024935024 	3.589619233e-08 	0.003439395563 	-1.90251208e-08 	6.556443873e-06
0.4653197161 	0.005617123021 	-0.001693625653 	5.792187314e-08 	0.0058022744 	1.150982458e-08 	1.106074767e-05
0.4654920495 	0.008356643591 	-0.002955043811 	7.479495975e-08 	0.008682910774 	7.564628684e-08 	1.655204122e-05
0.4656643834 	0.01133655792 	-0.004465235107 	8.069754202e-08 	0.01183299278 	1.691505323e-07 	2.255697306e-05
0.4658367177 	0.01433109169 	-0.006066893479 	7.418671675e-08 	0.01500764777 	2.806139052e-07 	2.860874781e-05
0.4660090525 	0.01717883858 	-0.007630124392 	5.695743249e-08 	0.01802951031 	3.97286547e-07 	3.43692577e-05
0.4661813876 	0.01979067581 	-0.009074395891 	3.216493351e-08 	0.02079992955 	5.115242398e-07 	3.965044676e-05
0.466353723 	0.02213275892 	-0.01036263746 	1.641695906e-09 	0.02328367819 	6.18583518e-07 	4.438516199e-05
0.4665260587 	0.02420605317 	-0.01148174431 	-7.539458433e-10 	0.02548146731 	7.09145447e-07 	4.85747589e-05
0.4666983945 	0.02603259009 	-0.01240558973 	5.674671011e-09 	0.02740572115 	7.861063756e-07 	5.224292153e-05
0.4668707305 	0.02763875635 	-0.01317070275 	-9.284775491e-09 	0.02908922816 	8.573582412e-07 	5.545215381e-05
0.4670430666 	0.02904796371 	-0.01384177026 	-2.300601068e-08 	0.03057036019 	9.177213048e-07 	5.827560311e-05
0.4672154027 	0.03028396763 	-0.01443026065 	-3.531916814e-08 	0.03186969539 	9.668158952e-07 	6.075249713e-05
0.4673877388 	0.03136898667 	-0.01494687357 	-4.612346185e-08 	0.0330077877 	1.008089929e-06 	6.292201739e-05
0.4675600748 	0.03232308059 	-0.01540109353 	-5.536458932e-08 	0.03400786712 	1.041666143e-06 	6.482844672e-05
0.4677324107 	0.03316391851 	-0.01580123546 	-6.311616729e-08 	0.0348886273 	1.068446087e-06 	6.650742043e-05
0.4679047464 	0.03390684038 	-0.01615464872 	-6.958367165e-08 	0.03566618994 	1.089426307e-06 	6.798967093e-05
0.4680770819 	0.0345650556 	-0.01646772515 	-7.497899877e-08 	0.03635446287 	1.105693618e-06 	6.930171044e-05
0.4682494171 	0.03514989664 	-0.01674585466 	-7.944025574e-08 	0.03696514775 	1.119991359e-06 	7.046584555e-05
0.468421752 	0.03567106391 	-0.01699365094 	-8.332252281e-08 	0.03750852984 	1.126870365e-06 	7.150168283e-05
0.4685940865 	0.03613686762 	-0.01721503394 	-8.670721669e-08 	0.03799470482 	1.127559627e-06 	7.242846747e-05
0.4687664205 	0.03655481264 	-0.01740772626 	-1.384160338e-07 	0.03843022405 	1.140619406e-06 	7.325868817e-05
0.4689387541 	0.03693171372 	-0.0175650771 	-1.833956762e-07 	0.03881889638 	1.148008246e-06 	7.399960565e-05
0.4691110871 	0.03727242764 	-0.01769731336 	-1.802330326e-07 	0.03916744275 	1.138111134e-06 	7.466403191e-05
0.4692834196 	0.03758067358 	-0.01781657564 	-1.836996211e-07 	0.03948294846 	1.134323824e-06 	7.526547348e-05
0.4694557514 	0.03789630738 	-0.01794717423 	-1.86216337e-07 	0.03980921646 	1.134539531e-06 	7.588743097e-05
0.4697235139 	0.03824495292 	-0.0180875679 	-1.876769809e-07 	0.04016794569 	1.128463305e-06 	7.657126859e-05
0.469996307 	0.03858200609 	-0.01820987422 	-1.884474209e-07 	0.04050916008 	1.121404153e-06 	7.722171805e-05
0.4702742251 	0.03887778273 	-0.01831380866 	-1.884979559e-07 	0.04080781775 	1.113479309e-06 	7.779104257e-05
0.4705573642 	0.03913714073 	-0.01840178698 	-1.884106e-07 	0.0410694218 	1.104729725e-06 	7.82897326e-05
0.470845822 	0.03936421507 	-0.01847624702 	-1.885480797e-07 	0.04129659606 	1.095155258e-06 	7.872278989e-05
0.4711396981 	0.03956256395 	-0.01853898139 	-1.890360594e-07 	0.04149368885 	1.084640093e-06 	7.909850352e-05
0.471439094 	0.03973525966 	-0.01859129434 	-1.899131657e-07 	0.04166390789 	1.073055271e-06 	7.942298832e-05
0.4717441131 	0.03988495547 	-0.01863431825 	-1.911607128e-07 	0.04181003955 	1.060273315e-06 	7.970155589e-05
0.4720548606 	0.04001395365 	-0.01866902578 	-1.927162356e-07 	0.04193450729 	1.0461821e-06 	7.993882598e-05
0.4723714436 	0.04012425996 	-0.0186962616 	-1.945153274e-07 	0.04203941455 	1.030706951e-06 	8.013880838e-05
0.4726939714 	0.04021762864 	-0.01871676173 	-1.964122122e-07 	0.04212660119 	1.013781983e-06 	8.030501035e-05
0.473022555 	0.04029559971 	-0.01873116833 	-1.98186641e-07 	0.04219768059 	9.953498738e-07 	8.044050744e-05
0.4733573078 	0.04035952954 	-0.01874004709 	-1.996534701e-07 	0.04225407305 	9.753995109e-07 	8.054800715e-05
0.473698345 	0.04041061661 	-0.0187438984 	-2.006454005e-07 	0.04229703258 	9.539491989e-07 	8.062989995e-05
0.4740457841 	0.04044992288 	-0.01874316837 	-2.010184275e-07 	0.04232767331 	9.310413177e-07 	8.06883097e-05
0.4743997447 	0.04047839171 	-0.01873825628 	-2.006583218e-07 	0.04234696937 	9.067503418e-07 	8.072509335e-05
0.4747603486 	0.04049686355 	-0.01872951365 	-1.994710776e-07 	0.04235580393 	8.811496923e-07 	8.074193447e-05
0.4751277197 	0.04050608891 	-0.01871729484 	-1.974344104e-07 	0.0423549731 	8.54336429e-07 	8.074035069e-05
0.4755030077 	0.04050672019 	-0.01870185504 	-1.945029861e-07 	0.04234512484 	8.263594112e-07 	8.072157716e-05
0.4758860811 	0.04049932222 	-0.01868335973 	-1.905915108e-07 	0.04232683437 	7.973288479e-07 	8.068671044e-05
0.4762763472 	0.04048442158 	-0.01866206787 	-1.85718268e-07 	0.04230066585 	7.674374773e-07 	8.063682596e-05
0.4766739408 	0.04046251101 	-0.01863824334 	-1.799458727e-07 	0.04226714303 	7.368670204e-07 	8.057292215e-05
0.4770789995 	0.04043403234 	-0.01861208835 	-1.733177453e-07 	0.04222672255 	7.057682384e-07 	8.049586948e-05
0.4774916633 	0.04039938242 	-0.01858378493 	-1.658984798e-07 	0.04217980756 	6.742849664e-07 	8.040643647e-05
0.4779120749 	0.04035891815 	-0.01855349644 	-1.577691689e-07 	0.04212676552 	6.42564819e-07 	8.030532361e-05
0.4783403796 	0.04031296041 	-0.01852136974 	-1.490184845e-07 	0.04206792386 	6.107488008e-07 	8.019315505e-05
0.4787767255 	0.04026179757 	-0.0184875374 	-1.397405999e-07 	0.04200357561 	5.789728316e-07 	8.007048941e-05
0.4792212634 	0.04020568863 	-0.01845211885 	-1.300334601e-07 	0.04193398272 	5.473670982e-07 	7.993782601e-05
0.4796741471 	0.0401448659 	-0.01841522129 	-1.199970475e-07 	0.04185937892 	5.160545794e-07 	7.979561044e-05
0.480135533 	0.04007953743 	-0.01837694064 	-1.097316286e-07 	0.04177997237 	4.851503406e-07 	7.964423949e-05
0.4806055808 	0.04000988916 	-0.01833736228 	-9.933601009e-08 	0.04169594794 	4.547609374e-07 	7.948406556e-05
0.4810844527 	0.03993608674 	-0.01829656175 	-8.890611857e-08 	0.04160746922 	4.249841497e-07 	7.931540053e-05
0.4815723144 	0.03985827725 	-0.01825460529 	-7.853413442e-08 	0.04151468034 	3.959087964e-07 	7.913851914e-05
0.4820693345 	0.03977659061 	-0.01821155036 	-6.830830838e-08 	0.04141770758 	3.676148595e-07 	7.89536621e-05
0.4825756847 	0.03969114096 	-0.01816744593 	-5.831431031e-08 	0.04131666077 	3.401734566e-07 	7.87610388e-05
0.4830915401 	0.03960202768 	-0.01812233266 	-4.863770096e-08 	0.04121163467 	3.136463584e-07 	7.856082987e-05
0.483617079 	0.03950933639 	-0.01807624285 	-3.936491632e-08 	0.04110270978 	2.880866908e-07 	7.835318875e-05
0.4841524829 	0.03941313985 	-0.01802920112 	-3.057826902e-08 	0.04098995564 	2.635410825e-07 	7.813824802e-05
0.4846979369 	0.03931349878 	-0.01798122474 	-2.234935922e-08 	0.04087342504 	2.400511996e-07 	7.791610831e-05
0.4852536295 	0.03921046298 	-0.01793231605 	-1.473178925e-08 	0.04075315672 	2.176409081e-07 	7.768684346e-05
0.4858197528 	0.03910404005 	-0.0178824616 	-7.765635655e-09 	0.04062917917 	1.963156375e-07 	7.745050779e-05
0.4863971602 	0.03899413609 	-0.01783161496 	-1.492929583e-09 	0.04050133637 	1.760524838e-07 	7.720680388e-05
0.4869872469 	0.0388807076 	-0.01777968192 	4.126498118e-09 	0.04036957809 	1.568187784e-07 	7.695563599e-05
0.4875884075 	0.03876387703 	-0.01772668298 	9.055751491e-09 	0.04023405696 	1.386960239e-07 	7.669729505e-05
0.4882008498 	0.0386437297 	-0.01767268558 	1.319560805e-08 	0.0400948511 	1.217225651e-07 	7.643192998e-05
0.4888247852 	0.03852025873 	-0.01761766043 	1.650215132e-08 	0.0399519791 	1.059005844e-07 	7.615957625e-05
0.4894604292 	0.0383934491 	-0.01756156592 	1.892860114e-08 	0.03980541312 	9.120705638e-08 	7.588018075e-05
0.4901080013 	0.0382632778 	-0.01750434958 	2.044949305e-08 	0.03965513744 	7.761950391e-08 	7.559371354e-05
0.4907677251 	0.03812971434 	-0.01744594458 	2.101565026e-08 	0.03950112701 	6.512269821e-08 	7.530012686e-05
0.4914398285 	0.03799272102 	-0.01738626912 	2.060542675e-08 	0.03934335137 	5.369330065e-08 	7.499936264e-05
0.4921245435 	0.03785225324 	-0.01732522256 	1.92413613e-08 	0.03918177559 	4.329194862e-08 	7.469135428e-05
0.4928221066 	0.0377082599 	-0.01726268251 	1.693855606e-08 	0.03901636111 	3.388554545e-08 	7.437602831e-05
0.4935327586 	0.03756068408 	-0.01719849968 	1.372223305e-08 	0.03884706587 	2.544076792e-08 	7.405330452e-05
0.494256745 	0.03740946392 	-0.01713249258 	9.633416308e-09 	0.03867384941 	1.791811374e-08 	7.372310582e-05
0.4949943156 	0.03725453352 	-0.017064445 	4.742104239e-09 	0.03849667086 	1.127435182e-08 	7.338535425e-05
0.4957457251 	0.03709582517 	-0.01699408946 	-8.121312682e-10 	0.03831546142 	5.450808493e-09 	7.30399187e-05
0.496511233 	0.03693324165 	-0.01692117728 	-6.698483543e-09 	0.03813034078 	3.725118751e-10 	7.268702731e-05
0.4972915864 	0.03676654123 	-0.01684556881 	-1.219144917e-08 	0.03794059592 	-3.772686124e-09 	7.232532086e-05
0.4980891876 	0.03659554954 	-0.01676706317 	-1.580644045e-08 	0.03774600689 	-7.082009788e-09 	7.19543801e-05
0.4989017502 	0.03639760583 	-0.01667897454 	-1.462426594e-08 	0.03752251406 	-1.091559432e-08 	7.152834065e-05
0.5001491012 	0.03614994327 	-0.01656781502 	-7.559888356e-09 	0.03724288321 	-1.521885688e-08 	7.099528652e-05
0.5014103017 	0.03587555107 	-0.0164410601 	4.852728912e-10 	0.03693164939 	-1.852332963e-08 	7.040198835e-05
0.502685506 	0.03559708082 	-0.01631271978 	6.130533869e-09 	0.03661601358 	-1.997974877e-08 	6.980029877e-05
0.5039748697 	0.03531466408 	-0.01618276078 	8.888753826e-09 	0.03629609353 	-1.973464295e-08 	6.919044225e-05
0.5052785505 	0.03502838989 	-0.01605132607 	9.126765143e-09 	0.03597150844 	-1.771557357e-08 	6.857169286e-05
0.5065967078 	0.03473833818 	-0.01591843641 	7.389018859e-09 	0.03564274833 	-1.375433514e-08 	6.794498471e-05
0.5079295026 	0.03444434055 	-0.01578404818 	4.152761056e-09 	0.03530961018 	-7.759934662e-09 	6.730993081e-05
0.5092206927 	0.0341595843 	-0.01565415968 	3.483478106e-07 	0.03498711647 	-8.445785496e-07 	6.669516816e-05
0.5092813988 	0.03414619296 	-0.01564805588 	4.120303142e-10 	0.03497195139 	-4.501026033e-10 	6.666625929e-05
0.5106484713 	0.03384417687 	-0.01551061691 	9.761573178e-09 	0.03463015991 	-1.152109311e-08 	6.601470975e-05
0.5120307241 	0.03353860234 	-0.01537186458 	1.937795796e-08 	0.03428454548 	-2.46455186e-08 	6.535587258e-05
0.5134283261 	0.03322954759 	-0.01523192022 	2.922993947e-08 	0.03393528215 	-3.988885262e-08 	6.469007959e-05
0.5148414483 	0.03291706195 	-0.01509095251 	3.936896594e-08 	0.03358240879 	-5.731619657e-08 	6.40174049e-05
0.5162702635 	0.03260119054 	-0.01494920073 	4.993396848e-08 	0.03322595657 	-7.699066346e-08 	6.33379079e-05
0.5177149467 	0.03228192705 	-0.01480699063 	6.11675632e-08 	0.03286595371 	-9.89656895e-08 	6.265164239e-05
0.5191764905 	0.03195903757 	-0.01466472717 	7.348537806e-08 	0.032502058 	-1.233305301e-07 	6.195795604e-05
0.5206581837 	0.03163237176 	-0.01452289123 	8.768444428e-08 	0.03213411285 	-1.503454089e-07 	6.125655031e-05
0.5221563259 	0.03130221948 	-0.01438228656 	1.048626975e-07 	0.03176240775 	-1.799474155e-07 	6.054797708e-05
0.5236711006 	0.03096883945 	-0.01424399953 	1.266101267e-07 	0.03138707536 	-2.12571954e-07 	5.983248922e-05
0.525202693 	0.03063235289 	-0.014109354 	1.592494485e-07 	0.03100825517 	-2.510633344e-07 	5.911035265e-05
0.5267512907 	0.03029309956 	-0.01398060531 	2.138397814e-07 	0.03062544101 	-2.684618643e-07 	5.838060247e-05
0.5283170833 	0.02995168529 	-0.01386134043 	3.197729645e-07 	0.03023479686 	-2.76578672e-07 	5.763592614e-05
0.5299006786 	0.02960946042 	-0.01376155974 	6.088374043e-07 	0.02983630426 	-3.448790636e-07 	5.68762885e-05
0.5315060786 	0.02927276974 	-0.01369163043 	7.193455197e-07 	0.02943305621 	-3.246917373e-07 	5.610758564e-05
0.5331292981 	0.02895305011 	-0.01360812838 	3.393355405e-07 	0.02900747695 	-1.091945369e-07 	5.529631327e-05
0.5347705361 	0.02865008731 	-0.01346144287 	3.578927126e-08 	0.0285421357 	3.735403561e-08 	5.440924353e-05
0.5364299936 	0.02834520399 	-0.01327657826 	-1.006081609e-08 	0.02805215393 	1.807369213e-08 	5.347520209e-05
0.5381078739 	0.02802064908 	-0.01308580979 	-4.880128308e-08 	0.02754908646 	-3.949411235e-08 	5.251621567e-05
0.5398043827 	0.0276729605 	-0.01289322593 	-6.805401324e-08 	0.02705697179 	-1.821641372e-07 	5.157810832e-05
0.541522211 	0.02731033455 	-0.01270140452 	-1.703879508e-07 	0.02660334465 	-3.685601263e-07 	5.071336893e-05
0.543261121 	0.02694619062 	-0.01235101815 	-5.629261318e-07 	0.02615069894 	-4.448881129e-07 	4.98505004e-05
0.5450193315 	0.02658783804 	-0.01183419155 	-7.194252442e-07 	0.02569247699 	-5.33405188e-07 	4.8977002e-05
0.546797058 	0.02623607514 	-0.01132915174 	-4.502317373e-07 	0.02527030695 	-6.826184539e-07 	4.817222856e-05
0.5485945187 	0.02589210731 	-0.01085791568 	-2.242957961e-07 	0.02486407023 	-7.34430082e-07 	4.739782847e-05
0.550411934 	0.02555676761 	-0.01041435338 	-2.472072335e-08 	0.02445000403 	-7.530337911e-07 	4.660850321e-05
0.5522516129 	0.02523016471 	-0.00999287699 	1.309720852e-07 	0.02403830972 	-8.125295816e-07 	4.582369943e-05
0.554113947 	0.02491250465 	-0.009586818742 	2.49221593e-07 	0.02363240964 	-8.724312993e-07 	4.504994106e-05
0.555996951 	0.02460426815 	-0.009193212603 	3.438839315e-07 	0.02323327566 	-9.347205755e-07 	4.428908077e-05
0.557900856 	0.02430582446 	-0.008810594906 	4.214521576e-07 	0.02284185401 	-9.982059071e-07 	4.35429223e-05
0.5598258958 	0.02401744507 	-0.008437952563 	4.863271387e-07 	0.02245869114 	-1.062543249e-06 	4.281250739e-05
0.561772307 	0.02373927714 	-0.008074503895 	5.412786526e-07 	0.02208396015 	-1.127853937e-06 	4.209816596e-05
0.5637436946 	0.02347146373 	-0.007719507364 	5.883127492e-07 	0.02171789198 	-1.193942457e-06 	4.14003383e-05
0.565737713 	0.02321438269 	-0.007372621805 	6.286351336e-07 	0.02136098988 	-1.260745891e-06 	4.071998368e-05
0.5677538642 	0.02296839193 	-0.00703370909 	6.630847724e-07 	0.02101361379 	-1.328859459e-06 	4.005778831e-05
0.5697923962 	0.0227336756 	-0.00670245687 	6.924796098e-07 	0.02067607731 	-1.39870394e-06 	3.941434997e-05
0.5718535597 	0.02251029283 	-0.006378522077 	7.174910439e-07 	0.02034839039 	-1.470560937e-06 	3.878968763e-05
0.5739395723 	0.02229822643 	-0.006061493605 	7.388062766e-07 	0.0200305076 	-1.544748173e-06 	3.818371467e-05
0.5760506688 	0.02209753836 	-0.005751086564 	7.568683101e-07 	0.01972255362 	-1.621299011e-06 	3.75966688e-05
0.578185199 	0.02190832855 	-0.00544721239 	7.718440322e-07 	0.01942464796 	-1.700151325e-06 	3.702877781e-05
0.5803434258 	0.02173059107 	-0.005149685559 	7.839763953e-07 	0.01913689435 	-1.781277127e-06 	3.648023945e-05
0.5825256149 	0.02156420188 	-0.004858206666 	7.935373759e-07 	0.01885918663 	-1.86473815e-06 	3.595085136e-05
0.5847338703 	0.02140898071 	-0.004572398253 	8.008745401e-07 	0.01859136471 	-1.950682368e-06 	3.544030834e-05
0.5869684579 	0.02126479371 	-0.004291967899 	8.061940128e-07 	0.01833343364 	-2.038950742e-06 	3.494862003e-05
0.5892278534 	0.02113152252 	-0.004016776965 	8.095230618e-07 	0.01808537292 	-2.129323533e-06 	3.447574735e-05
0.5915123353 	0.02100897437 	-0.003746594646 	8.11012353e-07 	0.01784721715 	-2.221584349e-06 	3.402175627e-05
0.5938221857 	0.02089686978 	-0.003481089071 	8.108597935e-07 	0.01761876583 	-2.315658054e-06 	3.358626456e-05
0.5961603287 	0.0207949131 	-0.003219847571 	8.094052208e-07 	0.01739990111 	-2.411506779e-06 	3.316904758e-05
0.5985251933 	0.02070285704 	-0.002962602472 	8.067801064e-07 	0.01719062981 	-2.508649458e-06 	3.27701183e-05
0.6009163178 	0.02062043621 	-0.002709175686 	8.030625373e-07 	0.0169909024 	-2.606755204e-06 	3.238938234e-05
0.6033339976 	0.02054733504 	-0.002459259087 	7.984855946e-07 	0.01680070208 	-2.705468584e-06 	3.202680768e-05
0.6057794613 	0.02048321388 	-0.002212475002 	7.933671404e-07 	0.01661987727 	-2.8045987e-06 	3.168210533e-05
0.6082543018 	0.0204277536 	-0.001968459937 	7.880335516e-07 	0.01644841432 	-2.903747834e-06 	3.135524929e-05
0.6107566274 	0.02038065823 	-0.001727001554 	7.826452821e-07 	0.01628629509 	-3.00234709e-06 	3.104620498e-05
0.6132867477 	0.02034161873 	-0.001487869446 	7.774400983e-07 	0.01613353809 	-3.099945606e-06 	3.075500768e-05
0.6158450817 	0.02031031496 	-0.001250731057 	7.727557325e-07 	0.01599003722 	-3.196223287e-06 	3.048145514e-05
0.6184346228 	0.02028645057 	-0.001015214369 	7.676564689e-07 	0.01585577579 	-3.284994481e-06 	3.022551554e-05
0.6210529287 	0.02026975904 	-0.0007811153264 	7.497265977e-07 	0.01573076523 	-3.309273158e-06 	2.998721067e-05
0.6237003239 	0.02025997815 	-0.0005482777092 	7.341459641e-07 	0.01561497923 	-3.331607372e-06 	2.976649037e-05
0.6263771365 	0.02025685929 	-0.0003164225063 	7.210218567e-07 	0.01550836026 	-3.351960127e-06 	2.956324499e-05
0.6290862714 	0.02026018371 	-8.523827512e-05 	7.10444967e-07 	0.0154108792 	-3.370381284e-06 	2.9377419e-05
0.6318255697 	0.02026975377 	0.0001454278356 	7.022890782e-07 	0.01532252942 	-3.387102381e-06 	2.920899974e-05
0.6345953098 	0.02028538324 	0.000375655801 	6.963022976e-07 	0.01524321811 	-3.402311908e-06 	2.905781035e-05
0.6373960678 	0.02030693905 	0.0006056486682 	6.925606237e-07 	0.01517286161 	-3.415562757e-06 	2.89236913e-05
0.6402301167 	0.02033430764 	0.0008356147881 	6.912966448e-07 	0.01511137272 	-3.426699424e-06 	2.880647639e-05
0.6430956648 	0.02036737137 	0.001065625336 	6.926088747e-07 	0.01505870254 	-3.436204078e-06 	2.870607239e-05
0.6459930683 	0.02040604283 	0.001295727205 	6.964547512e-07 	0.01501467595 	-3.443930879e-06 	2.862214547e-05
0.6489235108 	0.0204502627 	0.001526091924 	7.025581466e-07 	0.01497926424 	-3.449085899e-06 	2.855464091e-05
0.6518878645 	0.02050000504 	0.001756836418 	7.108284226e-07 	0.01495234588 	-3.453040739e-06 	2.850332703e-05
0.6548851782 	0.02055523906 	0.001987969352 	7.211025108e-07 	0.01493375822 	-3.457495714e-06 	2.84678938e-05
0.6579158249 	0.02061591182 	0.002219526589 	7.332368071e-07 	0.01492340326 	-3.462753192e-06 	2.844815435e-05
0.6609817596 	0.02068200384 	0.002451638972 	7.47377652e-07 	0.01492125689 	-3.468816626e-06 	2.844406278e-05
0.6640821389 	0.02075351468 	0.002684331447 	7.632603485e-07 	0.01492719622 	-3.475328112e-06 	2.84553848e-05
0.6672170054 	0.02083044629 	0.002917557446 	7.80607182e-07 	0.01494099466 	-3.482389446e-06 	2.848168845e-05
0.6703874269 	0.02091282445 	0.003151414415 	7.993764066e-07 	0.0149626106 	-3.490177308e-06 	2.852289446e-05
0.673594155 	0.02100066929 	0.003385950093 	8.19275691e-07 	0.0149919279 	-3.498780425e-06 	2.857878136e-05
0.6768365625 	0.02109399 	0.003621109898 	8.399403344e-07 	0.01502874443 	-3.508323529e-06 	2.864896391e-05
0.6801152063 	0.02119281585 	0.003856931925 	8.61266156e-07 	0.01507295764 	-3.519112625e-06 	2.873324657e-05
0.6834316982 	0.02129718034 	0.004093493881 	8.831533198e-07 	0.01512449558 	-3.531548245e-06 	2.883149222e-05
0.6867851015 	0.02140708694 	0.004330754042 	9.054316154e-07 	0.01518318224 	-3.546081087e-06 	2.89433653e-05
0.6901758354 	0.02152254313 	0.004568699207 	9.279153111e-07 	0.01524886952 	-3.562913324e-06 	2.90685835e-05
0.6936055424 	0.02164356575 	0.004807416488 	9.505775222e-07 	0.01532155207 	-3.582245231e-06 	2.920713666e-05
0.6970735343 	0.02177013762 	0.00504687184 	9.732960458e-07 	0.01540107659 	-3.604477628e-06 	2.935873249e-05
0.700580145 	0.02190223692 	0.005287021791 	9.958500638e-07 	0.01548728936 	-3.629773476e-06 	2.952307799e-05
0.7041267955 	0.02203984786 	0.005527934572 	1.018185504e-06 	0.01558023061 	-3.658247166e-06 	2.970024985e-05
0.7077131112 	0.02218291969 	0.005769553299 	1.040131407e-06 	0.01567976488 	-3.69027789e-06 	2.988998983e-05
0.7113393773 	0.0223313908 	0.006011793438 	1.061364672e-06 	0.01578577107 	-3.725980742e-06 	3.009206709e-05
0.7150069301 	0.02248519775 	0.00625465468 	1.081650191e-06 	0.01589832792 	-3.765422999e-06 	3.030663173e-05
0.7187154514 	0.02264423509 	0.006497982843 	1.100504978e-06 	0.01601732604 	-3.808888724e-06 	3.053347521e-05
0.7224653199 	0.02280837879 	0.006741609754 	1.117280228e-06 	0.016142728 	-3.856256275e-06 	3.07725262e-05
0.7262578107 	0.02297749439 	0.00698551463 	1.131675174e-06 	0.01627463204 	-3.907686211e-06 	3.102397196e-05
0.7300925709 	0.02315094949 	0.007229214742 	1.143870146e-06 	0.01641252572 	-3.963570223e-06 	3.128683564e-05
0.7339274599 	0.0233270638 	0.007471324705 	1.154643676e-06 	0.01655518511 	-4.022507482e-06 	3.15587841e-05
0.7377205243 	0.02350408606 	0.007710561077 	1.164768401e-06 	0.01670132568 	-4.08280629e-06 	3.183736864e-05
0.7414716977 	0.02368122627 	0.007946541488 	1.173806028e-06 	0.01685023815 	-4.143603382e-06 	3.212123719e-05
0.7451816807 	0.02385814604 	0.008179225427 	1.167106103e-06 	0.01700183414 	-4.158343917e-06 	3.241022128e-05
0.7488510254 	0.02403444505 	0.008408271277 	1.137963058e-06 	0.01715607807 	-4.114461548e-06 	3.270425309e-05
0.7524798606 	0.02420959011 	0.008632900424 	1.093382685e-06 	0.01731298852 	-4.059401932e-06 	3.300336802e-05
0.7560688559 	0.02438284922 	0.008851891975 	1.022296188e-06 	0.01747306962 	-3.98639467e-06 	3.330852708e-05
0.7596184549 	0.02455319171 	0.009063157183 	9.094045721e-07 	0.01763696791 	-3.893557912e-06 	3.362096279e-05
0.7631288782 	0.02471928835 	0.009263632714 	7.428026653e-07 	0.0178052734 	-3.784126852e-06 	3.394179982e-05
0.7666007261 	0.02488013563 	0.009450874583 	5.608364071e-07 	0.01797892968 	-3.651902947e-06 	3.427283696e-05
0.7700344366 	0.02503526455 	0.009621878032 	3.175452813e-07 	0.01815956736 	-3.472797776e-06 	3.461718257e-05
0.7734302599 	0.02518388265 	0.00976801113 	-1.605099259e-07 	0.01834953985 	-3.227511662e-06 	3.497932294e-05
0.7767887125 	0.02532691944 	0.009884143124 	-6.652319804e-07 	0.01854927302 	-2.976884987e-06 	3.536006988e-05
0.7801102773 	0.02546865809 	0.009980834866 	-8.271414761e-07 	0.0187554323 	-2.796953373e-06 	3.575306676e-05
0.7833951996 	0.02561269391 	0.01007238184 	-7.762345803e-07 	0.01896405162 	-2.677200819e-06 	3.615075318e-05
0.7866439137 	0.02575949021 	0.0101637312 	-7.291112011e-07 	0.01917329521 	-2.579922007e-06 	3.654962962e-05
0.7898569628 	0.02590853825 	0.01025505148 	-6.825578953e-07 	0.01938314095 	-2.482228783e-06 	3.694965392e-05
0.7930345721 	0.02605958596 	0.01034658928 	-6.363744554e-07 	0.01959421497 	-2.380055234e-06 	3.735201966e-05
0.7961771359 	0.02621231639 	0.0104385347 	-5.925226248e-07 	0.0198069489 	-2.283975831e-06 	3.775754967e-05
0.7992851568 	0.02636611353 	0.01053103476 	-5.505253911e-07 	0.0200215475 	-2.193129e-06 	3.816663424e-05
0.8023589322 	0.02651986685 	0.01062423475 	-5.089809606e-07 	0.02023822019 	-2.102811507e-06 	3.857967261e-05
0.805398811 	0.02667181954 	0.01071830683 	-4.660869815e-07 	0.02045737317 	-2.00594062e-06 	3.89974391e-05
0.8084052021 	0.02681955826 	0.01081346251 	-4.202240199e-07 	0.02067979029 	-1.894505319e-06 	3.942142794e-05
0.8113785157 	0.02696026166 	0.01090988873 	-3.707744186e-07 	0.0209064858 	-1.762210537e-06 	3.985357259e-05
0.8143190433 	0.02709119376 	0.011007686 	-3.188646137e-07 	0.02113858226 	-1.607693945e-06 	4.029601296e-05
0.8172271484 	0.02721038419 	0.01110680279 	-2.677439391e-07 	0.0213770714 	-1.437407903e-06 	4.075063953e-05
0.8201032429 	0.02731738709 	0.01120696109 	-2.227172359e-07 	0.02162237043 	-1.267752968e-06 	4.121824767e-05
0.8229476498 	0.02741394815 	0.01130760826 	-1.905411407e-07 	0.02187377616 	-1.126064338e-06 	4.169749686e-05
0.8257606958 	0.02750436546 	0.01140791355 	-1.788674972e-07 	0.02212897276 	-1.051586002e-06 	4.218397251e-05
0.8285427279 	0.0275955083 	0.01150681959 	-1.957330446e-07 	0.02238378781 	-1.093213077e-06 	4.266972082e-05
0.8312941389 	0.02769659429 	0.01160310229 	-2.47600934e-07 	0.02263215034 	-1.2961985e-06 	4.314316883e-05
0.8340152199 	0.02781891371 	0.01169530725 	-3.411935752e-07 	0.02286530285 	-1.715633425e-06 	4.358762231e-05
0.836706302 	0.02797493212 	0.01177947512 	-4.824511011e-07 	0.02307404273 	-2.402094987e-06 	4.398553854e-05
0.8393677168 	0.02817820445 	0.01185783035 	-6.163409563e-07 	0.02324851506 	-3.301592877e-06 	4.431813129e-05
0.841999829 	0.02843926496 	0.01192874633 	-7.114734544e-07 	0.02338122298 	-4.313546159e-06 	4.457110948e-05
0.8446029242 	0.0287628253 	0.01199217782 	-9.655300352e-07 	0.02347202456 	-5.290310716e-06 	4.474420252e-05
0.8471773226 	0.02914408595 	0.01205135149 	-1.258872151e-06 	0.02352990629 	-5.943208713e-06 	4.485454119e-05
0.8497233412 	0.02956536462 	0.01210701207 	-1.319664284e-06 	0.02357546459 	-5.976819695e-06 	4.494138797e-05
0.8522413154 	0.02999836428 	0.01216925883 	-1.151774545e-06 	0.0236397567 	-5.23482794e-06 	4.506394661e-05
0.8547315346 	0.03040756342 	0.012248638 	-7.500028864e-07 	0.02375734313 	-3.70717098e-06 	4.528809902e-05
0.8571943021 	0.03075874136 	0.01235332743 	-1.616912484e-07 	0.02395661794 	-1.584774243e-06 	4.566797218e-05
0.8596299208 	0.03102178828 	0.01248796405 	5.008772768e-07 	0.02425809162 	8.022010085e-07 	4.624266481e-05
0.8620386999 	0.03117101454 	0.01265226988 	1.113785687e-06 	0.02467326337 	3.179254498e-06 	4.703409756e-05
0.8644209325 	0.0311966833 	0.01283885309 	1.54734155e-06 	0.02519770264 	5.280130219e-06 	4.803382458e-05
0.8667769039 	0.03111133662 	0.013035854 	1.699435511e-06 	0.02580962748 	6.769449031e-06 	4.920032339e-05
0.8691069039 	0.03094650035 	0.01323151682 	1.571263103e-06 	0.02647909279 	7.438234509e-06 	5.047651034e-05
0.8714112196 	0.03075140338 	0.01341492721 	1.2403571e-06 	0.02716476997 	7.229232207e-06 	5.178360162e-05
0.8736901437 	0.03058209998 	0.0135592526 	5.993057842e-07 	0.02781586481 	6.089834783e-06 	5.302476935e-05
0.8759439454 	0.03048401705 	0.01365646001 	-2.88717592e-07 	0.02839234619 	4.128731024e-06 	5.412370308e-05
0.8781729018 	0.03048588074 	0.01373404048 	-9.210369135e-07 	0.02887091329 	1.852075511e-06 	5.503598499e-05
0.880377287 	0.0306092938 	0.01383115594 	-7.392434311e-07 	0.02923025839 	-3.55019611e-07 	5.572099661e-05
0.8825573737 	0.03087725681 	0.01395681736 	-3.360426379e-07 	0.02945382483 	-2.391471201e-06 	5.614717639e-05
0.8847134322 	0.03130925938 	0.0141215928 	1.905439944e-08 	0.02954821558 	-4.023360301e-06 	5.63271114e-05
0.8868457226 	0.03189735627 	0.01427664811 	2.685782342e-09 	0.02953592764 	-5.112518292e-06 	5.630368717e-05
0.8889545069 	0.0325913001 	0.01438632865 	-3.943816671e-07 	0.02946906182 	-5.443390817e-06 	5.617622232e-05
0.8910400442 	0.03331318693 	0.01450074755 	-4.379046647e-07 	0.02944237824 	-4.821337597e-06 	5.612535601e-05
0.8931025917 	0.03398024905 	0.01463782478 	-2.718368924e-07 	0.02954320741 	-3.472179178e-06 	5.631756442e-05
0.8951424045 	0.03452190298 	0.01480828993 	-1.824373879e-08 	0.02982124063 	-1.754045317e-06 	5.684757302e-05
0.8971597301 	0.03487600642 	0.01500971058 	2.256957439e-07 	0.03029774632 	-5.619809432e-09 	5.775592532e-05
0.8991548164 	0.03498663375 	0.01522678128 	3.593149821e-07 	0.03095932182 	1.469347594e-06 	5.901707209e-05
0.9011279084 	0.03485297172 	0.01543660722 	3.371173941e-07 	0.03176490559 	2.494855841e-06 	6.055273866e-05
0.9030792486 	0.03457778312 	0.01561890548 	1.89766464e-07 	0.03262401616 	2.85432151e-06 	6.219044217e-05
0.9050090786 	0.03433658646 	0.01568386733 	-3.561294309e-07 	0.0333752435 	2.288624433e-06 	6.362249028e-05
0.9069176333 	0.03426850815 	0.01565431116 	-8.326505806e-07 	0.03391138729 	1.091149287e-06 	6.464452936e-05
0.9088051471 	0.03439905967 	0.01568627474 	-6.92270842e-07 	0.03425274335 	8.389056126e-09 	6.529524889e-05
0.9106718518 	0.03468188972 	0.01586083 	3.341418323e-08 	0.0344689584 	-5.259418313e-07 	6.570741487e-05
0.9125179768 	0.03507166839 	0.01613271774 	5.022698112e-07 	0.03460581791 	-7.5701344e-07 	6.596830712e-05
0.914343749 	0.0355395527 	0.01634015413 	2.134132303e-07 	0.03467408796 	-9.573897099e-07 	6.609844882e-05
0.9161493933 	0.03604835389 	0.01646671941 	-3.173611705e-08 	0.03471785304 	-9.434121543e-07 	6.618187722e-05
0.9179351304 	0.03655475632 	0.01659207847 	-2.831681222e-08 	0.03479827378 	-7.291683469e-07 	6.63351815e-05
0.9197011796 	0.0370338667 	0.01672121747 	-8.726786417e-09 	0.03492721087 	-5.274773059e-07 	6.658097143e-05
0.921447758 	0.03747880392 	0.01685300262 	5.233512814e-09 	0.03509412133 	-3.772138413e-07 	6.689914916e-05
0.9231750801 	0.03788491585 	0.01698460801 	1.264300163e-08 	0.03529090012 	-2.645350578e-07 	6.727426422e-05
0.9248833582 	0.03824109968 	0.01711250053 	1.428362693e-08 	0.03551085866 	-1.80429121e-07 	6.769356634e-05
0.9265728023 	0.03853016911 	0.01723346723 	1.246066948e-08 	0.0357530076 	-1.09344231e-07 	6.815516953e-05
0.9282436194 	0.03873584069 	0.01734497394 	9.127608235e-09 	0.03601896118 	-4.762588648e-08 	6.866215096e-05
0.9298960149 	0.03885385238 	0.01744525364 	5.452797369e-09 	0.03630579821 	-3.02749393e-09 	6.920894207e-05
0.9315301917 	0.03890102577 	0.01753359504 	2.327584588e-09 	0.03660027056 	1.619924486e-08 	6.97702882e-05
0.9331463504 	0.03891376135 	0.01761036348 	4.250121926e-10 	0.03687806236 	1.239404029e-08 	7.029983659e-05