0.3810449493 	281.7598736 	36.20937995 	-0.0198364914
0.3812213909 	0 	0 	0
0.3813978397 	0 	0 	0
0.381574295 	0 	0 	0
0.3817507564 	0 	0 	0
0.3819272234 	0 	0 	0
0.3821036954 	0 	0 	0
0.3822801719 	0 	0 	0
0.3824566525 	0 	0 	0
0.3826331365 	0 	0 	0
0.3828096235 	0 	0 	0
0.382986113 	0 	0 	0
0.3831626043 	0 	0 	0
0.3833390971 	0 	0 	0
0.3835155909 	0 	0 	0
0.383692085 	0 	0 	0
0.3838685789 	0 	0 	0
0.3840450723 	0 	0 	0
0.3842215645 	0 	0 	0
0.384398055 	0 	0 	0
0.3845745433 	0 	0 	0
0.384751029 	0 	0 	0
0.3849275114 	0 	0 	0
0.3851039901 	0 	0 	0
0.3852804646 	0 	0 	0
0.3854569344 	0 	0 	0
0.385633399 	0 	0 	0
0.3858098578 	0 	0 	0
0.3859863103 	0 	0 	0
0.3861627561 	0 	0 	0
0.3863391946 	0 	0 	0
0.3866133237 	0 	0 	0
0.3868925839 	0 	0 	0
0.3871770685 	0 	0 	0
0.3874668729 	0 	0 	0
0.3877620936 	0 	0 	0
0.3880628288 	0 	0 	0
0.3883691783 	0 	0 	0
0.3886812435 	0 	0 	0
0.3889991275 	0 	0 	0
0.3893229347 	0 	0 	0
0.3896527714 	0 	0 	0
0.3899887454 	0 	0 	0
0.3903309662 	0 	0 	0
0.3906795449 	0 	0 	0
0.3910345942 	0 	0 	0
0.3913962286 	0 	0 	0
0.391764564 	0 	0 	0
0.3921397182 	0 	0 	0
0.3925218105 	0 	0 	0
0.3929109619 	0 	0 	0
0.3933072949 	0 	0 	0
0.3937109339 	0 	0 	0
0.3941220045 	0 	0 	0
0.394129973 	0 	0 	0
0.3945400737 	0 	0 	0
0.3949668698 	0 	0 	0
0.3954119652 	0 	0 	0
0.395865298 	0 	0 	0
0.3963270188 	0 	0 	0
0.3967972809 	0 	0 	0
0.3972762401 	0 	0 	0
0.3977640554 	0 	0 	0
0.3982608883 	0 	0 	0
0.3987669034 	0 	0 	0
0.399282268 	0 	0 	0
0.3998071528 	0 	0 	0
0.4003417311 	0 	0 	0
0.4008861797 	0 	0 	0
0.4014406782 	0 	0 	0
0.4020054097 	0 	0 	0
0.4025805604 	0 	0 	0
0.4031663199 	0 	0 	0
0.4037628812 	0 	0 	0
0.4043704407 	0 	0 	0
0.4049891984 	0 	0 	0
0.4056193577 	0 	0 	0
0.4062611258 	0 	0 	0
0.4069147136 	0 	0 	0
0.4075803356 	0 	0 	0
0.4082582104 	0 	0 	0
0.4089563963 	0 	0 	0
0.4096771504 	0 	0 	0
0.4104111267 	0 	0 	0
0.411158564 	0 	0 	0
0.411919705 	0 	0 	0
0.4126947969 	0 	0 	0
0.4134840914 	0 	0 	0
0.4142878445 	0 	0 	0
0.4151063168 	0 	0 	0
0.4159397736 	0 	0 	0
0.4167884849 	0 	0 	0
0.4180905889 	0 	0 	0
0.419406252 	0 	0 	0
0.4207356172 	0 	0 	0
0.4220788289 	0 	0 	0
0.4221548793 	0 	0 	0
0.4234639132 	0 	0 	0
0.4248663094 	0 	0 	0
0.4262832195 	0 	0 	0
0.4277147966 	0 	0 	0
0.4291611958 	0 	0 	0
0.4306225742 	0 	0 	0
0.4320990907 	0 	0 	0
0.4335909064 	0 	0 	0
0.4350981844 	0 	0 	0
0.4366434922 	0 	0 	0
0.4382166345 	0 	0 	0
0.4398059559 	0 	0 	0
0.4414116291 	0 	0 	0
0.4430338293 	0 	0 	0
0.4446727339 	0 	0 	0
0.4463285227 	0 	0 	0
0.4480013782 	0 	0 	0
0.4497078613 	0 	0 	0
0.4514512468 	0 	0 	0
0.4532124669 	0 	0 	0
0.454991715 	0 	0 	0
0.4550186889 	0 	0 	0
0.4567876948 	0 	0 	0
0.4586020882 	0 	0 	0
0.4604351201 	0 	0 	0
0.462291103 	0 	0 	0
0.4641986841 	0 	0 	0
0.4661257233 	0 	0 	0
0.4680724357 	0 	0 	0
0.4700390397 	0 	0 	0
0.4720257568 	0 	0 	0
0.4740328119 	0 	0 	0
0.4760774571 	0 	0 	0
0.478163013 	0 	0 	0
0.4802697826 	0 	0 	0
0.4823980057 	0 	0 	0
0.4845479263 	0 	0 	0
0.4867197918 	0 	0 	0
0.488928055 	0 	0 	0
0.4911816255 	0 	0 	0
0.4934580691 	0 	0 	0
0.4957035467 	0 	0 	0
0.4957576181 	0 	0 	0
0.4980792332 	0 	0 	0
0.5004245514 	0 	0 	0
0.5028227957 	0 	0 	0
0.5052529341 	0 	0 	0
0.5077077682 	0 	0 	0
0.5101875913 	0 	0 	0
0.5126927018 	0 	0 	0
0.5152453314 	0 	0 	0
0.5178375627 	0 	0 	0
0.5204561288 	0 	0 	0
0.5231013502 	0 	0 	0
0.5257735529 	0 	0 	0
0.5285003312 	0 	0 	0
0.5312618722 	0 	0 	0
0.5340515049 	0 	0 	0
0.53686958 	0 	0 	0
0.5397256397 	0 	0 	0
0.5426344385 	0 	0 	0
0.5455728418 	0 	0 	0
0.5485412272 	0 	0 	0
0.5515410631 	0 	0 	0
0.5520281168 	0 	0 	0
0.5546006518 	0 	0 	0
0.5576913108 	0 	0 	0
0.5608136116 	0 	0 	0
0.5639687067 	0 	0 	0
0.567184494 	0 	0 	0
0.5704332106 	0 	0 	0
0.5737152938 	0 	0 	0
0.5770372296 	0 	0 	0
0.5804142413 	0 	0 	0
0.5838259791 	0 	0 	0
0.5872729134 	0 	0 	0
0.5907705878 	0 	0 	0
0.5943140224 	0 	0 	0
0.5978940924 	0 	0 	0
0.6015149511 	0 	0 	0
0.6051922863 	0 	0 	0
0.6089077541 	0 	0 	0
0.612661888 	0 	0 	0
0.6164727598 	0 	0 	0
0.6203260974 	0 	0 	0
0.6242196901 	0 	0 	0
0.6281668391 	0 	0 	0
0.6321607674 	0 	0 	0
0.6361966073 	0 	0 	0
0.6402856089 	0 	0 	0
0.6444231319 	0 	0 	0
0.6486042948 	0 	0 	0
0.6528401147 	0 	0 	0
0.6571245484 	0 	0 	0
0.6614544254 	0 	0 	0
0.6658416149 	0 	0 	0
0.6702766106 	0 	0 	0
0.6747608143 	0 	0 	0
0.6793018053 	0 	0 	0
0.6838407313 	0 	0 	0
0.68533741 	0 	0 	0
0.6883321244 	0 	0 	0
0.6927764795 	0 	0 	0
0.6971701987 	0 	0 	0
0.7015195371 	0 	0 	0
0.7058210368 	0 	0 	0
0.7100738481 	0 	0 	0
0.7142840845 	0 	0 	0
0.7184469364 	0 	0 	0
0.7225632872 	0 	0 	0
0.7266374089 	0 	0 	0
0.730665764 	0 	0 	0
0.7346493111 	0 	0 	0
0.7385913566 	0 	0 	0
0.7424893035 	0 	0 	0
0.74634377 	0 	0 	0
0.7501578474 	0 	0 	0
0.7539294053 	0 	0 	0
0.7576589941 	0 	0 	0
0.7613487646 	0 	0 	0
0.7616645071 	0 	0 	0
0.7649978035 	0 	0 	0
0.7686063318 	0 	0 	0
0.7721756267 	0 	0 	0
0.7757060681 	0 	0 	0
0.779197407 	0 	0 	0
0.7826502185 	0 	0 	0
0.7860658461 	0 	0 	0
0.7894437099 	0 	0 	0
0.7927842666 	0 	0 	0
0.7960883722 	0 	0 	0
0.7993563864 	0 	0 	0
0.8025883531 	0 	0 	0
0.8057846993 	0 	0 	0
0.8089462876 	0 	0 	0
0.812073146 	0 	0 	0
0.8151655736 	0 	0 	0
0.8182239713 	0 	0 	0
0.8212490869 	0 	0 	0
0.8242409391 	0 	0 	0
0.8271998887 	0 	0 	0
0.8301263136 	0 	0 	0
0.8330208137 	0 	0 	0
0.835883524 	0 	0 	0
0.8387147803 	0 	0 	0
0.8415149398 	0 	0 	0
0.8442844673 	0 	0 	0
0.8470236332 	0 	0 	0
0.8497327213 	0 	0 	0
0.8524120703 	0 	0 	0
0.8550620396 	0 	0 	0
0.8576830073 	0 	0 	0
0.8602752069 	0 	0 	0
0.8628389602 	0 	0 	0
0.8653745848 	0 	0 	0
0.8678824306 	0 	0 	0
0.8703627885 	0 	0 	0
0.8728159327 	0 	0 	0
0.8752421656 	0 	0 	0
0.8776417855 	0 	0 	0
0.8800151111 	0 	0 	0
0.8823624151 	0 	0 	0
0.8846839699 	0 	0 	0
0.8869800602 	0 	0 	0
0.889250967 	0 	0 	0
0.8914969771 	0 	0 	0
0.8937183629 	0 	0 	0
0.8959153816 	0 	0 	0
0.8980883014 	0 	0 	0
0.9002373876 	0 	0 	0
0.9023629021 	0 	0 	0
0.9044651126 	0 	0 	0
0.9065442628 	0 	0 	0
0.9086006046 	0 	0 	0
0.9106343886 	0 	0 	0
0.9126458621 	0 	0 	0
0.9146352699 	0 	0 	0
0.9166028579 	0 	0 	0
0.9185488579 	0 	0 	0
0.9204735065 	0 	0 	0
0.9223770377 	0 	0 	0
0.9242596827 	0 	0 	0
0.9261216705 	0 	0 	0
0.9279632281 	0 	0 	0
0.9297845769 	0 	0 	0
0.9315859373 	0 	0 	0
0.9333675279 	0 	0 	0
0.9351295652 	0 	0 	0
0.9368722632 	0 	0 	0
0.9385958333 	0 	0 	0
0.9403004852 	0 	0 	0
0.9419864243 	0 	0 	0
0.9436538552 	0 	0 	0
0.9453029805 	0 	0 	0
0.9469340003 	0 	0 	0
0.9485471127 	0 	0 	0
0.9501425136 	0 	0 	0
0.9517203967 	0 	0 	0
0.9532809531 	0 	0 	0
0.954824372 	0 	0 	0
0.9563508411 	0 	0 	0
0.9573452296 	0 	0 	0
0.9583213075 	0 	0 	0
0.9592794114 	0 	0 	0
0.9602198716 	0 	0 	0
0.9611430126 	0 	0 	0
0.9620491527 	0 	0 	0
0.9629386046 	0 	0 	0
0.9638116751 	0 	0 	0
0.9646686653 	0 	0 	0
0.9655098709 	0 	0 	0
0.9663355822 	0 	0 	0
0.9671460842 	0 	0 	0
0.9679416566 	0 	0 	0
0.968722574 	0 	0 	0
0.969489106 	0 	0 	0
0.9702415172 	0 	0 	0
0.9709800674 	0 	0 	0
0.9717050115 	0 	0 	0
0.9724166 	0 	0 	0
0.9731150785 	0 	0 	0
0.9738006883 	0 	0 	0
0.9744736661 	0 	0 	0
0.9751342444 	0 	0 	0
0.9757826513 	0 	0 	0
0.9764191108 	0 	0 	0
0.9770438429 	0 	0 	0
0.9776570633 	0 	0 	0
0.978258984 	0 	0 	0
0.9788498128 	0 	0 	0
0.979429754 	0 	0 	0
0.979999008 	0 	0 	0
0.9805577716 	0 	0 	0
0.9811062378 	0 	0 	0
0.9816445962 	0 	0 	0
0.9821730329 	0 	0 	0
0.9826917307 	0 	0 	0
0.9832008687 	0 	0 	0
0.983700623 	0 	0 	0
0.9841911664 	0 	0 	0
0.9846726686 	0 	0 	0
0.9851452959 	0 	0 	0
0.9856092119 	0 	0 	0
0.9860645769 	0 	0 	0
0.9865115485 	0 	0 	0
0.9869502811 	0 	0 	0
0.9873809266 	0 	0 	0
0.987803634 	0 	0 	0
0.9882185493 	0 	0 	0
0.9886258161 	0 	0 	0
0.9890255754 	0 	0 	0
0.9894179654 	0 	0 	0
0.9898031218 	0 	0 	0
0.9901811779 	0 	0 	0
0.9905522645 	0 	0 	0
0.9909165101 	0 	0 	0
0.9912740405 	0 	0 	0
0.9916249796 	0 	0 	0
0.9919694487 	0 	0 	0
0.9923075672 	0 	0 	0
0.9926394519 	0 	0 	0
0.9928530538 	0 	0 	0
0.9930666574 	0 	0 	0
0.9932802626 	0 	0 	0
0.9934938694 	0 	0 	0
0.9937074779 	0 	0 	0
0.993921088 	0 	0 	0
0.9941346997 	0 	0 	0
0.9943483131 	0 	0 	0
0.9945619281 	0 	0 	0
0.9947755447 	0 	0 	0
0.994989163 	0 	0 	0
0.995202783 	0 	0 	0
0.9954164045 	0 	0 	0
0.9956300277 	0 	0 	0
0.9958436526 	0 	0 	0
0.996057279 	0 	0 	0
0.9962709071 	0 	0 	0
0.9964845369 	0 	0 	0
0.9966981683 	0 	0 	0
0.9969118013 	0 	0 	0
0.9971254359 	0 	0 	0
0.9973390722 	0 	0 	0
0.9975527102 	0 	0 	0
0.9977663498 	0 	0 	0
0.997979991 	0 	0 	0
0.9981936338 	0 	0 	0
0.9984072783 	0 	0 	0
0.9986209244 	0 	0 	0
0.9988345722 	0 	0 	0
0.9990482216 	90.56537701 	-0.01427017607 	4.34798723e-07
