0.4709558481 	-0.006413498221 	-5.923333559e-08 	1.198788996e-12 	0.04508688169 	2.616643899e-07 	-3.325703013e-12 	192.9161745 	0.00111853484 	-1.421635818e-08
0.4711314108 	0 	0 	0 	0.1239758617 	-7.425051933e-07 	6.148519094e-12 	0 	0 	0
0.4713069734 	0 	0 	0 	0.2477670128 	-9.234206811e-06 	9.868773397e-11 	0 	0 	0
0.471482536 	0 	0 	0 	0.3710858363 	-2.797929218e-05 	2.319509383e-10 	0 	0 	0
0.4716580986 	0 	0 	0 	0.4930443711 	-3.8843196e-05 	6.887718438e-11 	0 	0 	0
0.4718336613 	0 	0 	0 	0.6118913674 	-1.741056498e-05 	-5.412182867e-10 	0 	0 	0
0.4720092239 	0 	0 	0 	0.7252863081 	2.674029208e-05 	-1.13105299e-09 	0 	0 	0
0.4721847865 	0 	0 	0 	0.8310950802 	5.688608014e-05 	-1.275465295e-09 	0 	0 	0
0.4723603491 	0 	0 	0 	0.9280710604 	5.800884369e-05 	-1.174453386e-09 	0 	0 	0
0.4725359118 	0 	0 	0 	1.015963073 	4.480599869e-05 	-1.177560172e-09 	0 	0 	0
0.4727114744 	0 	0 	0 	1.095215543 	3.334804421e-05 	-1.350652335e-09 	0 	0 	0
0.472887037 	0 	0 	0 	1.166615443 	3.207653378e-05 	-1.868305649e-09 	0 	0 	0
0.4730625996 	0 	0 	0 	1.231051801 	3.474246818e-05 	-1.951984945e-09 	0 	0 	0
0.4732381623 	0 	0 	0 	1.28940381 	3.088882247e-05 	-1.83755959e-09 	0 	0 	0
0.4734137249 	0 	0 	0 	1.342485906 	3.196363535e-05 	-2.586068681e-09 	0 	0 	0
0.4735892875 	0 	0 	0 	1.390994692 	4.281152589e-05 	-3.070613404e-09 	0 	0 	0
0.4737648501 	0 	0 	0 	1.43550262 	5.127836674e-05 	-3.15405872e-09 	0 	0 	0
0.4739404128 	0 	0 	0 	1.476495536 	5.618887022e-05 	-3.458315735e-09 	0 	0 	0
0.4741159754 	0 	0 	0 	1.514395419 	6.130224701e-05 	-3.773272031e-09 	0 	0 	0
0.474291538 	0 	0 	0 	1.549566231 	6.657565994e-05 	-4.088099831e-09 	0 	0 	0
0.4744671006 	0 	0 	0 	1.582320747 	7.188793778e-05 	-4.405163455e-09 	0 	0 	0
0.4746426632 	0 	0 	0 	1.612928085 	7.720713172e-05 	-4.72749459e-09 	0 	0 	0
0.4748182259 	0 	0 	0 	1.64162024 	8.252762566e-05 	-5.055598484e-09 	0 	0 	0
0.4749937885 	0 	0 	0 	1.668597957 	8.788682623e-05 	-5.384380352e-09 	0 	0 	0
0.4751693511 	0 	0 	0 	1.694035337 	9.405995872e-05 	-5.635726435e-09 	0 	0 	0
0.4753449137 	0 	0 	0 	1.718084778 	9.945508715e-05 	-6.054645707e-09 	0 	0 	0
0.4755204764 	0 	0 	0 	1.740884951 	0.0001034890031 	-6.534169578e-09 	0 	0 	0
0.475696039 	0 	0 	0 	1.762561069 	0.0001091318578 	-6.718606366e-09 	0 	0 	0
0.4758716016 	0 	0 	0 	1.78321862 	0.0001150283573 	-7.014452483e-09 	0 	0 	0
0.4760471642 	0 	0 	0 	1.802946286 	0.0001211315046 	-7.443443781e-09 	0 	0 	0
0.4762227269 	0 	0 	0 	1.824378398 	0.0001287405805 	-7.838312452e-09 	0 	0 	0
0.4764955107 	0 	0 	0 	1.849755546 	0.0001353528507 	-8.343994433e-09 	0 	0 	0
0.4767734216 	0 	0 	0 	1.876358345 	0.0001435012945 	-8.915062468e-09 	0 	0 	0
0.4770565557 	0 	0 	0 	1.901875938 	0.0001536427273 	-9.506272796e-09 	0 	0 	0
0.4773450114 	0 	0 	0 	1.926406826 	0.0001632420538 	-1.011549712e-08 	0 	0 	0
0.4776388886 	0 	0 	0 	1.950038224 	0.0001731114346 	-1.074362081e-08 	0 	0 	0
0.4779382892 	0 	0 	0 	1.972847739 	0.0001832464565 	-1.139115907e-08 	0 	0 	0
0.4782433171 	0 	0 	0 	1.994904067 	0.0001936545318 	-1.205862201e-08 	0 	0 	0
0.4785540779 	0 	0 	0 	2.016268299 	0.0002043522398 	-1.274658081e-08 	0 	0 	0
0.4788706795 	0 	0 	0 	2.036994965 	0.0002153456468 	-1.345561112e-08 	0 	0 	0
0.4791932316 	0 	0 	0 	2.057132898 	0.0002266423745 	-1.418632077e-08 	0 	0 	0
0.4795218461 	0 	0 	0 	2.076725977 	0.000238250403 	-1.493935286e-08 	0 	0 	0
0.4798566368 	0 	0 	0 	2.095813745 	0.0002501779814 	-1.571538726e-08 	0 	0 	0
0.48019772 	0 	0 	0 	2.114431936 	0.0002624336943 	-1.651513141e-08 	0 	0 	0
0.4805452138 	0 	0 	0 	2.132612929 	0.0002750264406 	-1.733934564e-08 	0 	0 	0
0.4808992388 	0 	0 	0 	2.150386134 	0.0002879654865 	-1.818882362e-08 	0 	0 	0
0.4812599177 	0 	0 	0 	2.167778324 	0.0003012604668 	-1.906438451e-08 	0 	0 	0
0.4816273755 	0 	0 	0 	2.184813928 	0.0003149213931 	-1.996690329e-08 	0 	0 	0
0.4820017397 	0 	0 	0 	2.201515279 	0.0003289586974 	-2.089727551e-08 	0 	0 	0
0.48238314 	0 	0 	0 	2.217902835 	0.0003433832224 	-2.185644863e-08 	0 	0 	0
0.4827717088 	0 	0 	0 	2.233995366 	0.0003582062736 	-2.284541432e-08 	0 	0 	0
0.4831675807 	0 	0 	0 	2.249810126 	0.0003734396363 	-2.386518516e-08 	0 	0 	0
0.4835708931 	0 	0 	0 	2.265362997 	0.0003890955657 	-2.491681684e-08 	0 	0 	0
0.4839817856 	0 	0 	0 	2.280668623 	0.0004051868241 	-2.600139584e-08 	0 	0 	0
0.4844004009 	0 	0 	0 	2.295740521 	0.0004217266973 	-2.712003608e-08 	0 	0 	0
0.4848268841 	0 	0 	0 	2.310591187 	0.0004387290138 	-2.827387371e-08 	0 	0 	0
0.485261383 	0 	0 	0 	2.325232188 	0.0004562081639 	-2.946406071e-08 	0 	0 	0
0.4857040484 	0 	0 	0 	2.339674238 	0.0004741791211 	-3.069175849e-08 	0 	0 	0
0.4861550336 	0 	0 	0 	2.353927275 	0.0004926574632 	-3.195813367e-08 	0 	0 	0
0.4866144951 	0 	0 	0 	2.368000528 	0.0005116593941 	-3.326433969e-08 	0 	0 	0
0.4870825921 	0 	0 	0 	2.38190257 	0.0005312017696 	-3.461153224e-08 	0 	0 	0
0.487559487 	0 	0 	0 	2.395641379 	0.0005513021255 	-3.600088479e-08 	0 	0 	0
0.4880453452 	0 	0 	0 	2.409224376 	0.0005719787067 	-3.743358812e-08 	0 	0 	0
0.4885403351 	0 	0 	0 	2.422658477 	0.0005932504675 	-3.891085046e-08 	0 	0 	0
0.4890446283 	0 	0 	0 	2.435950128 	0.0006151370633 	-4.043393306e-08 	0 	0 	0
0.4895583997 	0 	0 	0 	2.449105342 	0.0006376587147 	-4.200405543e-08 	0 	0 	0
0.4900818274 	0 	0 	0 	2.46212973 	0.0006608342132 	-4.362041788e-08 	0 	0 	0
0.4906150929 	0 	0 	0 	2.475028545 	0.0006846847456 	-4.528808633e-08 	0 	0 	0
0.4911583811 	0 	0 	0 	2.48780673 	0.0007092277735 	-4.700267538e-08 	0 	0 	0
0.4917118805 	0 	0 	0 	2.500469111 	0.0007344262095 	-4.870626662e-08 	0 	0 	0
0.4922757829 	0 	0 	0 	2.513020467 	0.0007607032103 	-5.096394571e-08 	0 	0 	0
0.4928502838 	0 	0 	0 	2.525465721 	0.0007878067714 	-5.270700867e-08 	0 	0 	0
0.4934355824 	0 	0 	0 	2.537812637 	0.0008149693402 	-5.386407964e-08 	0 	0 	0
0.4940318817 	0 	0 	0 	2.550073538 	0.0008431407763 	-5.648226205e-08 	0 	0 	0
0.4946393885 	0 	0 	0 	2.562260746 	0.0008728176613 	-5.900855297e-08 	0 	0 	0
0.4952583133 	0 	0 	0 	2.574382579 	0.0009033486069 	-6.087184148e-08 	0 	0 	0
0.4958888709 	0 	0 	0 	2.586444477 	0.0009347514769 	-6.316761552e-08 	0 	0 	0
0.4965312797 	0 	0 	0 	2.598450525 	0.0009672130662 	-6.555301767e-08 	0 	0 	0
0.4971857627 	0 	0 	0 	2.610403832 	0.001000766266 	-6.800381409e-08 	0 	0 	0
0.4978525466 	0 	0 	0 	2.622306828 	0.001035436678 	-7.051565144e-08 	0 	0 	0
0.4985318627 	0 	0 	0 	2.634161556 	0.001071254082 	-7.308846621e-08 	0 	0 	0
0.4992239466 	0 	0 	0 	2.645969854 	0.001108250549 	-7.572204092e-08 	0 	0 	0
0.4999290382 	0 	0 	0 	2.657733446 	0.001146459363 	-7.841971016e-08 	0 	0 	0
0.5006473819 	0 	0 	0 	2.669453996 	0.001185915383 	-8.118693645e-08 	0 	0 	0
0.501379227 	0 	0 	0 	2.681133141 	0.001226655103 	-8.402930087e-08 	0 	0 	0
0.502124827 	0 	0 	0 	2.692772537 	0.001268716425 	-8.695101032e-08 	0 	0 	0
0.5028844406 	0 	0 	0 	2.704373934 	0.001312138142 	-8.995433473e-08 	0 	0 	0
0.5036583311 	0 	0 	0 	2.715939314 	0.001356959547 	-9.30399453e-08 	0 	0 	0
0.5044467669 	0 	0 	0 	2.727471117 	0.001403224535 	-9.620810558e-08 	0 	0 	0
0.5052500214 	0 	0 	0 	2.738972541 	0.001450995648 	-9.946089427e-08 	0 	0 	0
0.506068373 	0 	0 	0 	2.751909298 	0.001506685325 	-1.032302807e-07 	0 	0 	0
0.507324668 	0 	0 	0 	2.767615537 	0.001577137083 	-1.079650471e-07 	0 	0 	0
0.5085949819 	0 	0 	0 	2.784459495 	0.001656321739 	-1.132468732e-07 	0 	0 	0
0.5098794711 	0 	0 	0 	2.800993551 	0.001737940392 	-1.186522407e-07 	0 	0 	0
0.5111782938 	0 	0 	0 	2.817236173 	0.001822013133 	-1.241797346e-07 	0 	0 	0
0.5124916099 	0 	0 	0 	2.833206119 	0.001908583052 	-1.298206422e-07 	0 	0 	0
0.5138195812 	0 	0 	0 	2.848920845 	0.001997683012 	-1.35539484e-07 	0 	0 	0
0.5151623712 	0 	0 	0 	2.864393602 	0.002089289047 	-1.412599633e-07 	0 	0 	0
0.5165201452 	0 	0 	0 	2.879628307 	0.002183304879 	-1.468889496e-07 	0 	0 	0
0.5178930705 	0 	0 	0 	2.894611446 	0.002279541396 	-1.522662857e-07 	0 	0 	0
0.5192813161 	0 	0 	0 	2.909302429 	0.002377562442 	-1.570612651e-07 	0 	0 	0
0.520685053 	0 	0 	0 	2.923627504 	0.002476540081 	-1.608813425e-07 	0 	0 	0
0.522104454 	0 	0 	0 	2.937482207 	0.002575306272 	-1.633550923e-07 	0 	0 	0
0.523539694 	0 	0 	0 	2.950743082 	0.002672426603 	-1.642807977e-07 	0 	0 	0
0.5249909497 	0 	0 	0 	2.963286693 	0.002766416466 	-1.641479805e-07 	0 	0 	0
0.5264583998 	0 	0 	0 	2.975012481 	0.002857475986 	-1.729778995e-07 	0 	0 	0
0.527942225 	0 	0 	0 	2.985865218 	0.00294726287 	-1.621418855e-07 	0 	0 	0
0.5294426081 	0 	0 	0 	2.995868756 	0.003023188358 	-1.492187654e-07 	0 	0 	0
0.5309597337 	0 	0 	0 	3.005152822 	0.003089620779 	-1.755645249e-07 	0 	0 	0
0.5324937889 	0 	0 	0 	3.013868833 	0.003168044634 	-1.832444896e-07 	0 	0 	0
0.5340449624 	0 	0 	0 	3.022088077 	0.003245466979 	-1.746716205e-07 	0 	0 	0
0.5356134452 	0 	0 	0 	3.029829024 	0.003314524541 	-1.783688536e-07 	0 	0 	0
0.5371994306 	0 	0 	0 	3.037104339 	0.003383278168 	-1.791927922e-07 	0 	0 	0
0.5388031139 	0 	0 	0 	3.04392447 	0.003450262311 	-1.796311337e-07 	0 	0 	0
0.5404246925 	0 	0 	0 	3.050298154 	0.00351529505 	-1.79870669e-07 	0 	0 	0
0.5420643661 	0 	0 	0 	3.056235198 	0.00357816777 	-1.798142914e-07 	0 	0 	0
0.5437223366 	0 	0 	0 	3.061746584 	0.003638688156 	-1.794689821e-07 	0 	0 	0
0.5453988083 	0 	0 	0 	3.066844397 	0.003696740887 	-1.789076119e-07 	0 	0 	0
0.5470939875 	0 	0 	0 	3.071541728 	0.003752181848 	-1.780411549e-07 	0 	0 	0
0.5488080831 	0 	0 	0 	3.075852678 	0.003804906818 	-1.7682816e-07 	0 	0 	0
0.5505413061 	0 	0 	0 	3.079792113 	0.0038548261 	-1.752315575e-07 	0 	0 	0
0.5522938699 	0 	0 	0 	3.083375346 	0.003901853193 	-1.732301222e-07 	0 	0 	0
0.5540659904 	0 	0 	0 	3.086617989 	0.003945925212 	-1.708570171e-07 	0 	0 	0
0.5558578859 	0 	0 	0 	3.089535898 	0.003987004146 	-1.681548593e-07 	0 	0 	0
0.5576697768 	0 	0 	0 	3.092145295 	0.004025068314 	-1.65130854e-07 	0 	0 	0
0.5595018865 	0 	0 	0 	3.094463506 	0.004060079322 	-1.617968205e-07 	0 	0 	0
0.5613544406 	0 	0 	0 	3.096510203 	0.004092072258 	-1.583127993e-07 	0 	0 	0
0.563227667 	0 	0 	0 	3.098307268 	0.004121195141 	-1.54785619e-07 	0 	0 	0
0.5651217966 	0 	0 	0 	3.099876769 	0.004147591332 	-1.511999063e-07 	0 	0 	0
0.5670370626 	0 	0 	0 	3.101239217 	0.004171377221 	-1.475853644e-07 	0 	0 	0
0.5689737009 	0 	0 	0 	3.102413145 	0.004192683559 	-1.439812996e-07 	0 	0 	0
0.5709319499 	0 	0 	0 	3.103415186 	0.00421164019 	-1.40397536e-07 	0 	0 	0
0.5729120508 	0 	0 	0 	3.104260201 	0.004228365361 	-1.368419704e-07 	0 	0 	0
0.5749142474 	0 	0 	0 	3.104961412 	0.004242968665 	-1.333205356e-07 	0 	0 	0
0.5769387863 	0 	0 	0 	3.105530544 	0.004255551106 	-1.298369772e-07 	0 	0 	0
0.5789859169 	0 	0 	0 	3.105977967 	0.004266205224 	-1.263933337e-07 	0 	0 	0
0.5810558911 	0 	0 	0 	3.106312827 	0.004275015267 	-1.229903917e-07 	0 	0 	0
0.583148964 	0 	0 	0 	3.106543169 	0.004282057502 	-1.196284232e-07 	0 	0 	0
0.5852653933 	0 	0 	0 	3.106676056 	0.004287400873 	-1.163065945e-07 	0 	0 	0
0.5874054395 	0 	0 	0 	3.106717673 	0.004291106457 	-1.13025838e-07 	0 	0 	0
0.5895693664 	0 	0 	0 	3.106673433 	0.004293230104 	-1.097882005e-07 	0 	0 	0
0.5917574402 	0 	0 	0 	3.106548033 	0.004293820259 	-1.065900939e-07 	0 	0 	0
0.5939699306 	0 	0 	0 	3.106345532 	0.004292918419 	-1.034268572e-07 	0 	0 	0
0.5962071099 	0 	0 	0 	3.106069451 	0.004290562455 	-1.002960125e-07 	0 	0 	0
0.5984692536 	0 	0 	0 	3.105722816 	0.004286784819 	-9.719012634e-08 	0 	0 	0
0.6007566404 	0 	0 	0 	3.105308208 	0.004281614134 	-9.410613946e-08 	0 	0 	0
0.6030695519 	0 	0 	0 	3.104827818 	0.004275074733 	-9.104344038e-08 	0 	0 	0
0.6054082729 	0 	0 	0 	3.10428349 	0.004267186002 	-8.800034539e-08 	0 	0 	0
0.6077730914 	0 	0 	0 	3.103676742 	0.004257963312 	-8.497594348e-08 	0 	0 	0
0.6101642987 	0 	0 	0 	3.103008795 	0.004247418483 	-8.19665272e-08 	0 	0 	0
0.6125821893 	0 	0 	0 	3.102280617 	0.004235560272 	-7.897232696e-08 	0 	0 	0
0.6150270608 	0 	0 	0 	3.101492938 	0.004222394999 	-7.599479378e-08 	0 	0 	0
0.6174992144 	0 	0 	0 	3.100646278 	0.00420792557 	-7.303012396e-08 	0 	0 	0
0.6199989545 	0 	0 	0 	3.099740962 	0.004192154723 	-7.008506614e-08 	0 	0 	0
0.622526589 	0 	0 	0 	3.098777146 	0.004175078447 	-6.714532519e-08 	0 	0 	0
0.625082429 	0 	0 	0 	3.097754824 	0.004156693521 	-6.421153962e-08 	0 	0 	0
0.6276667894 	0 	0 	0 	3.096673837 	0.00413699646 	-6.12906091e-08 	0 	0 	0
0.6302799884 	0 	0 	0 	3.095533894 	0.004115976666 	-5.836981491e-08 	0 	0 	0
0.6329223478 	0 	0 	0 	3.094334582 	0.004093624865 	-5.54526325e-08 	0 	0 	0
0.6355941931 	0 	0 	0 	3.093075378 	0.004069929569 	-5.253589787e-08 	0 	0 	0
0.6382958531 	0 	0 	0 	3.091755659 	0.004044877622 	-4.961832116e-08 	0 	0 	0
0.6410276607 	0 	0 	0 	3.090374704 	0.004018454401 	-4.669860434e-08 	0 	0 	0
0.6437899523 	0 	0 	0 	3.08893171 	0.003990643948 	-4.377568196e-08 	0 	0 	0
0.646583068 	0 	0 	0 	3.087425794 	0.003961429074 	-4.084858684e-08 	0 	0 	0
0.6494073518 	0 	0 	0 	3.085856001 	0.003930791459 	-3.79164244e-08 	0 	0 	0
0.6522631514 	0 	0 	0 	3.084221313 	0.003898711762 	-3.497834179e-08 	0 	0 	0
0.6551508186 	0 	0 	0 	3.082520653 	0.003865169717 	-3.203351031e-08 	0 	0 	0
0.658070709 	0 	0 	0 	3.080752892 	0.003830144242 	-2.908111513e-08 	0 	0 	0
0.6610231822 	0 	0 	0 	3.078916856 	0.003793613543 	-2.612034975e-08 	0 	0 	0
0.6640086017 	0 	0 	0 	3.077011333 	0.003755555219 	-2.315041385e-08 	0 	0 	0
0.6670273351 	0 	0 	0 	3.075035076 	0.003715946379 	-2.017051961e-08 	0 	0 	0
0.6700797543 	0 	0 	0 	3.072986814 	0.003674763734 	-1.717988474e-08 	0 	0 	0
0.6731662352 	0 	0 	0 	3.070865259 	0.003631983791 	-1.417773523e-08 	0 	0 	0
0.6762871577 	0 	0 	0 	3.068669108 	0.003587582855 	-1.116331786e-08 	0 	0 	0
0.6794429063 	0 	0 	0 	3.066397059 	0.003541537214 	-8.135887423e-09 	0 	0 	0
0.6826338695 	0 	0 	0 	3.064047814 	0.003493823447 	-5.094717193e-09 	0 	0 	0
0.6858604404 	0 	0 	0 	3.061620093 	0.00344441834 	-2.039133558e-09 	0 	0 	0
0.6891230163 	0 	0 	0 	3.059112644 	0.003393299185 	1.03145512e-09 	0 	0 	0
0.6924219988 	0 	0 	0 	3.056524257 	0.00334044408 	4.117536131e-09 	0 	0 	0
0.6957577944 	0 	0 	0 	3.053853777 	0.003285832041 	7.219454663e-09 	0 	0 	0
0.6991308138 	0 	0 	0 	3.051100126 	0.003229443337 	1.033735373e-08 	0 	0 	0
0.7025414724 	0 	0 	0 	3.048262316 	0.003171259798 	1.347110506e-08 	0 	0 	0
0.7059901901 	0 	0 	0 	3.045339481 	0.003111265187 	1.662022351e-08 	0 	0 	0
0.7094773917 	0 	0 	0 	3.0423309 	0.003049445616 	1.97837601e-08 	0 	0 	0
0.7130035066 	0 	0 	0 	3.039236033 	0.002985790031 	2.296016559e-08 	0 	0 	0
0.7165689691 	0 	0 	0 	3.036054561 	0.002920290747 	2.614710535e-08 	0 	0 	0
0.7201742182 	0 	0 	0 	3.03278643 	0.00285294401 	2.934120043e-08 	0 	0 	0
0.7238196978 	0 	0 	0 	3.029431905 	0.002783750516 	3.253761114e-08 	0 	0 	0
0.727505857 	0 	0 	0 	3.025991632 	0.002712715471 	3.57294294e-08 	0 	0 	0
0.7312331497 	0 	0 	0 	3.022466688 	0.002639848373 	3.890770538e-08 	0 	0 	0
0.7350020349 	0 	0 	0 	3.018868272 	0.002565363137 	4.205159919e-08 	0 	0 	0
0.7387709215 	0 	0 	0 	3.015229931 	0.002489937266 	4.512548947e-08 	0 	0 	0
0.7424982157 	0 	0 	0 	3.011586608 	0.002414217794 	4.812150527e-08 	0 	0 	0
0.7461843763 	0 	0 	0 	3.00795214 	0.002338687551 	5.091323471e-08 	0 	0 	0
0.7498298574 	0 	0 	0 	3.004329792 	0.002263803439 	5.369058879e-08 	0 	0 	0
0.7534351078 	0 	0 	0 	3.000719176 	0.002188660961 	5.617498465e-08 	0 	0 	0
0.7570005716 	0 	0 	0 	2.997111579 	0.002113209914 	5.755465619e-08 	0 	0 	0
0.7605266877 	0 	0 	0 	2.993492724 	0.002038882034 	5.790854003e-08 	0 	0 	0
0.7640138905 	0 	0 	0 	2.989851828 	0.001965181288 	5.776451221e-08 	0 	0 	0
0.7674626093 	0 	0 	0 	2.986183636 	0.001891729924 	5.87351992e-08 	0 	0 	0
0.770873269 	0 	0 	0 	2.982485656 	0.00181935997 	6.313794231e-08 	0 	0 	0
0.7742462894 	0 	0 	0 	2.978758177 	0.00174870336 	7.147773602e-08 	0 	0 	0
0.777582086 	0 	0 	0 	2.975006138 	0.001680283153 	8.099567763e-08 	0 	0 	0
0.7808810695 	0 	0 	0 	2.971241358 	0.001614065788 	8.616945143e-08 	0 	0 	0
0.7841436462 	0 	0 	0 	2.967483213 	0.001549187587 	8.189225413e-08 	0 	0 	0
0.787370218 	0 	0 	0 	2.963755491 	0.001484186012 	6.805741531e-08 	0 	0 	0
0.7905611821 	0 	0 	0 	2.960079004 	0.001417837008 	5.248675514e-08 	0 	0 	0
0.7937169314 	0 	0 	0 	2.956462311 	0.001350219919 	4.847514209e-08 	0 	0 	0
0.7968378547 	0 	0 	0 	2.95289568 	0.00128321999 	6.625116779e-08 	0 	0 	0
0.7999243362 	0 	0 	0 	2.949353914 	0.001219804782 	1.03425586e-07 	0 	0 	0
0.8029767561 	0 	0 	0 	2.945808544 	0.001162212028 	1.419634171e-07 	0 	0 	0
0.8059954902 	0 	0 	0 	2.942242533 	0.001110060813 	1.554433675e-07 	0 	0 	0
0.8089809102 	0 	0 	0 	2.938658305 	0.001059664172 	1.245952356e-07 	0 	0 	0
0.8119333839 	0 	0 	0 	2.935073396 	0.001005404948 	5.427601754e-08 	0 	0 	0
0.8148532749 	0 	0 	0 	2.931503959 	0.0009430270243 	-2.073150966e-08 	0 	0 	0
0.8177409426 	0 	0 	0 	2.92794328 	0.0008731768841 	-5.017274104e-08 	0 	0 	0
0.8205967427 	0 	0 	0 	2.924349618 	0.0008027340418 	3.071965753e-09 	0 	0 	0
0.8234210268 	0 	0 	0 	2.920658229 	0.0007424068998 	1.348966152e-07 	0 	0 	0
0.8262141429 	0 	0 	0 	2.916820553 	0.0007008879066 	2.858364468e-07 	0 	0 	0
0.8289764348 	0 	0 	0 	2.912852442 	0.000677989327 	3.606435361e-07 	0 	0 	0
0.8317082427 	0 	0 	0 	2.908856541 	0.0006614209448 	2.825243252e-07 	0 	0 	0
0.8344099031 	0 	0 	0 	2.90498898 	0.0006313569918 	6.253981504e-08 	0 	0 	0
0.8370817486 	0 	0 	0 	2.901376152 	0.000572614348 	-1.848015805e-07 	0 	0 	0
0.8397241082 	0 	0 	0 	2.898034602 	0.0004856325954 	-3.201183305e-07 	0 	0 	0
0.8423373074 	0 	0 	0 	2.894853193 	0.0003868191922 	-2.57261596e-07 	0 	0 	0
0.844921668 	0 	0 	0 	2.89164227 	0.0003006329391 	9.035838172e-09 	0 	0 	0
0.8474775082 	0 	0 	0 	2.88821566 	0.0002494487652 	3.952408717e-07 	0 	0 	0
0.8500051427 	0 	0 	0 	2.884478156 	0.000243239436 	7.295842572e-07 	0 	0 	0
0.8525048829 	0 	0 	0 	2.880484911 	0.0002707562945 	7.968822892e-07 	0 	0 	0
0.8549770366 	0 	0 	0 	2.876435115 	0.0002991645858 	5.072727601e-07 	0 	0 	0
0.8574219081 	0 	0 	0 	2.872571099 	0.0002912087604 	-1.933384493e-09 	0 	0 	0
0.8598397987 	0 	0 	0 	2.869029889 	0.0002282123774 	-4.86377395e-07 	0 	0 	0
0.862231006 	0 	0 	0 	2.865765556 	0.0001183607432 	-7.494157938e-07 	0 	0 	0
0.8645958245 	0 	0 	0 	2.862578407 	-1.039113432e-05 	-7.070908276e-07 	0 	0 	0
0.8669345455 	0 	0 	0 	2.859203293 	-0.000122932735 	-3.73290927e-07 	0 	0 	0
0.8692474569 	0 	0 	0 	2.855419593 	-0.0001888736464 	1.385302364e-07 	0 	0 	0
0.8715348435 	0 	0 	0 	2.85116577 	-0.0001953826577 	6.059766168e-07 	0 	0 	0
0.8737969871 	0 	0 	0 	2.846604202 	-0.000157830863 	7.827923025e-07 	0 	0 	0
0.8760341663 	0 	0 	0 	2.842070989 	-0.0001159655121 	5.807035943e-07 	0 	0 	0
0.8782466565 	0 	0 	0 	2.837900326 	-0.0001097247851 	1.315431664e-07 	0 	0 	0
0.8804347301 	0 	0 	0 	2.834227414 	-0.0001575916195 	-2.958235399e-07 	0 	0 	0
0.8825986568 	0 	0 	0 	2.830938461 	-0.0002475848558 	-4.72803317e-07 	0 	0 	0
0.8847387028 	0 	0 	0 	2.827791449 	-0.0003478904777 	-4.345452339e-07 	0 	0 	0
0.8868551318 	0 	0 	0 	2.824558037 	-0.0004354873155 	-2.100466415e-07 	0 	0 	0
0.8889482045 	0 	0 	0 	2.821060666 	-0.0004918841607 	2.400539469e-07 	0 	0 	0
0.8910181784 	0 	0 	0 	2.817195483 	-0.0004988938061 	6.815476625e-07 	0 	0 	0
0.8930653087 	0 	0 	0 	2.812994652 	-0.0004621252862 	8.363639574e-07 	0 	0 	0
0.8950898473 	0 	0 	0 	2.808627611 	-0.0004091886427 	6.213339941e-07 	0 	0 	0
0.8970920436 	0 	0 	0 	2.804319057 	-0.0003731320649 	1.035043567e-07 	0 	0 	0
0.8990721441 	0 	0 	0 	2.800229153 	-0.0003793829051 	-4.811287333e-07 	0 	0 	0
0.9010303927 	0 	0 	0 	2.796378236 	-0.0004320275976 	-9.045807105e-07 	0 	0 	0
0.9029670306 	0 	0 	0 	2.792681032 	-0.0005208086101 	-1.117766691e-06 	0 	0 	0
0.9048822962 	0 	0 	0 	2.789026163 	-0.0006314866873 	-1.163348451e-06 	0 	0 	0
0.9067764254 	0 	0 	0 	2.785328956 	-0.0007485368654 	-1.106036042e-06 	0 	0 	0
0.9086496514 	0 	0 	0 	2.781541487 	-0.0008635198941 	-9.719376677e-07 	0 	0 	0
0.910502205 	0 	0 	0 	2.777607624 	-0.0009706929236 	-7.078299661e-07 	0 	0 	0
0.9123343142 	0 	0 	0 	2.773412801 	-0.0010578772 	-2.104070554e-07 	0 	0 	0
0.9141462048 	0 	0 	0 	2.768796594 	-0.001105451238 	5.251871163e-07 	0 	0 	0
0.9159380997 	0 	0 	0 	2.763634086 	-0.001098036402 	1.35692097e-06 	0 	0 	0
0.9177102197 	0 	0 	0 	2.757895376 	-0.001034731415 	2.120297186e-06 	0 	0 	0
0.9194627831 	0 	0 	0 	2.751648878 	-0.0009262629859 	2.630371856e-06 	0 	0 	0
0.9211960055 	0 	0 	0 	2.745042195 	-0.0007934065834 	2.726555222e-06 	0 	0 	0
0.9229101006 	0 	0 	0 	2.738267521 	-0.0006636106957 	2.383077693e-06 	0 	0 	0
0.9246052793 	0 	0 	0 	2.731499899 	-0.0005620001421 	1.730408557e-06 	0 	0 	0
0.9262817504 	0 	0 	0 	2.724827106 	-0.0005037571532 	9.720206331e-07 	0 	0 	0
0.9279397204 	0 	0 	0 	2.718229343 	-0.0004902667634 	2.726820928e-07 	0 	0 	0
0.9295793934 	0 	0 	0 	2.711611331 	-0.0005121558899 	-2.627635652e-07 	0 	0 	0
0.9312009714 	0 	0 	0 	2.704850235 	-0.0005557119463 	-5.967932778e-07 	0 	0 	0
0.9328046541 	0 	0 	0 	2.6978343 	-0.0006062175637 	-7.447298713e-07 	0 	0 	0
0.9343906389 	0 	0 	0 	2.690483682 	-0.0006521607407 	-7.424991325e-07 	0 	0 	0
0.9359591211 	0 	0 	0 	2.682752112 	-0.0006863191225 	-6.446153336e-07 	0 	0 	0
0.937510294 	0 	0 	0 	2.674626064 	-0.0007054166379 	-5.115697081e-07 	0 	0 	0
0.9390443485 	0 	0 	0 	2.666120654 	-0.0007099766954 	-3.827379492e-07 	0 	0 	0
0.9405614735 	0 	0 	0 	2.657261996 	-0.0007024965836 	-2.712353163e-07 	0 	0 	0
0.942061856 	0 	0 	0 	2.648073477 	-0.0006858520969 	-1.764196648e-07 	0 	0 	0
0.9435456805 	0 	0 	0 	2.638572867 	-0.0006624977137 	-9.25797489e-08 	0 	0 	0
0.9450131299 	0 	0 	0 	2.628772152 	-0.0006344366834 	-1.683816858e-08 	0 	0 	0
0.946464385 	0 	0 	0 	2.61867845 	-0.0006032016522 	5.095342564e-08 	0 	0 	0
0.9478996243 	0 	0 	0 	2.608295245 	-0.0005700297673 	1.07200391e-07 	0 	0 	0
0.9493190246 	0 	0 	0 	2.597623491 	-0.0005359899243 	1.46512282e-07 	0 	0 	0
0.9507227608 	0 	0 	0 	2.586662487 	-0.0005020588067 	1.647860979e-07 	0 	0 	0
0.9521110058 	0 	0 	0 	2.575410171 	-0.0004691097978 	1.618141059e-07 	0 	0 	0
0.9534839303 	0 	0 	0 	2.56386309 	-0.000437824491 	1.420819333e-07 	0 	0 	0
0.9548417036 	0 	0 	0 	2.552016082 	-0.0004085998585 	1.133072158e-07 	0 	0 	0
0.9561844929 	0 	0 	0 	2.539861756 	-0.0003815100655 	8.365085558e-08 	0 	0 	0
0.9575124634 	0 	0 	0 	2.52739082 	-0.0003563534786 	5.908703233e-08 	0 	0 	0
0.9588257788 	0 	0 	0 	2.514593111 	-0.0003327682962 	4.223291225e-08 	0 	0 	0
0.9601246008 	0 	0 	0 	2.501458766 	-0.0003103716602 	3.277483428e-08 	0 	0 	0
0.9614090893 	0 	0 	0 	2.487979214 	-0.000288871463 	2.872887206e-08 	0 	0 	0
0.9626794024 	0 	0 	0 	2.474147629 	-0.0002681269058 	2.770006301e-08 	0 	0 	0
0.9639356968 	0 	0 	0 	2.461173955 	-0.0002497939341 	2.761994413e-08 	0 	0 	0
0.9647540487 	0 	0 	0 	2.450439681 	-0.0002354594289 	2.734438366e-08 	0 	0 	0
0.9655573034 	0 	0 	0 	2.440867809 	-0.0002233860224 	2.660568296e-08 	0 	0 	0
0.9663457395 	0 	0 	0 	2.43125172 	-0.0002120222262 	2.544037569e-08 	0 	0 	0
0.9671196303 	0 	0 	0 	2.42159303 	-0.000201410268 	2.40392938e-08 	0 	0 	0
0.9678792442 	0 	0 	0 	2.411890852 	-0.0001912425538 	2.347684701e-08 	0 	0 	0
0.9686248445 	0 	0 	0 	2.402140688 	-0.0001819028167 	2.08309035e-08 	0 	0 	0
0.9693566897 	0 	0 	0 	2.392331622 	-0.0001740999275 	1.794017258e-08 	0 	0 	0
0.9700750337 	0 	0 	0 	2.38244653 	-0.0001665006401 	1.90956939e-08 	0 	0 	0
0.9707801255 	0 	0 	0 	2.372470527 	-0.0001584069619 	1.834362068e-08 	0 	0 	0
0.9714722095 	0 	0 	0 	2.362396458 	-0.0001509615343 	1.607734954e-08 	0 	0 	0
0.9721515258 	0 	0 	0 	2.352221071 	-0.0001441646996 	1.536585281e-08 	0 	0 	0
0.9728183099 	0 	0 	0 	2.341941702 	-0.0001375855774 	1.450236114e-08 	0 	0 	0
0.9734727929 	0 	0 	0 	2.331556033 	-0.0001312882378 	1.366979882e-08 	0 	0 	0
0.9741152019 	0 	0 	0 	2.321061919 	-0.0001252670511 	1.288019585e-08 	0 	0 	0
0.9747457596 	0 	0 	0 	2.310457155 	-0.0001195129102 	1.211977186e-08 	0 	0 	0
0.9753646845 	0 	0 	0 	2.299739432 	-0.0001140173536 	1.139307556e-08 	0 	0 	0
0.9759721914 	0 	0 	0 	2.288906314 	-0.0001087695189 	1.069851641e-08 	0 	0 	0
0.9765684907 	0 	0 	0 	2.277955212 	-0.000103758634 	1.003455945e-08 	0 	0 	0
0.9771537895 	0 	0 	0 	2.266883371 	-9.897419752e-05 	9.399930903e-09 	0 	0 	0
0.9777282904 	0 	0 	0 	2.255687853 	-9.440602453e-05 	8.793447952e-09 	0 	0 	0
0.9782921928 	0 	0 	0 	2.244365509 	-9.004426887e-05 	8.214065317e-09 	0 	0 	0
0.9788456922 	0 	0 	0 	2.232912964 	-8.587941379e-05 	7.660825254e-09 	0 	0 	0
0.9793889805 	0 	0 	0 	2.221326592 	-8.190227062e-05 	7.132836272e-09 	0 	0 	0
0.979922246 	0 	0 	0 	2.209602492 	-7.810398089e-05 	6.629266204e-09 	0 	0 	0
0.9804456737 	0 	0 	0 	2.197736465 	-7.447601972e-05 	6.149339995e-09 	0 	0 	0
0.9809594451 	0 	0 	0 	2.185723985 	-7.101019875e-05 	5.692337044e-09 	0 	0 	0
0.9814637383 	0 	0 	0 	2.173560173 	-6.769866767e-05 	5.257585835e-09 	0 	0 	0
0.9819587281 	0 	0 	0 	2.161239764 	-6.453391387e-05 	4.84445574e-09 	0 	0 	0
0.9824445862 	0 	0 	0 	2.14875708 	-6.150876007e-05 	4.452347455e-09 	0 	0 	0
0.9829214811 	0 	0 	0 	2.136105989 	-5.861635889e-05 	4.080683231e-09 	0 	0 	0
0.9833895781 	0 	0 	0 	2.12327987 	-5.585018776e-05 	3.72889386e-09 	0 	0 	0
0.9838490396 	0 	0 	0 	2.110271573 	-5.320404164e-05 	3.396412566e-09 	0 	0 	0
0.9843000247 	0 	0 	0 	2.097073366 	-5.067202191e-05 	3.082670972e-09 	0 	0 	0
0.98474269 	0 	0 	0 	2.083676893 	-4.824852719e-05 	2.787093232e-09 	0 	0 	0
0.9851771888 	0 	0 	0 	2.070073111 	-4.592824159e-05 	2.509099745e-09 	0 	0 	0
0.9856036719 	0 	0 	0 	2.05625223 	-4.370612326e-05 	2.248106999e-09 	0 	0 	0
0.9860222871 	0 	0 	0 	2.042203642 	-4.15773936e-05 	2.003533997e-09 	0 	0 	0
0.9864331796 	0 	0 	0 	2.027915844 	-3.953752349e-05 	1.774810189e-09 	0 	0 	0
0.9868364919 	0 	0 	0 	2.01337635 	-3.758222061e-05 	1.561378232e-09 	0 	0 	0
0.9872323637 	0 	0 	0 	1.998571592 	-3.570741735e-05 	1.362699786e-09 	0 	0 	0
0.9876209323 	0 	0 	0 	1.983486807 	-3.39092581e-05 	1.17825921e-09 	0 	0 	0
0.9880023326 	0 	0 	0 	1.968105912 	-3.218408677e-05 	1.007564395e-09 	0 	0 	0
0.9883766967 	0 	0 	0 	1.952411363 	-3.052843429e-05 	8.501443848e-10 	0 	0 	0
0.9887441544 	0 	0 	0 	1.936383987 	-2.893900602e-05 	7.055444424e-10 	0 	0 	0
0.9891048331 	0 	0 	0 	1.920002802 	-2.741266885e-05 	5.733190286e-10 	0 	0 	0
0.9894588579 	0 	0 	0 	1.9032448 	-2.594643759e-05 	4.530211785e-10 	0 	0 	0
0.9898063516 	0 	0 	0 	1.886084703 	-2.453745999e-05 	3.441880949e-10 	0 	0 	0
0.9901474347 	0 	0 	0 	1.868494684 	-2.318299992e-05 	2.463237957e-10 	0 	0 	0
0.9904822253 	0 	0 	0 	1.850444041 	-2.188041724e-05 	1.588806406e-10 	0 	0 	0
0.9908108397 	0 	0 	0 	1.831898818 	-2.062714474e-05 	8.123306337e-11 	0 	0 	0
0.9911333916 	0 	0 	0 	1.812821368 	-1.942069365e-05 	1.266789136e-11 	0 	0 	0
0.9914499931 	0 	0 	0 	1.793169841 	-1.825859979e-05 	-4.758125341e-11 	0 	0 	0
0.9917607538 	0 	0 	0 	1.772897584 	-1.713850673e-05 	-1.003657372e-10 	0 	0 	0
0.9920657815 	0 	0 	0 	1.751952431 	-1.605903773e-05 	-1.466974378e-10 	0 	0 	0
0.9923651819 	0 	0 	0 	1.730275867 	-1.500980897e-05 	-1.87651235e-10 	0 	0 	0
0.992659059 	0 	0 	0 	1.707802038 	-1.398877117e-05 	-2.241757387e-10 	0 	0 	0
0.9929475145 	0 	0 	0 	1.684456507 	-1.300339881e-05 	-2.568760247e-10 	0 	0 	0
0.9932306485 	0 	0 	0 	1.660155567 	-1.130276966e-05 	-2.857395559e-10 	0 	0 	0
0.9935085592 	0 	0 	0 	1.634804611 	-1.132375995e-05 	-3.135784864e-10 	0 	0 	0
0.9937813429 	0 	0 	0 	1.610607451 	-1.194722262e-05 	-3.474810567e-10 	0 	0 	0
0.9939569055 	0 	0 	0 	1.590161792 	-1.012112283e-05 	-3.788002314e-10 	0 	0 	0
0.9941324681 	0 	0 	0 	1.571335899 	-9.011431741e-06 	-3.986380875e-10 	0 	0 	0
0.9943080307 	0 	0 	0 	1.551619405 	-8.921680595e-06 	-4.117773264e-10 	0 	0 	0
0.9944835934 	0 	0 	0 	1.530930229 	-7.830375134e-06 	-5.038160786e-10 	0 	0 	0
0.994659156 	0 	0 	0 	1.509175822 	-6.844287699e-06 	-4.814246741e-10 	0 	0 	0
0.9948347186 	0 	0 	0 	1.48624774 	-7.435444897e-06 	-3.664658423e-10 	0 	0 	0
0.9950102812 	0 	0 	0 	1.462016427 	-7.532105057e-06 	-5.171574121e-10 	0 	0 	0
0.9951858439 	0 	0 	0 	1.436335432 	-6.365648499e-06 	-6.117797678e-10 	0 	0 	0
0.9953614065 	0 	0 	0 	1.409044103 	-5.513851707e-06 	-5.556040846e-10 	0 	0 	0
0.9955369691 	0 	0 	0 	1.37996165 	-4.971983546e-06 	-5.683008617e-10 	0 	0 	0
0.9957125317 	0 	0 	0 	1.348881218 	-4.450270101e-06 	-5.796401707e-10 	0 	0 	0
0.9958880943 	0 	0 	0 	1.315565964 	-4.038130083e-06 	-5.811959965e-10 	0 	0 	0
0.996063657 	0 	0 	0 	1.279744467 	-3.039965679e-06 	-5.127780075e-10 	0 	0 	0
0.9962392196 	0 	0 	0 	1.241107687 	1.890850556e-06 	-5.696109394e-10 	0 	0 	0
0.9964147822 	0 	0 	0 	1.199302314 	3.363643887e-06 	-6.817439954e-10 	0 	0 	0
0.9965903448 	0 	0 	0 	1.153906013 	-2.891783759e-06 	-5.077692818e-10 	0 	0 	0
0.9967659075 	0 	0 	0 	1.104414519 	-3.682782425e-06 	-4.112141317e-10 	0 	0 	0
0.9969414701 	0 	0 	0 	1.050271518 	-2.52865814e-06 	-4.555674837e-10 	0 	0 	0
0.9971170327 	0 	0 	0 	0.9908909755 	-7.412050027e-06 	-4.094342449e-10 	0 	0 	0
0.9972925953 	0 	0 	0 	0.9256777282 	-1.553923546e-05 	-3.611711398e-10 	0 	0 	0
0.997468158 	0 	0 	0 	0.8540988166 	-2.530775704e-05 	-3.104154143e-10 	0 	0 	0
0.9976437206 	0 	0 	0 	0.7758134566 	-2.990193583e-05 	-2.569418352e-10 	0 	0 	0
0.9978192832 	0 	0 	0 	0.6908644582 	-2.005396034e-05 	-2.035709264e-10 	0 	0 	0
0.9979948458 	0 	0 	0 	0.5998760716 	3.50622352e-06 	-1.576360175e-10 	0 	0 	0
0.9981704085 	0 	0 	0 	0.5041004627 	2.381642552e-05 	-1.220740727e-10 	0 	0 	0
0.9983459711 	0 	0 	0 	0.4051534807 	2.577084583e-05 	-8.945463567e-11 	0 	0 	0
0.9985215337 	0 	0 	0 	0.3045234112 	1.444529409e-05 	-5.461826082e-11 	0 	0 	0
0.9986970963 	0 	0 	0 	0.2031982749 	4.110970728e-06 	-2.400069098e-11 	0 	0 	0
0.998872659 	0 	0 	0 	0.101641482 	2.587773939e-07 	-5.779107573e-12 	0 	0 	0