0.3443842407 	-0.002456872937 	0.000641300634 	-1.515738459e-08 	0.0159842187 	-0.004186745313 	1.099632022e-07 	73.89295144 	-19.33623952 	0.0004550433574
0.3446065432 	0 	0 	0 	0.04914778775 	-0.01287828617 	2.161705116e-07 	0 	0 	0
0.3448288532 	0 	0 	0 	0.1009058371 	-0.02640923265 	2.889088293e-07 	0 	0 	0
0.3450511696 	0 	0 	0 	0.1551997518 	-0.04054494637 	2.391502838e-07 	0 	0 	0
0.3452734914 	0 	0 	0 	0.2117452542 	-0.05522201181 	8.886523099e-08 	0 	0 	0
0.3453683896 	0 	0 	0 	0.2365559826 	-0.06163957882 	-0.0002794454632 	0 	0 	0
0.3454955589 	0 	0 	0 	0.2698770495 	-0.07025736081 	1.067341448e-07 	0 	0 	0
0.3457174369 	0 	0 	0 	0.3284379463 	-0.08533815452 	3.130759689e-07 	0 	0 	0
0.3459393173 	0 	0 	0 	0.3859350313 	-0.100080876 	5.217814039e-07 	0 	0 	0
0.346161199 	0 	0 	0 	0.440950032 	-0.114135537 	7.121453633e-07 	0 	0 	0
0.3463830811 	0 	0 	0 	0.4925185574 	-0.1272627416 	8.731941278e-07 	0 	0 	0
0.3466049627 	0 	0 	0 	0.540230047 	-0.1393537207 	1.002344855e-06 	0 	0 	0
0.3468268426 	0 	0 	0 	0.5840985073 	-0.1504082028 	1.101896474e-06 	0 	0 	0
0.3470487201 	0 	0 	0 	0.6243779711 	-0.1604931486 	1.175533299e-06 	0 	0 	0
0.347270594 	0 	0 	0 	0.6614231333 	-0.1697047878 	1.226323496e-06 	0 	0 	0
0.3474924634 	0 	0 	0 	0.6956085403 	-0.1781448394 	1.256191741e-06 	0 	0 	0
0.3477143274 	0 	0 	0 	0.7272888412 	-0.1859091458 	1.266056484e-06 	0 	0 	0
0.347936185 	0 	0 	0 	0.7567824966 	-0.193083398 	1.256106846e-06 	0 	0 	0
0.3481580352 	0 	0 	0 	0.7843675832 	-0.1997422244 	1.226054691e-06 	0 	0 	0
0.348379877 	0 	0 	0 	0.8102833187 	-0.2059497447 	1.175332651e-06 	0 	0 	0
0.3486017095 	0 	0 	0 	0.8347339491 	-0.211760689 	1.103240278e-06 	0 	0 	0
0.3488235318 	0 	0 	0 	0.8578933238 	-0.2172216583 	1.009047837e-06 	0 	0 	0
0.3490453428 	0 	0 	0 	0.8799093689 	-0.2223723349 	8.920691257e-07 	0 	0 	0
0.3492671416 	0 	0 	0 	0.9009081292 	-0.2272465704 	7.516991717e-07 	0 	0 	0
0.3494889273 	0 	0 	0 	0.920997278 	-0.2318733175 	5.874618338e-07 	0 	0 	0
0.3497106988 	0 	0 	0 	0.9402690815 	-0.2362774154 	3.990525535e-07 	0 	0 	0
0.3499324553 	0 	0 	0 	0.9588028688 	-0.2404802592 	1.863067821e-07 	0 	0 	0
0.3501541958 	0 	0 	0 	0.9766671014 	-0.2445003463 	-5.091487628e-08 	0 	0 	0
0.3503759193 	0 	0 	0 	0.9939211127 	-0.24835373 	-3.127843757e-07 	0 	0 	0
0.3505976249 	0 	0 	0 	1.010616739 	-0.2520546591 	-5.993795534e-07 	0 	0 	0
0.3508193117 	0 	0 	0 	1.026799776 	-0.2556148151 	-9.10785659e-07 	0 	0 	0
0.3510409786 	0 	0 	0 	1.044637508 	-0.2595102879 	-1.290410018e-06 	0 	0 	0
0.3513853564 	0 	0 	0 	1.066174363 	-0.2641666792 	-1.819856224e-06 	0 	0 	0
0.3517361516 	0 	0 	0 	1.089193387 	-0.2690919532 	-2.460960823e-06 	0 	0 	0
0.3520934788 	0 	0 	0 	1.111731758 	-0.273858839 	-3.174688271e-06 	0 	0 	0
0.3524574545 	0 	0 	0 	1.133835114 	-0.2784809367 	-3.962593424e-06 	0 	0 	0
0.3528281968 	0 	0 	0 	1.155543828 	-0.2829685266 	-4.82629196e-06 	0 	0 	0
0.3532058255 	0 	0 	0 	1.176893359 	-0.2873310139 	-5.7671464e-06 	0 	0 	0
0.3535904623 	0 	0 	0 	1.197914714 	-0.2915766094 	-6.786365321e-06 	0 	0 	0
0.3539822304 	0 	0 	0 	1.218635129 	-0.2957125027 	-7.885095293e-06 	0 	0 	0
0.3543812548 	0 	0 	0 	1.239078589 	-0.299745014 	-9.064482297e-06 	0 	0 	0
0.3547876624 	0 	0 	0 	1.259266247 	-0.3036796965 	-1.032560992e-05 	0 	0 	0
0.3552015816 	0 	0 	0 	1.279216743 	-0.3075214333 	-1.166954894e-05 	0 	0 	0
0.3556231425 	0 	0 	0 	1.298946496 	-0.3112745158 	-1.30973472e-05 	0 	0 	0
0.356052477 	0 	0 	0 	1.318469957 	-0.3149427088 	-1.460994311e-05 	0 	0 	0
0.3564897188 	0 	0 	0 	1.33779984 	-0.3185293128 	-1.620817398e-05 	0 	0 	0
0.3569350029 	0 	0 	0 	1.356947308 	-0.3220372143 	-1.789277567e-05 	0 	0 	0
0.3573884662 	0 	0 	0 	1.375922126 	-0.3254689429 	-1.966437309e-05 	0 	0 	0
0.3578502473 	0 	0 	0 	1.394732813 	-0.3288266899 	-2.152347307e-05 	0 	0 	0
0.358320486 	0 	0 	0 	1.413409392 	-0.332116302 	-2.347208393e-05 	0 	0 	0
0.3588016631 	0 	0 	0 	1.431996923 	-0.3353458515 	-2.551829882e-05 	0 	0 	0
0.359293396 	0 	0 	0 	1.450492875 	-0.3385150386 	-2.766351086e-05 	0 	0 	0
0.3597942051 	0 	0 	0 	1.468863409 	-0.3416182139 	-2.990297315e-05 	0 	0 	0
0.3603042555 	0 	0 	0 	1.487097607 	-0.3446537516 	-3.223616753e-05 	0 	0 	0
0.3608237152 	0 	0 	0 	1.505199303 	-0.3476225969 	-3.466373137e-05 	0 	0 	0
0.3613527551 	0 	0 	0 	1.523171717 	-0.3505255102 	-3.718614445e-05 	0 	0 	0
0.3618915494 	0 	0 	0 	1.54101751 	-0.3533631125 	-3.98038032e-05 	0 	0 	0
0.362440275 	0 	0 	0 	1.55873883 	-0.356135894 	-4.251701697e-05 	0 	0 	0
0.3629991123 	0 	0 	0 	1.576337362 	-0.3588442302 	-4.532592383e-05 	0 	0 	0
0.3635682448 	0 	0 	0 	1.593814372 	-0.3614883927 	-4.823051021e-05 	0 	0 	0
0.3641478591 	0 	0 	0 	1.611170756 	-0.3640685615 	-5.123060487e-05 	0 	0 	0
0.3647381453 	0 	0 	0 	1.628407075 	-0.3665848352 	-5.432585243e-05 	0 	0 	0
0.3653392967 	0 	0 	0 	1.645523589 	-0.3690372408 	-5.751576963e-05 	0 	0 	0
0.3659515103 	0 	0 	0 	1.662520282 	-0.3714257371 	-6.079974851e-05 	0 	0 	0
0.3665749862 	0 	0 	0 	1.679396884 	-0.3737502231 	-6.417690539e-05 	0 	0 	0
0.3672099285 	0 	0 	0 	1.696152933 	-0.3760105548 	-6.764607928e-05 	0 	0 	0
0.3678565445 	0 	0 	0 	1.712787835 	-0.3782065567 	-7.120591994e-05 	0 	0 	0
0.3685150454 	0 	0 	0 	1.729300858 	-0.3803380217 	-7.485507966e-05 	0 	0 	0
0.3691856462 	0 	0 	0 	1.745691108 	-0.3824047089 	-7.859222492e-05 	0 	0 	0
0.3698685656 	0 	0 	0 	1.761957579 	-0.384406352 	-8.241577255e-05 	0 	0 	0
0.370564026 	0 	0 	0 	1.778099195 	-0.3863426761 	-8.632386484e-05 	0 	0 	0
0.3712722542 	0 	0 	0 	1.794114828 	-0.3882133985 	-9.031438629e-05 	0 	0 	0
0.3719934806 	0 	0 	0 	1.810011229 	-0.3900191055 	-9.438609576e-05 	0 	0 	0
0.3727294247 	0 	0 	0 	1.825816613 	-0.3917626352 	-9.854569732e-05 	0 	0 	0
0.3734830113 	0 	0 	0 	1.841541993 	-0.3934445636 	-0.0001028013911 	0 	0 	0
0.3742503944 	0 	0 	0 	1.857153252 	-0.3950607972 	-0.0001032195792 	0 	0 	0
0.375031822 	0 	0 	0 	1.872628166 	-0.3966087088 	-0.0001021556528 	0 	0 	0
0.3758275468 	0 	0 	0 	1.887965722 	-0.3980881163 	-0.0001009220402 	0 	0 	0
0.3766378254 	0 	0 	0 	1.903164973 	-0.3994987969 	-9.951966041e-05 	0 	0 	0
0.3774629195 	0 	0 	0 	1.918225048 	-0.4008405616 	-9.7949726e-05 	0 	0 	0
0.3783030949 	0 	0 	0 	1.933145151 	-0.4021132406 	-9.621373305e-05 	0 	0 	0
0.3791586226 	0 	0 	0 	1.947924562 	-0.4033166842 	-9.431345904e-05 	0 	0 	0
0.3800297781 	0 	0 	0 	1.962562643 	-0.4044507622 	-9.225096066e-05 	0 	0 	0
0.3809168418 	0 	0 	0 	1.977058826 	-0.4055153625 	-9.002856928e-05 	0 	0 	0
0.3818200992 	0 	0 	0 	1.991412606 	-0.406510388 	-8.764888619e-05 	0 	0 	0
0.3827398406 	0 	0 	0 	2.005623526 	-0.4074357529 	-8.511478059e-05 	0 	0 	0
0.3836763618 	0 	0 	0 	2.01969117 	-0.4082913858 	-8.242939743e-05 	0 	0 	0
0.3846299636 	0 	0 	0 	2.033615203 	-0.4090772374 	-7.959618367e-05 	0 	0 	0
0.3856009522 	0 	0 	0 	2.047399171 	-0.4097934584 	-7.661917176e-05 	0 	0 	0
0.3865907222 	0 	0 	0 	2.061066494 	-0.4104412328 	-7.349867208e-05 	0 	0 	0
0.387604356 	0 	0 	0 	2.074633651 	-0.4110207169 	-7.021801179e-05 	0 	0 	0
0.3886364169 	0 	0 	0 	2.08972971 	-0.4115940133 	-6.688623708e-05 	0 	0 	0
0.3902195767 	0 	0 	0 	2.107968054 	-0.412168011 	-6.146305077e-05 	0 	0 	0
0.3918189307 	0 	0 	0 	2.127227992 	-0.4126433596 	-5.594674127e-05 	0 	0 	0
0.3934346495 	0 	0 	0 	2.145884355 	-0.4129645847 	-5.028489747e-05 	0 	0 	0
0.3950669062 	0 	0 	0 	2.163967143 	-0.4131406702 	-4.45029478e-05 	0 	0 	0
0.3967158762 	0 	0 	0 	2.181504941 	-0.4131788136 	-3.862419755e-05 	0 	0 	0
0.398381737 	0 	0 	0 	2.198524838 	-0.4130860024 	-3.267052179e-05 	0 	0 	0
0.4000646689 	0 	0 	0 	2.21507444 	-0.412868441 	-2.666248899e-05 	0 	0 	0
0.4017744432 	0 	0 	0 	2.231202214 	-0.4125312026 	-2.057824034e-05 	0 	0 	0
0.4035026989 	0 	0 	0 	2.246903237 	-0.4120797469 	-1.44773601e-05 	0 	0 	0
0.4052485868 	0 	0 	0 	2.262173334 	-0.4115197063 	-8.38074639e-06 	0 	0 	0
0.4070122955 	0 	0 	0 	2.277029671 	-0.4108562966 	-2.303470285e-06 	0 	0 	0
0.407690136 	0 	0 	0 	2.282532354 	-0.4105664912 	4.022053628e-05 	0 	0 	0
0.408792624 	0 	0 	0 	2.291480329 	-0.4100866211 	-4.01022212e-06 	0 	0 	0
0.4105903171 	0 	0 	0 	2.30554657 	-0.4092182073 	-1.043504217e-05 	0 	0 	0
0.4124064297 	0 	0 	0 	2.319253297 	-0.4082595756 	-1.679251166e-05 	0 	0 	0
0.4142429688 	0 	0 	0 	2.332632992 	-0.4072130235 	-2.308049916e-05 	0 	0 	0
0.4161069656 	0 	0 	0 	2.345710063 	-0.4060806692 	-2.931435676e-05 	0 	0 	0
0.417989985 	0 	0 	0 	2.358473525 	-0.4048671754 	-3.544579308e-05 	0 	0 	0
0.4198922341 	0 	0 	0 	2.370919268 	-0.403576635 	-4.146644915e-05 	0 	0 	0
0.4218139229 	0 	0 	0 	2.383056063 	-0.4022116229 	-4.736705127e-05 	0 	0 	0
0.4237552645 	0 	0 	0 	2.394891643 	-0.4007743018 	-5.313960262e-05 	0 	0 	0
0.4257164752 	0 	0 	0 	2.406436706 	-0.3992671476 	-5.878579123e-05 	0 	0 	0
0.4276986919 	0 	0 	0 	2.417720231 	-0.3976924667 	-6.432893572e-05 	0 	0 	0
0.4297104706 	0 	0 	0 	2.428776832 	-0.3960560324 	-6.985194011e-05 	0 	0 	0
0.4317427659 	0 	0 	0 	2.439612545 	-0.3943701254 	-7.53669268e-05 	0 	0 	0
0.4337958054 	0 	0 	0 	2.450225904 	-0.3926407746 	-8.078410702e-05 	0 	0 	0
0.4358698202 	0 	0 	0 	2.460610324 	-0.3908638426 	-8.595763074e-05 	0 	0 	0
0.4379650448 	0 	0 	0 	2.470754927 	-0.3890352121 	-9.089497379e-05 	0 	0 	0
0.4400817173 	0 	0 	0 	2.480661359 	-0.3871534655 	-9.566372534e-05 	0 	0 	0
0.4422255123 	0 	0 	0 	2.490342904 	-0.3852173197 	-0.0001002824201 	0 	0 	0
0.4443955983 	0 	0 	0 	2.4998011 	-0.3832282652 	-0.0001047373092 	0 	0 	0
0.4465878315 	0 	0 	0 	2.509028608 	-0.3811900416 	-0.0001090215759 	0 	0 	0
0.4488024631 	0 	0 	0 	2.518025685 	-0.3791053061 	-0.0001131353415 	0 	0 	0
0.4510397483 	0 	0 	0 	2.526797049 	-0.3769757382 	-0.000114793241 	0 	0 	0
0.4532999463 	0 	0 	0 	2.535351337 	-0.3748018413 	-0.0001084152821 	0 	0 	0
0.4555878644 	0 	0 	0 	2.543701664 	-0.3725828171 	-0.0001021559292 	0 	0 	0
0.4579040328 	0 	0 	0 	2.551851465 	-0.3703200893 	-9.60243675e-05 	0 	0 	0
0.4602438632 	0 	0 	0 	2.559795467 	-0.3680174384 	-9.004093796e-05 	0 	0 	0
0.4626076297 	0 	0 	0 	2.567534077 	-0.3656774435 	-8.420765382e-05 	0 	0 	0
0.4649956106 	0 	0 	0 	2.575071638 	-0.3633015424 	-7.852574927e-05 	0 	0 	0
0.4674080891 	0 	0 	0 	2.582417522 	-0.3608893224 	-7.299557039e-05 	0 	0 	0
0.4698526333 	0 	0 	0 	2.589582869 	-0.3584397518 	-6.760007398e-05 	0 	0 	0
0.4723238069 	0 	0 	0 	2.596565634 	-0.3559557361 	-6.236297103e-05 	0 	0 	0
0.4748202848 	0 	0 	0 	2.603363308 	-0.3534406657 	-5.728953431e-05 	0 	0 	0
0.4773423667 	0 	0 	0 	2.609978852 	-0.3508962026 	-5.237943638e-05 	0 	0 	0
0.4798903572 	0 	0 	0 	2.616418653 	-0.3483224945 	-4.763169459e-05 	0 	0 	0
0.4824688066 	0 	0 	0 	2.622691725 	-0.3457185468 	-4.303611398e-05 	0 	0 	0
0.4850778683 	0 	0 	0 	2.628800859 	-0.34308557 	-3.859960349e-05 	0 	0 	0
0.4877136985 	0 	0 	0 	2.634743899 	-0.3404268096 	-3.433212701e-05 	0 	0 	0
0.4903766202 	0 	0 	0 	2.640522198 	-0.3377443251 	-3.023185706e-05 	0 	0 	0
0.4930669622 	0 	0 	0 	2.646141145 	-0.3350381838 	-2.629637735e-05 	0 	0 	0
0.4957890047 	0 	0 	0 	2.65160816 	-0.3323073915 	-2.25163447e-05 	0 	0 	0
0.498542954 	0 	0 	0 	2.656925795 	-0.3295529936 	-1.889695412e-05 	0 	0 	0
0.501325243 	0 	0 	0 	2.662092716 	-0.3267779237 	-1.544444073e-05 	0 	0 	0
0.5041362209 	0 	0 	0 	2.667110321 	-0.3239840072 	-1.215549793e-05 	0 	0 	0
0.5069762428 	0 	0 	0 	2.671983826 	-0.3211707668 	-9.026446546e-06 	0 	0 	0
0.5098513058 	0 	0 	0 	2.67671943 	-0.3183371849 	-6.046978666e-06 	0 	0 	0
0.5127576566 	0 	0 	0 	2.681317211 	-0.3154852419 	-3.226794444e-06 	0 	0 	0
0.515694038 	0 	0 	0 	2.685776777 	-0.3126174363 	-5.646212586e-07 	0 	0 	0
0.5163520982 	0 	0 	0 	2.686736233 	-0.3119779404 	4.477290842e-05 	0 	0 	0
0.5186599183 	0 	0 	0 	2.690099109 	-0.3097308148 	-2.07900447e-06 	0 	0 	0
0.5216583595 	0 	0 	0 	2.69429041 	-0.3068273273 	-4.60709208e-06 	0 	0 	0
0.5246926629 	0 	0 	0 	2.698354307 	-0.3039080607 	-6.98231183e-06 	0 	0 	0
0.5277584632 	0 	0 	0 	2.702289981 	-0.3009754234 	-9.200235673e-06 	0 	0 	0
0.5308561613 	0 	0 	0 	2.706098169 	-0.2980310484 	-1.126637033e-05 	0 	0 	0
0.533986392 	0 	0 	0 	2.709782485 	-0.2950741781 	-1.3186478e-05 	0 	0 	0
0.5371552072 	0 	0 	0 	2.713346646 	-0.2921039831 	-1.496781458e-05 	0 	0 	0
0.5403570304 	0 	0 	0 	2.716789686 	-0.2891226882 	-1.660416526e-05 	0 	0 	0
0.5435922885 	0 	0 	0 	2.720111686 	-0.2861320843 	-1.810171301e-05 	0 	0 	0
0.5468614163 	0 	0 	0 	2.723315301 	-0.2831315311 	-1.946646937e-05 	0 	0 	0
0.5501702641 	0 	0 	0 	2.726403418 	-0.2801201792 	-2.070548485e-05 	0 	0 	0
0.5535138574 	0 	0 	0 	2.729375166 	-0.277099925 	-2.181449381e-05 	0 	0 	0
0.5568925193 	0 	0 	0 	2.732230504 	-0.2740722676 	-2.279995854e-05 	0 	0 	0
0.5603072062 	0 	0 	0 	2.734971263 	-0.2710366444 	-2.366858642e-05 	0 	0 	0
0.5637623821 	0 	0 	0 	2.737599073 	-0.2679925345 	-2.442463074e-05 	0 	0 	0
0.5672538805 	0 	0 	0 	2.740112914 	-0.2649415921 	-2.506695539e-05 	0 	0 	0
0.5707821855 	0 	0 	0 	2.742512649 	-0.2618847216 	-2.560220085e-05 	0 	0 	0
0.5743495265 	0 	0 	0 	2.744799143 	-0.2588213334 	-2.603729967e-05 	0 	0 	0
0.577957345 	0 	0 	0 	2.746972173 	-0.2557515052 	-2.637270757e-05 	0 	0 	0
0.5816033051 	0 	0 	0 	2.74903017 	-0.2526764647 	-2.661142851e-05 	0 	0 	0
0.5852879225 	0 	0 	0 	2.750972241 	-0.2495962963 	-2.676001314e-05 	0 	0 	0
0.5890150047 	0 	0 	0 	2.752797631 	-0.2465102814 	-2.682389854e-05 	0 	0 	0
0.5927823599 	0 	0 	0 	2.754503824 	-0.2434191257 	-2.680248743e-05 	0 	0 	0
0.5965897945 	0 	0 	0 	2.756088304 	-0.2403233467 	-2.670179879e-05 	0 	0 	0
0.6004392764 	0 	0 	0 	2.757549039 	-0.2372224516 	-2.652845742e-05 	0 	0 	0
0.6043319749 	0 	0 	0 	2.758883593 	-0.2341163554 	-2.628334708e-05 	0 	0 	0
0.6082662433 	0 	0 	0 	2.760089327 	-0.2310058089 	-2.597065675e-05 	0 	0 	0
0.6122429764 	0 	0 	0 	2.761164574 	-0.2278908058 	-2.559684114e-05 	0 	0 	0
0.6162651862 	0 	0 	0 	2.762108402 	-0.2247710655 	-2.516423557e-05 	0 	0 	0
0.620330528 	0 	0 	0 	2.762920185 	-0.2216475647 	-2.467465737e-05 	0 	0 	0
0.6244396024 	0 	0 	0 	2.763600815 	-0.2185207177 	-2.413407885e-05 	0 	0 	0
0.6285955101 	0 	0 	0 	2.764152329 	-0.2153904289 	-2.354569831e-05 	0 	0 	0
0.6327963996 	0 	0 	0 	2.764577098 	-0.2122576587 	-2.291011698e-05 	0 	0 	0
0.6370426866 	0 	0 	0 	2.764878312 	-0.2091229625 	-2.223300461e-05 	0 	0 	0
0.6413370089 	0 	0 	0 	2.765059391 	-0.2059863894 	-2.151788801e-05 	0 	0 	0
0.6456781654 	0 	0 	0 	2.765123232 	-0.202848679 	-2.07655751e-05 	0 	0 	0
0.6500664637 	0 	0 	0 	2.765072295 	-0.1997102162 	-1.99817229e-05 	0 	0 	0
0.6545043509 	0 	0 	0 	2.764908139 	-0.1965709535 	-1.916959052e-05 	0 	0 	0
0.6589907485 	0 	0 	0 	2.764631107 	-0.1934313828 	-1.833033969e-05 	0 	0 	0
0.6635261572 	0 	0 	0 	2.764240602 	-0.1902916568 	-1.746950321e-05 	0 	0 	0
0.6681128654 	0 	0 	0 	2.763734985 	-0.1871516132 	-1.658934596e-05 	0 	0 	0
0.6727497425 	0 	0 	0 	2.763113979 	-0.1840197056 	-1.569266263e-05 	0 	0 	0
0.6773861214 	0 	0 	0 	2.762381849 	-0.1809222231 	-1.479381467e-05 	0 	0 	0
0.6819716458 	0 	0 	0 	2.761546349 	-0.1778840936 	-1.390315061e-05 	0 	0 	0
0.6865058683 	0 	0 	0 	2.760613861 	-0.1749113917 	-1.302426711e-05 	0 	0 	0
0.6909899831 	0 	0 	0 	2.759588571 	-0.1720020876 	-1.21609196e-05 	0 	0 	0
0.6954247659 	0 	0 	0 	2.758474535 	-0.1691542277 	-1.131299886e-05 	0 	0 	0
0.6998101865 	0 	0 	0 	2.757275887 	-0.1663660682 	-1.048287881e-05 	0 	0 	0
0.7041473543 	0 	0 	0 	2.75599673 	-0.163635886 	-9.672883814e-06 	0 	0 	0
0.708436817 	0 	0 	0 	2.754641107 	-0.1609620998 	-8.882176204e-06 	0 	0 	0
0.7126787351 	0 	0 	0 	2.753213091 	-0.1583432597 	-8.112141948e-06 	0 	0 	0
0.7168740637 	0 	0 	0 	2.751716541 	-0.155777904 	-7.363825736e-06 	0 	0 	0
0.7210233433 	0 	0 	0 	2.750154939 	-0.1532646022 	-6.635611677e-06 	0 	0 	0
0.7251267892 	0 	0 	0 	2.748531306 	-0.1508019092 	-5.927789888e-06 	0 	0 	0
0.7291851807 	0 	0 	0 	2.74684783 	-0.1483882156 	-5.240705979e-06 	0 	0 	0
0.73319916 	0 	0 	0 	2.745105647 	-0.14602174 	-4.572679099e-06 	0 	0 	0
0.7371689229 	0 	0 	0 	2.743304784 	-0.1437005469 	-3.923712773e-06 	0 	0 	0
0.7410950781 	0 	0 	0 	2.741443917 	-0.1414224175 	-3.294585123e-06 	0 	0 	0
0.7449784111 	0 	0 	0 	2.7395203 	-0.1391848614 	-2.684927535e-06 	0 	0 	0
0.7488190624 	0 	0 	0 	2.737529954 	-0.1369852455 	-2.095426403e-06 	0 	0 	0
0.7526175557 	0 	0 	0 	2.735467694 	-0.1348207179 	-1.528152043e-06 	0 	0 	0
0.7563746203 	0 	0 	0 	2.733327254 	-0.1326882738 	-9.849937766e-07 	0 	0 	0
0.7600905322 	0 	0 	0 	2.731101642 	-0.1305849242 	-4.675237739e-07 	0 	0 	0
0.7636007819 	0 	0 	0 	2.72888746 	-0.1286009594 	5.303178265e-06 	0 	0 	0
0.7637656988 	0 	0 	0 	2.728783424 	-0.1285076725 	-1.867619518e-08 	0 	0 	0
0.7674002605 	0 	0 	0 	2.726365005 	-0.1264525113 	-4.195164201e-07 	0 	0 	0
0.7709951809 	0 	0 	0 	2.723839023 	-0.1244183792 	-7.901580523e-07 	0 	0 	0
0.7745507588 	0 	0 	0 	2.721199129 	-0.1224034443 	-1.13236219e-06 	0 	0 	0
0.7780674581 	0 	0 	0 	2.71844058 	-0.1204066091 	-1.450147507e-06 	0 	0 	0
0.7815458334 	0 	0 	0 	2.715561127 	-0.1184277304 	-1.750586952e-06 	0 	0 	0
0.7849862318 	0 	0 	0 	2.712561956 	-0.1164678159 	-2.043650012e-06 	0 	0 	0
0.7883890421 	0 	0 	0 	2.709448278 	-0.1145290504 	-2.339977553e-06 	0 	0 	0
0.7917546993 	0 	0 	0 	2.706229358 	-0.1126146664 	-2.64985659e-06 	0 	0 	0
0.7950837181 	0 	0 	0 	2.702918117 	-0.1107286411 	-2.981397136e-06 	0 	0 	0
0.7983763974 	0 	0 	0 	2.699530142 	-0.1088752359 	-3.337849451e-06 	0 	0 	0
0.8016331439 	0 	0 	0 	2.696081734 	-0.1070583308 	-3.715046022e-06 	0 	0 	0
0.8048543671 	0 	0 	0 	2.692587453 	-0.1052807242 	-4.101268375e-06 	0 	0 	0
0.8080405314 	0 	0 	0 	2.689057765 	-0.1035435685 	-4.478632195e-06 	0 	0 	0
0.8111919383 	0 	0 	0 	2.685497289 	-0.1018460691 	-4.825096793e-06 	0 	0 	0
0.8143089796 	0 	0 	0 	2.681903935 	-0.1001854773 	-5.117156724e-06 	0 	0 	0
0.8173920419 	0 	0 	0 	2.678269095 	-0.09855738715 	-5.333012591e-06 	0 	0 	0
0.8204415432 	0 	0 	0 	2.674578598 	-0.0969562136 	-5.453339395e-06 	0 	0 	0
0.8234578018 	0 	0 	0 	2.670813893 	-0.09537558694 	-5.458886144e-06 	0 	0 	0
0.8264411824 	0 	0 	0 	2.666952235 	-0.09380847697 	-5.327599147e-06 	0 	0 	0
0.8293920517 	0 	0 	0 	2.662966079 	-0.09224714319 	-5.036452454e-06 	0 	0 	0
0.8323107879 	0 	0 	0 	2.658822884 	-0.09068319787 	-4.567316935e-06 	0 	0 	0
0.8351977266 	0 	0 	0 	2.654485924 	-0.08910798192 	-3.917247432e-06 	0 	0 	0
0.838053203 	0 	0 	0 	2.649916748 	-0.08751346861 	-3.114442812e-06 	0 	0 	0
0.8408775654 	0 	0 	0 	2.645080558 	-0.08589400134 	-2.243539589e-06 	0 	0 	0
0.8436711583 	0 	0 	0 	2.639956456 	-0.08424903697 	-1.470031543e-06 	0 	0 	0
0.8464343327 	0 	0 	0 	2.634551883 	-0.08258650532 	-1.035819527e-06 	0 	0 	0
0.8491673941 	0 	0 	0 	2.628916787 	-0.08092507403 	-1.193664505e-06 	0 	0 	0
0.8518706739 	0 	0 	0 	2.623145785 	-0.07929288725 	-2.087026618e-06 	0 	0 	0
0.8545444993 	0 	0 	0 	2.6173581 	-0.07772134527 	-3.645230676e-06 	0 	0 	0
0.8571891969 	0 	0 	0 	2.611661928 	-0.0762356995 	-5.579967046e-06 	0 	0 	0
0.8598050829 	0 	0 	0 	2.606119515 	-0.07484718131 	-7.500584748e-06 	0 	0 	0
0.8623924596 	0 	0 	0 	2.600732007 	-0.07355080702 	-9.071460709e-06 	0 	0 	0
0.864951639 	0 	0 	0 	2.595449468 	-0.07232940029 	-1.01121821e-05 	0 	0 	0
0.8674829292 	0 	0 	0 	2.59019458 	-0.07116061294 	-1.060385748e-05 	0 	0 	0
0.8699866364 	0 	0 	0 	2.584886332 	-0.07002306788 	-1.062904221e-05 	0 	0 	0
0.8724630593 	0 	0 	0 	2.579454353 	-0.06889955929 	-1.029354887e-05 	0 	0 	0
0.8749124865 	0 	0 	0 	2.573842145 	-0.06777736562 	-9.670866965e-06 	0 	0 	0
0.8773352122 	0 	0 	0 	2.568003339 	-0.06664685636 	-8.778045669e-06 	0 	0 	0
0.8797315274 	0 	0 	0 	2.561895674 	-0.06549951732 	-7.572595252e-06 	0 	0 	0
0.8821017194 	0 	0 	0 	2.55547417 	-0.06432613953 	-5.963400598e-06 	0 	0 	0
0.8844460737 	0 	0 	0 	2.548685336 	-0.06311569806 	-3.786666699e-06 	0 	0 	0
0.8867648633 	0 	0 	0 	2.541465849 	-0.06185560811 	-1.062040349e-06 	0 	0 	0
0.889058366 	0 	0 	0 	2.533749721 	-0.06053411474 	1.929722068e-06 	0 	0 	0
0.8913268564 	0 	0 	0 	2.525487545 	-0.05914530687 	4.883785908e-06 	0 	0 	0
0.8935706063 	0 	0 	0 	2.516677782 	-0.05769594112 	7.272511199e-06 	0 	0 	0
0.8957898846 	0 	0 	0 	2.507401805 	-0.05621111273 	8.45855955e-06 	0 	0 	0
0.8979849547 	0 	0 	0 	2.497831274 	-0.05473343332 	7.98444702e-06 	0 	0 	0
0.9001560763 	0 	0 	0 	2.488190515 	-0.053312992 	5.885338415e-06 	0 	0 	0
0.9023035092 	0 	0 	0 	2.478681465 	-0.0519913383 	2.750682344e-06 	0 	0 	0
0.9044275105 	0 	0 	0 	2.469409821 	-0.05078770741 	-5.408762566e-07 	0 	0 	0
0.9065283342 	0 	0 	0 	2.460360615 	-0.0496955756 	-3.236486257e-06 	0 	0 	0
0.9086062317 	0 	0 	0 	2.451427599 	-0.04868995389 	-4.977529663e-06 	0 	0 	0
0.9106614501 	0 	0 	0 	2.442469375 	-0.04773929716 	-5.788781707e-06 	0 	0 	0
0.9126942333 	0 	0 	0 	2.433356648 	-0.04681528761 	-5.90800509e-06 	0 	0 	0
0.9147048246 	0 	0 	0 	2.42399434 	-0.04589746847 	-5.613586503e-06 	0 	0 	0
0.9166934645 	0 	0 	0 	2.414322004 	-0.04497326946 	-5.121784549e-06 	0 	0 	0
0.9186603909 	0 	0 	0 	2.404302884 	-0.0440356297 	-4.555602818e-06 	0 	0 	0
0.9206058391 	0 	0 	0 	2.393912444 	-0.04308029218 	-3.961899567e-06 	0 	0 	0
0.9225300416 	0 	0 	0 	2.383132192 	-0.0421039501 	-3.343699873e-06 	0 	0 	0
0.924433227 	0 	0 	0 	2.371949186 	-0.04110361628 	-2.690108844e-06 	0 	0 	0
0.9263156229 	0 	0 	0 	2.360360813 	-0.04007711642 	-1.998285094e-06 	0 	0 	0
0.9281774546 	0 	0 	0 	2.348382863 	-0.0390244545 	-1.288044352e-06 	0 	0 	0
0.9300189449 	0 	0 	0 	2.336057908 	-0.03794949942 	-6.087958724e-07 	0 	0 	0
0.9318403144 	0 	0 	0 	2.323458575 	-0.03686117515 	-3.389699845e-08 	0 	0 	0
0.9336417811 	0 	0 	0 	2.310679755 	-0.03577309802 	3.610328064e-07 	0 	0 	0
0.9354235603 	0 	0 	0 	2.297818047 	-0.03470089582 	5.321924492e-07 	0 	0 	0
0.9371858648 	0 	0 	0 	2.28494037 	-0.03365709627 	5.048899624e-07 	0 	0 	0
0.9389289053 	0 	0 	0 	2.272054908 	-0.03264793611 	3.477230149e-07 	0 	0 	0
0.9406528909 	0 	0 	0 	2.259102762 	-0.03167166678 	1.580493344e-07 	0 	0 	0
0.9423580282 	0 	0 	0 	2.245982306 	-0.03071869872 	3.865399527e-08 	0 	0 	0
0.9440445214 	0 	0 	0 	2.232596109 	-0.02977914064 	-3.064825954e-09 	0 	0 	0
0.9457125728 	0 	0 	0 	2.21888148 	-0.02884846939 	-2.203791049e-08 	0 	0 	0
0.9473623823 	0 	0 	0 	2.20480585 	-0.0279252747 	-3.693031564e-08 	0 	0 	0
0.9489941474 	0 	0 	0 	2.190348807 	-0.02700816482 	-3.814317226e-08 	0 	0 	0
0.9506080637 	0 	0 	0 	2.175490911 	-0.02609641804 	-2.901172369e-08 	0 	0 	0
0.9522043246 	0 	0 	0 	2.160209368 	-0.02518952976 	-1.586853231e-08 	0 	0 	0
0.9537831219 	0 	0 	0 	2.144477768 	-0.02428637573 	1.287996875e-08 	0 	0 	0
0.955344645 	0 	0 	0 	2.129661888 	-0.02346184599 	5.256257158e-08 	0 	0 	0
0.9563619032 	0 	0 	0 	2.117361776 	-0.02279546229 	8.695685086e-08 	0 	0 	0
0.957360456 	0 	0 	0 	2.106365167 	-0.02221351487 	1.11571035e-07 	0 	0 	0
0.9583406462 	0 	0 	0 	2.09529549 	-0.02164063803 	1.294743709e-07 	0 	0 	0
0.9593028105 	0 	0 	0 	2.084153557 	-0.02107629837 	1.459432138e-07 	0 	0 	0
0.9602472794 	0 	0 	0 	2.072938202 	-0.02052107272 	1.595410547e-07 	0 	0 	0
0.9611743772 	0 	0 	0 	2.061648125 	-0.01997513567 	1.688733846e-07 	0 	0 	0
0.9620844225 	0 	0 	0 	2.05028182 	-0.01943819703 	1.761417042e-07 	0 	0 	0
0.962977728 	0 	0 	0 	2.03883795 	-0.01891019369 	1.816948519e-07 	0 	0 	0
0.9638546008 	0 	0 	0 	2.027315474 	-0.0183910414 	1.858427163e-07 	0 	0 	0
0.9647153423 	0 	0 	0 	2.015713567 	-0.01788066086 	1.888071286e-07 	0 	0 	0
0.9655602484 	0 	0 	0 	2.00403158 	-0.01737897907 	1.90734933e-07 	0 	0 	0
0.9663896097 	0 	0 	0 	1.992269014 	-0.01688592519 	1.917403534e-07 	0 	0 	0
0.9672037114 	0 	0 	0 	1.980425505 	-0.01640143138 	1.919150642e-07 	0 	0 	0
0.9680028336 	0 	0 	0 	1.968500807 	-0.0159254324 	1.913357126e-07 	0 	0 	0
0.9687872512 	0 	0 	0 	1.956494765 	-0.01545786564 	1.900683932e-07 	0 	0 	0
0.969557234 	0 	0 	0 	1.944407299 	-0.0149986709 	1.881720196e-07 	0 	0 	0
0.9703130471 	0 	0 	0 	1.932238374 	-0.01454778995 	1.857007203e-07 	0 	0 	0
0.9710549506 	0 	0 	0 	1.919987976 	-0.01410516624 	1.827049442e-07 	0 	0 	0
0.9717831999 	0 	0 	0 	1.907656081 	-0.01367074454 	1.792315884e-07 	0 	0 	0
0.9724980456 	0 	0 	0 	1.895242629 	-0.01324447031 	1.753257476e-07 	0 	0 	0
0.9731997339 	0 	0 	0 	1.882747499 	-0.01282628962 	1.710304602e-07 	0 	0 	0
0.9738885064 	0 	0 	0 	1.870170478 	-0.01241614869 	1.663865866e-07 	0 	0 	0
0.9745646003 	0 	0 	0 	1.857511236 	-0.01201399331 	1.614343831e-07 	0 	0 	0
0.9752282485 	0 	0 	0 	1.844769292 	-0.01161976882 	1.562122106e-07 	0 	0 	0
0.9758796795 	0 	0 	0 	1.831943989 	-0.01123341985 	1.507567425e-07 	0 	0 	0
0.9765191179 	0 	0 	0 	1.819034462 	-0.01085489001 	1.45103561e-07 	0 	0 	0
0.977146784 	0 	0 	0 	1.80603961 	-0.01048412169 	1.392867412e-07 	0 	0 	0
0.977762894 	0 	0 	0 	1.792958063 	-0.01012105598 	1.333388874e-07 	0 	0 	0
0.9783676604 	0 	0 	0 	1.779788146 	-0.009765632468 	1.272911428e-07 	0 	0 	0
0.9789612914 	0 	0 	0 	1.766527855 	-0.009417789231 	1.211731898e-07 	0 	0 	0
0.9795439919 	0 	0 	0 	1.75317481 	-0.009077462705 	1.150132529e-07 	0 	0 	0
0.9801159626 	0 	0 	0 	1.739726228 	-0.008744587666 	1.088381003e-07 	0 	0 	0
0.9806774008 	0 	0 	0 	1.726178877 	-0.008419097206 	1.026730468e-07 	0 	0 	0
0.9812285001 	0 	0 	0 	1.712529037 	-0.008100922732 	9.654195684e-08 	0 	0 	0
0.9817694505 	0 	0 	0 	1.698772454 	-0.007789993987 	9.046724951e-08 	0 	0 	0
0.9823004386 	0 	0 	0 	1.684904291 	-0.007486239081 	8.446990574e-08 	0 	0 	0
0.9828216476 	0 	0 	0 	1.670919073 	-0.007189584545 	7.85694778e-08 	0 	0 	0
0.9833332573 	0 	0 	0 	1.656810632 	-0.006899955399 	7.278410177e-08 	0 	0 	0
0.9838354441 	0 	0 	0 	1.642572035 	-0.006617275223 	6.713051299e-08 	0 	0 	0
0.9843283814 	0 	0 	0 	1.628195519 	-0.006341466253 	6.162406488e-08 	0 	0 	0
0.9848122392 	0 	0 	0 	1.613672403 	-0.006072449474 	5.62787509e-08 	0 	0 	0
0.9852871845 	0 	0 	0 	1.598992998 	-0.005810144733 	5.11072295e-08 	0 	0 	0
0.9857533812 	0 	0 	0 	1.584146504 	-0.005554470834 	4.612085123e-08 	0 	0 	0
0.9862109903 	0 	0 	0 	1.569120891 	-0.005305345701 	4.132968297e-08 	0 	0 	0
0.9866601697 	0 	0 	0 	1.553902764 	-0.005062686485 	3.674250022e-08 	0 	0 	0
0.9871010743 	0 	0 	0 	1.538477208 	-0.004826409653 	3.236690394e-08 	0 	0 	0
0.9875338566 	0 	0 	0 	1.52282761 	-0.004596431188 	2.820932431e-08 	0 	0 	0
0.9879586658 	0 	0 	0 	1.506935452 	-0.00437266671 	2.427503907e-08 	0 	0 	0
0.9883756487 	0 	0 	0 	1.490780075 	-0.004155031614 	2.056820465e-08 	0 	0 	0
0.9887849493 	0 	0 	0 	1.474338396 	-0.003943441212 	1.709188761e-08 	0 	0 	0
0.9891867089 	0 	0 	0 	1.457584587 	-0.003737810904 	1.384809671e-08 	0 	0 	0
0.9895810663 	0 	0 	0 	1.440489687 	-0.003538056317 	1.083781661e-08 	0 	0 	0
0.9899681576 	0 	0 	0 	1.423021154 	-0.003344093507 	8.061046005e-09 	0 	0 	0
0.9903481166 	0 	0 	0 	1.405142323 	-0.00315584025 	5.51684073e-09 	0 	0 	0
0.9907210746 	0 	0 	0 	1.386811763 	-0.002973208751 	3.203358359e-09 	0 	0 	0
0.9910871604 	0 	0 	0 	1.367982499 	-0.002796115142 	1.117950305e-09 	0 	0 	0
0.9912986501 	0 	0 	0 	1.356575419 	-0.002695105285 	3.099386158e-06 	0 	0 	0
0.9914464996 	0 	0 	0 	1.348601123 	-0.002624489678 	8.458539043e-10 	0 	0 	0
0.9917992161 	0 	0 	0 	1.328606974 	-0.002457673973 	2.712114074e-09 	0 	0 	0
0.9921454333 	0 	0 	0 	1.307930673 	-0.002297316628 	4.333506108e-09 	0 	0 	0
0.9924852705 	0 	0 	0 	1.288354243 	-0.002155664326 	5.748380953e-09 	0 	0 	0
0.9927039924 	0 	0 	0 	1.271925738 	-0.002042143734 	6.493021566e-09 	0 	0 	0
0.9929227172 	0 	0 	0 	1.256882611 	-0.001943818967 	7.181622971e-09 	0 	0 	0
0.993141445 	0 	0 	0 	1.241208509 	-0.00184716507 	7.783186861e-09 	0 	0 	0
0.9933601758 	0 	0 	0 	1.224842455 	-0.001751311739 	8.294913865e-09 	0 	0 	0
0.9935789096 	0 	0 	0 	1.207714811 	-0.001656562779 	8.716601242e-09 	0 	0 	0
0.9937976463 	0 	0 	0 	1.189745749 	-0.001562941635 	9.048017148e-09 	0 	0 	0
0.9940163861 	0 	0 	0 	1.170843077 	-0.001470481975 	9.289069917e-09 	0 	0 	0
0.9942351288 	0 	0 	0 	1.15089993 	-0.001379219886 	9.439930256e-09 	0 	0 	0
0.9944538745 	0 	0 	0 	1.129791937 	-0.001289188694 	9.501055673e-09 	0 	0 	0
0.9946726231 	0 	0 	0 	1.107373799 	-0.001200422762 	9.473293032e-09 	0 	0 	0
0.9948913747 	0 	0 	0 	1.083475167 	-0.001112957941 	9.358024435e-09 	0 	0 	0
0.9951101294 	0 	0 	0 	1.057895722 	-0.001026834183 	9.157376529e-09 	0 	0 	0
0.995328887 	0 	0 	0 	1.030399373 	-0.0009421019083 	8.874520911e-09 	0 	0 	0
0.9955476475 	0 	0 	0 	1.000707568 	-0.0008588361373 	8.514110165e-09 	0 	0 	0
0.9957664111 	0 	0 	0 	0.9684918799 	-0.0007771662524 	8.082892656e-09 	0 	0 	0
0.9959851776 	0 	0 	0 	0.9333663664 	-0.0006973359284 	7.590490774e-09 	0 	0 	0
0.9962039471 	0 	0 	0 	0.8948809021 	-0.0006198178708 	7.050034905e-09 	0 	0 	0
0.9964227196 	0 	0 	0 	0.8525180481 	-0.0005455142598 	6.477152051e-09 	0 	0 	0
0.996641495 	0 	0 	0 	0.8056986877 	-0.0004759986592 	5.881316075e-09 	0 	0 	0
0.9968602735 	0 	0 	0 	0.7538066674 	-0.0004133187352 	5.237545082e-09 	0 	0 	0
0.9970790549 	0 	0 	0 	0.6962512887 	-0.0003578862065 	4.449889218e-09 	0 	0 	0
0.9972978393 	0 	0 	0 	0.6325967383 	-0.0003037377879 	3.426806045e-09 	0 	0 	0
0.9975166266 	0 	0 	0 	0.5627822321 	-0.0002383205162 	2.362123467e-09 	0 	0 	0
0.997735417 	0 	0 	0 	0.4873904669 	-0.0001583842532 	1.749244088e-09 	0 	0 	0
0.9979542103 	0 	0 	0 	0.4077724879 	-8.476728524e-05 	1.665691918e-09 	0 	0 	0
0.9981730066 	0 	0 	0 	0.3257773483 	-4.090945599e-05 	1.518111148e-09 	0 	0 	0
0.9983918059 	0 	0 	0 	0.2431435107 	-2.303444395e-05 	9.930574499e-10 	0 	0 	0
0.9986106081 	0 	0 	0 	0.1610157599 	-1.28542129e-05 	4.200589231e-10 	0 	0 	0
0.9988294134 	0 	0 	0 	0.07991518722 	-8.925782432e-06 	1.003329608e-10 	0 	0 	0
0.9990482216 	-0.001961618578 	7.413721831e-07 	-1.032058635e-11 	0.03319898281 	-8.492135166e-06 	1.400638664e-11 	59.00492037 	-0.01507876279 	1.823445731e-07
