0 	0 	0 	0 	0.9091363994 	-3.714081722e-14 	1.725793162e-20 	0 	0 	0
0.0003149815135 	0 	0 	0 	0.909139838 	-0.0001312029235 	6.065007264e-09 	0 	0 	0
0.0006299624731 	0 	0 	0 	0.9091502175 	-0.000246848818 	9.528965795e-09 	0 	0 	0
0.000944942878 	0 	0 	0 	0.909169726 	-0.0003615462753 	1.122563198e-08 	0 	0 	0
0.001259922728 	0 	0 	0 	0.909197756 	-0.000480501684 	1.128923037e-08 	0 	0 	0
0.001574902021 	0 	0 	0 	0.909233715 	-0.0005995061538 	9.558029573e-09 	0 	0 	0
0.001889880759 	0 	0 	0 	0.909277476 	-0.0007187211716 	6.031792794e-09 	0 	0 	0
0.002204858939 	0 	0 	0 	0.9093289292 	-0.0008380104873 	7.058995758e-10 	0 	0 	0
0.002239353681 	0 	0 	0 	0.9093353952 	-0.0008510812573 	2.454415921e-09 	0 	0 	0
0.002519836561 	0 	0 	0 	0.9093859848 	-0.0009573875593 	6.762287477e-09 	0 	0 	0
0.002834813626 	0 	0 	0 	0.9094502903 	-0.001076824075 	1.612874703e-08 	0 	0 	0
0.003149790132 	0 	0 	0 	0.9095219856 	-0.001196309134 	2.738616562e-08 	0 	0 	0
0.00346476608 	0 	0 	0 	0.9096009584 	-0.001315836161 	4.053470604e-08 	0 	0 	0
0.003779741468 	0 	0 	0 	0.9096870886 	-0.001435401674 	5.557428047e-08 	0 	0 	0
0.004094716297 	0 	0 	0 	0.9097802486 	-0.001555003563 	7.2504595e-08 	0 	0 	0
0.004409690567 	0 	0 	0 	0.9098803039 	-0.001674640604 	9.132517598e-08 	0 	0 	0
0.004724664277 	0 	0 	0 	0.9099871135 	-0.001794312097 	1.120353829e-07 	0 	0 	0
0.005039637428 	0 	0 	0 	0.9101005305 	-0.001914017659 	1.346344136e-07 	0 	0 	0
0.005354610019 	0 	0 	0 	0.9102204033 	-0.002033757083 	1.591213053e-07 	0 	0 	0
0.00566958205 	0 	0 	0 	0.910346576 	-0.002153530241 	1.854949311e-07 	0 	0 	0
0.005984553521 	0 	0 	0 	0.9104788895 	-0.002273337022 	2.13753997e-07 	0 	0 	0
0.006299524433 	0 	0 	0 	0.9106171823 	-0.002393177289 	2.438970353e-07 	0 	0 	0
0.006614494785 	0 	0 	0 	0.9107612916 	-0.002513050848 	2.75922399e-07 	0 	0 	0
0.006929464579 	0 	0 	0 	0.9109110539 	-0.002632957431 	3.098282545e-07 	0 	0 	0
0.007244433813 	0 	0 	0 	0.9110663063 	-0.002752896678 	3.456125749e-07 	0 	0 	0
0.007559402488 	0 	0 	0 	0.9112268873 	-0.002872868133 	3.832731326e-07 	0 	0 	0
0.007874370605 	0 	0 	0 	0.9113926376 	-0.002992871238 	4.228074912e-07 	0 	0 	0
0.008189338164 	0 	0 	0 	0.9115634011 	-0.003112905295 	4.642130082e-07 	0 	0 	0
0.008504305166 	0 	0 	0 	0.911739026 	-0.003232969434 	5.074868249e-07 	0 	0 	0
0.00881927161 	0 	0 	0 	0.9119193648 	-0.00335306297 	5.526259619e-07 	0 	0 	0
0.009134237498 	0 	0 	0 	0.9121042778 	-0.003473187031 	5.996265394e-07 	0 	0 	0
0.00944920283 	0 	0 	0 	0.9123207822 	-0.003610200138 	6.51527695e-07 	0 	0 	0
0.009938585281 	0 	0 	0 	0.9125986043 	-0.003781422804 	7.283392656e-07 	0 	0 	0
0.01043716429 	0 	0 	0 	0.9129167664 	-0.003971748889 	8.140393082e-07 	0 	0 	0
0.01094511267 	0 	0 	0 	0.9132509661 	-0.00416571194 	9.060938655e-07 	0 	0 	0
0.01146260646 	0 	0 	0 	0.9136016639 	-0.004363376432 	1.004782716e-06 	0 	0 	0
0.01198982501 	0 	0 	0 	0.9139693476 	-0.004564806521 	1.11039277e-06 	0 	0 	0
0.01252695104 	0 	0 	0 	0.9143545349 	-0.004770068692 	1.223219626e-06 	0 	0 	0
0.01307417072 	0 	0 	0 	0.9147577746 	-0.004979230215 	1.343567333e-06 	0 	0 	0
0.0136316737 	0 	0 	0 	0.9151796486 	-0.005192359014 	1.471748376e-06 	0 	0 	0
0.0141996532 	0 	0 	0 	0.9156207721 	-0.005409523653 	1.608083591e-06 	0 	0 	0
0.01477830606 	0 	0 	0 	0.9160817955 	-0.00563079335 	1.752902078e-06 	0 	0 	0
0.01536783283 	0 	0 	0 	0.9165634056 	-0.005856237958 	1.906541078e-06 	0 	0 	0
0.01596843782 	0 	0 	0 	0.9170663264 	-0.006085927942 	2.069345804e-06 	0 	0 	0
0.01658032919 	0 	0 	0 	0.9175913211 	-0.006319934372 	2.241669243e-06 	0 	0 	0
0.017203719 	0 	0 	0 	0.9181391931 	-0.00655832888 	2.423871913e-06 	0 	0 	0
0.01783882331 	0 	0 	0 	0.9187107875 	-0.006801183806 	2.616321649e-06 	0 	0 	0
0.01848586222 	0 	0 	0 	0.9193069932 	-0.007048571629 	2.819393287e-06 	0 	0 	0
0.01914505998 	0 	0 	0 	0.9199287408 	-0.007300564917 	3.033467208e-06 	0 	0 	0
0.01981664504 	0 	0 	0 	0.9205776814 	-0.007557503554 	3.259055617e-06 	0 	0 	0
0.02050358684 	0 	0 	0 	0.921256079 	-0.007819916493 	3.497344469e-06 	0 	0 	0
0.02120541643 	0 	0 	0 	0.9219649751 	-0.008087810061 	3.748864344e-06 	0 	0 	0
0.02192043461 	0 	0 	0 	0.9227044216 	-0.008360823147 	4.013569211e-06 	0 	0 	0
0.02264888918 	0 	0 	0 	0.9234751319 	-0.00863884895 	4.291869181e-06 	0 	0 	0
0.02339103259 	0 	0 	0 	0.9242783602 	-0.008921962065 	4.584277662e-06 	0 	0 	0
0.02414712205 	0 	0 	0 	0.9251154163 	-0.009210239152 	4.891324824e-06 	0 	0 	0
0.02491741957 	0 	0 	0 	0.9259876694 	-0.009503756405 	5.213556927e-06 	0 	0 	0
0.02570219212 	0 	0 	0 	0.9268965506 	-0.009802590346 	5.551537117e-06 	0 	0 	0
0.02650171165 	0 	0 	0 	0.9278435539 	-0.01010681759 	5.853390726e-06 	0 	0 	0
0.02731625524 	0 	0 	0 	0.9288302385 	-0.01041651485 	5.830328699e-06 	0 	0 	0
0.02814610517 	0 	0 	0 	0.9298582309 	-0.01073175887 	5.795256763e-06 	0 	0 	0
0.02899154901 	0 	0 	0 	0.9309292265 	-0.01105262637 	5.747602949e-06 	0 	0 	0
0.02985287976 	0 	0 	0 	0.9320449919 	-0.01137919399 	5.68677691e-06 	0 	0 	0
0.03073039588 	0 	0 	0 	0.9332073666 	-0.01171153827 	5.612169428e-06 	0 	0 	0
0.03162440149 	0 	0 	0 	0.934418265 	-0.01204973552 	5.523151902e-06 	0 	0 	0
0.03253520637 	0 	0 	0 	0.9356796788 	-0.01239386182 	5.419075825e-06 	0 	0 	0
0.03346312615 	0 	0 	0 	0.9369936782 	-0.01274399291 	5.299272239e-06 	0 	0 	0
0.03440848238 	0 	0 	0 	0.938362415 	-0.01310020413 	5.16305118e-06 	0 	0 	0
0.03537160265 	0 	0 	0 	0.9397881236 	-0.01346257034 	5.00970111e-06 	0 	0 	0
0.0363528207 	0 	0 	0 	0.9412731238 	-0.01383116592 	4.838488354e-06 	0 	0 	0
0.03735247655 	0 	0 	0 	0.9428198227 	-0.0142060642 	4.648656451e-06 	0 	0 	0
0.0383709166 	0 	0 	0 	0.9444307156 	-0.01458733795 	4.439425808e-06 	0 	0 	0
0.03940849374 	0 	0 	0 	0.9461091177 	-0.01497522744 	4.210043602e-06 	0 	0 	0
0.0404673353 	0 	0 	0 	0.947860598 	-0.01537043127 	3.959161885e-06 	0 	0 	0
0.04155102347 	0 	0 	0 	0.9496895816 	-0.01577331995 	3.684707894e-06 	0 	0 	0
0.04265507532 	0 	0 	0 	0.951596412 	-0.01618335194 	3.387464765e-06 	0 	0 	0
0.04377987343 	0 	0 	0 	0.9535820952 	-0.01660014567 	3.066406464e-06 	0 	0 	0
0.0449258076 	0 	0 	0 	0.9556497481 	-0.01702376421 	2.720606881e-06 	0 	0 	0
0.04609327493 	0 	0 	0 	0.957802589 	-0.01745427315 	2.349114022e-06 	0 	0 	0
0.04728267999 	0 	0 	0 	0.9600439452 	-0.01789173358 	1.950949055e-06 	0 	0 	0
0.04849443492 	0 	0 	0 	0.9623772547 	-0.01833620508 	1.525106275e-06 	0 	0 	0
0.04972895965 	0 	0 	0 	0.9648060688 	-0.01878774471 	1.070552745e-06 	0 	0 	0
0.05098668197 	0 	0 	0 	0.9673340543 	-0.01924640691 	5.862280698e-07 	0 	0 	0
0.05226803769 	0 	0 	0 	0.9699649958 	-0.01971224313 	7.104424606e-08 	0 	0 	0
0.0524408778 	0 	0 	0 	0.9703273925 	-0.01977484401 	1.840828151e-07 	0 	0 	0
0.05357347084 	0 	0 	0 	0.9726960176 	-0.02018579106 	4.975067715e-07 	0 	0 	0
0.05490343377 	0 	0 	0 	0.9755368189 	-0.02066671302 	1.103823641e-06 	0 	0 	0
0.05625838734 	0 	0 	0 	0.9784925904 	-0.02115497766 	1.745970767e-06 	0 	0 	0
0.05763880103 	0 	0 	0 	0.9815676112 	-0.02165062169 	2.425204634e-06 	0 	0 	0
0.0590451532 	0 	0 	0 	0.9847670388 	-0.02215379763 	3.142828071e-06 	0 	0 	0
0.06047923248 	0 	0 	0 	0.9881003862 	-0.02266529488 	3.900988578e-06 	0 	0 	0
0.06194729128 	0 	0 	0 	0.9915762256 	-0.02318564444 	4.704129203e-06 	0 	0 	0
0.06344293635 	0 	0 	0 	0.9956689575 	-0.0237819738 	5.565893177e-06 	0 	0 	0
0.06573896916 	0 	0 	0 	1.000904105 	-0.02452172874 	6.901268211e-06 	0 	0 	0
0.06806060918 	0 	0 	0 	1.006847284 	-0.02533145489 	8.33096295e-06 	0 	0 	0
0.07040814198 	0 	0 	0 	1.013039792 	-0.0261440846 	9.839739387e-06 	0 	0 	0
0.07278185635 	0 	0 	0 	1.019488043 	-0.02695927875 	1.142806818e-05 	0 	0 	0
0.07518204426 	0 	0 	0 	1.02619855 	-0.02777670913 	1.309637693e-05 	0 	0 	0
0.07760900095 	0 	0 	0 	1.033177961 	-0.02859602053 	1.484500318e-05 	0 	0 	0
0.08006302497 	0 	0 	0 	1.040441813 	-0.02941778423 	1.667480339e-05 	0 	0 	0
0.082556096 	0 	0 	0 	1.048008155 	-0.03024267202 	1.643371623e-05 	0 	0 	0
0.08507824313 	0 	0 	0 	1.055877275 	-0.03106931907 	1.534161839e-05 	0 	0 	0
0.0876285222 	0 	0 	0 	1.064047276 	-0.03189620545 	1.416780187e-05 	0 	0 	0
0.09020724701 	0 	0 	0 	1.072524881 	-0.03272271238 	1.291188546e-05 	0 	0 	0
0.09281473484 	0 	0 	0 	1.081317993 	-0.03354830925 	1.157364307e-05 	0 	0 	0
0.09545130652 	0 	0 	0 	1.090434775 	-0.03437242195 	1.015294306e-05 	0 	0 	0
0.09811728644 	0 	0 	0 	1.099885647 	-0.03519460942 	8.649804163e-06 	0 	0 	0
0.1008152168 	0 	0 	0 	1.109691368 	-0.03601516375 	7.062884928e-06 	0 	0 	0
0.103553885 	0 	0 	0 	1.119870557 	-0.03683401202 	5.386952676e-06 	0 	0 	0
0.1063231033 	0 	0 	0 	1.130421642 	-0.03764936333 	3.630341704e-06 	0 	0 	0
0.1091232126 	0 	0 	0 	1.141345281 	-0.03845963747 	1.793629893e-06 	0 	0 	0
0.1117772003 	0 	0 	0 	1.151943432 	-0.03921353557 	6.357954594e-07 	0 	0 	0
0.1119545574 	0 	0 	0 	1.15265124 	-0.03926409828 	1.278273531e-07 	0 	0 	0
0.1148174863 	0 	0 	0 	1.164339918 	-0.04006368562 	2.213011971e-06 	0 	0 	0
0.1177123515 	0 	0 	0 	1.176436067 	-0.04085563748 	4.378436998e-06 	0 	0 	0
0.1206406417 	0 	0 	0 	1.188965874 	-0.04163973484 	6.623271884e-06 	0 	0 	0
0.1236130938 	0 	0 	0 	1.201956213 	-0.0424155724 	8.952801075e-06 	0 	0 	0
0.1266187072 	0 	0 	0 	1.215408649 	-0.04318106351 	1.135442767e-05 	0 	0 	0
0.129657852 	0 	0 	0 	1.229327309 	-0.04393426576 	1.382533422e-05 	0 	0 	0
0.1327309021 	0 	0 	0 	1.243729876 	-0.04467383541 	1.636302276e-05 	0 	0 	0
0.1358382359 	0 	0 	0 	1.258636192 	-0.04539825445 	1.896559694e-05 	0 	0 	0
0.1389802358 	0 	0 	0 	1.274077229 	-0.04610590616 	2.163138442e-05 	0 	0 	0
0.142164066 	0 	0 	0 	1.290092866 	-0.04679242481 	2.435247952e-05 	0 	0 	0
0.1453889171 	0 	0 	0 	1.30669859 	-0.04746153899 	2.717506358e-05 	0 	0 	0
0.1486497488 	0 	0 	0 	1.323869399 	-0.04811941798 	2.652801685e-05 	0 	0 	0
0.1519469623 	0 	0 	0 	1.341563463 	-0.04875154634 	2.427384257e-05 	0 	0 	0
0.1552809637 	0 	0 	0 	1.359746175 	-0.04935245809 	2.197417732e-05 	0 	0 	0
0.1586521634 	0 	0 	0 	1.378409906 	-0.04993217923 	1.963497659e-05 	0 	0 	0
0.1620666826 	0 	0 	0 	1.397573831 	-0.05048954878 	1.721007399e-05 	0 	0 	0
0.1655254185 	0 	0 	0 	1.417245193 	-0.05101981954 	1.472238365e-05 	0 	0 	0
0.1690227477 	0 	0 	0 	1.43741132 	-0.05152035895 	1.21819335e-05 	0 	0 	0
0.1725591007 	0 	0 	0 	1.458066076 	-0.05198900133 	9.593634782e-06 	0 	0 	0
0.176134913 	0 	0 	0 	1.479210274 	-0.05242372656 	6.962634786e-06 	0 	0 	0
0.1797506249 	0 	0 	0 	1.500856717 	-0.05282271736 	4.29440299e-06 	0 	0 	0
0.1834159144 	0 	0 	0 	1.523022481 	-0.05318417403 	1.588184999e-06 	0 	0 	0
0.1855775696 	0 	0 	0 	1.536234607 	-0.05337156085 	1.458135553e-05 	0 	0 	0
0.1871241627 	0 	0 	0 	1.545689233 	-0.05350695709 	1.194207101e-06 	0 	0 	0
0.1908737915 	0 	0 	0 	1.568833166 	-0.05378931031 	4.066340724e-06 	0 	0 	0
0.1946652624 	0 	0 	0 	1.592446307 	-0.05402765081 	6.949171853e-06 	0 	0 	0
0.1984990423 	0 	0 	0 	1.616523737 	-0.0542202844 	9.836355394e-06 	0 	0 	0
0.2023809986 	0 	0 	0 	1.641066409 	-0.05436567938 	1.272548007e-05 	0 	0 	0
0.2063115746 	0 	0 	0 	1.666053074 	-0.05446233683 	1.5607175e-05 	0 	0 	0
0.2102860148 	0 	0 	0 	1.69143901 	-0.05450901272 	1.84709656e-05 	0 	0 	0
0.2143048088 	0 	0 	0 	1.717182279 	-0.05450495775 	2.131178963e-05 	0 	0 	0
0.2183684513 	0 	0 	0 	1.743248984 	-0.05444988922 	2.412549223e-05 	0 	0 	0
0.222482493 	0 	0 	0 	1.769606291 	-0.05434396293 	2.691210638e-05 	0 	0 	0
0.2266474496 	0 	0 	0 	1.796195085 	-0.05418796566 	2.966624942e-05 	0 	0 	0
0.2308588887 	0 	0 	0 	1.822929072 	-0.05398355868 	3.238348124e-05 	0 	0 	0
0.2351173289 	0 	0 	0 	1.849720679 	-0.05373325267 	3.012067925e-05 	0 	0 	0
0.2394232946 	0 	0 	0 	1.876489791 	-0.05344028823 	2.730044382e-05 	0 	0 	0
0.2437845959 	0 	0 	0 	1.903151344 	-0.05310872658 	2.450537627e-05 	0 	0 	0
0.2481966718 	0 	0 	0 	1.92958591 	-0.05274382531 	2.174508886e-05 	0 	0 	0
0.2526579903 	0 	0 	0 	1.955664344 	-0.0523517694 	1.902177422e-05 	0 	0 	0
0.2571691008 	0 	0 	0 	1.98127108 	-0.05193912351 	1.633404413e-05 	0 	0 	0
0.2617331246 	0 	0 	0 	2.006305675 	-0.0515125118 	1.367732303e-05 	0 	0 	0
0.26635421 	0 	0 	0 	2.030669931 	-0.05107865792 	1.104909631e-05 	0 	0 	0
0.2710268727 	0 	0 	0 	2.054262984 	-0.05064408296 	8.448827538e-06 	0 	0 	0
0.275751688 	0 	0 	0 	2.077013178 	-0.05021297405 	5.864613602e-06 	0 	0 	0
0.2805295301 	0 	0 	0 	2.098881272 	-0.04977932474 	3.308041995e-06 	0 	0 	0
0.2853683997 	0 	0 	0 	2.119832275 	-0.04937027783 	7.741697389e-07 	0 	0 	0
0.2868773396 	0 	0 	0 	2.125989364 	-0.04925554897 	1.71853309e-05 	0 	0 	0
0.2902612789 	0 	0 	0 	2.139794693 	-0.04900002537 	1.81319519e-06 	0 	0 	0
0.2952087702 	0 	0 	0 	2.158712441 	-0.04862965432 	4.392966113e-06 	0 	0 	0
0.3002114829 	0 	0 	0 	2.176645893 	-0.04826993687 	6.950608707e-06 	0 	0 	0
0.3052771644 	0 	0 	0 	2.19373489 	-0.04793380305 	9.454957398e-06 	0 	0 	0
0.3103995606 	0 	0 	0 	2.210086444 	-0.04760491525 	1.18999732e-05 	0 	0 	0
0.3155791317 	0 	0 	0 	2.225778806 	-0.0472786467 	1.428012527e-05 	0 	0 	0
0.3208171581 	0 	0 	0 	2.240874356 	-0.04695184739 	1.659360361e-05 	0 	0 	0
0.3261196355 	0 	0 	0 	2.2554209 	-0.04662248928 	1.883729671e-05 	0 	0 	0
0.3314812991 	0 	0 	0 	2.26944678 	-0.04628919595 	2.100439437e-05 	0 	0 	0
0.3369028091 	0 	0 	0 	2.282977616 	-0.04595078131 	2.309443686e-05 	0 	0 	0
0.3423871157 	0 	0 	0 	2.296039708 	-0.04560620633 	2.510804819e-05 	0 	0 	0
0.3479363296 	0 	0 	0 	2.308652045 	-0.04525478423 	2.704149042e-05 	0 	0 	0
0.353547484 	0 	0 	0 	2.320825431 	-0.04489614566 	2.889303718e-05 	0 	0 	0
0.3592212697 	0 	0 	0 	2.332572405 	-0.04452995037 	3.066412924e-05 	0 	0 	0
0.3649627704 	0 	0 	0 	2.343906268 	-0.04415593742 	2.849659864e-05 	0 	0 	0
0.3707693221 	0 	0 	0 	2.354833108 	-0.04377413072 	2.62308882e-05 	0 	0 	0
0.3766406865 	0 	0 	0 	2.365358686 	-0.0433845755 	2.403518565e-05 	0 	0 	0
0.3825794668 	0 	0 	0 	2.37549145 	-0.04298722976 	2.190853589e-05 	0 	0 	0
0.3885874109 	0 	0 	0 	2.385237823 	-0.04258214498 	1.985478884e-05 	0 	0 	0
0.3946624158 	0 	0 	0 	2.394601145 	-0.04216941452 	1.78749478e-05 	0 	0 	0
0.4008056514 	0 	0 	0 	2.403586878 	-0.04174892938 	1.596727973e-05 	0 	0 	0
0.4070212332 	0 	0 	0 	2.412200672 	-0.04132044236 	1.41330526e-05 	0 	0 	0
0.4133061932 	0 	0 	0 	2.420443414 	-0.0408836755 	1.237409934e-05 	0 	0 	0
0.4196613049 	0 	0 	0 	2.428316228 	-0.04043799835 	1.06877269e-05 	0 	0 	0
0.4260907495 	0 	0 	0 	2.435819529 	-0.03998244152 	9.07283242e-06 	0 	0 	0
0.4325922399 	0 	0 	0 	2.442948265 	-0.03951590826 	7.530577184e-06 	0 	0 	0
0.4391662984 	0 	0 	0 	2.44969563 	-0.03903696167 	6.056900006e-06 	0 	0 	0
0.4458164753 	0 	0 	0 	2.456053369 	-0.03854393355 	4.649338117e-06 	0 	0 	0
0.4525413397 	0 	0 	0 	2.462009384 	-0.03803526448 	3.308426059e-06 	0 	0 	0
0.4593412644 	0 	0 	0 	2.467551295 	-0.03750945681 	2.030267926e-06 	0 	0 	0
0.4662195511 	0 	0 	0 	2.47266813 	-0.03696524484 	8.13526273e-07 	0 	0 	0
0.4711052801 	0 	0 	0 	2.475956557 	-0.03656960865 	1.461208794e-05 	0 	0 	0
0.4731749089 	0 	0 	0 	2.477349983 	-0.03640221215 	3.53234092e-07 	0 	0 	0
0.4802079543 	0 	0 	0 	2.481591781 	-0.03582042146 	1.487908338e-06 	0 	0 	0
0.4873218078 	0 	0 	0 	2.485394691 	-0.0352193029 	2.558635746e-06 	0 	0 	0
0.4945150619 	0 	0 	0 	2.488757305 	-0.03460104285 	3.56415996e-06 	0 	0 	0
0.5017088022 	0 	0 	0 	2.491669971 	-0.03397223605 	4.496811422e-06 	0 	0 	0
0.5088246559 	0 	0 	0 	2.494140214 	-0.03333991235 	5.347760944e-06 	0 	0 	0
0.5158619961 	0 	0 	0 	2.496200518 	-0.03270724226 	6.122294021e-06 	0 	0 	0
0.5228223256 	0 	0 	0 	2.497887553 	-0.0320757006 	6.82701936e-06 	0 	0 	0
0.5297067628 	0 	0 	0 	2.499234417 	-0.03144660125 	7.464467957e-06 	0 	0 	0
0.5365152378 	0 	0 	0 	2.500270684 	-0.03082110373 	8.040124356e-06 	0 	0 	0
0.5432491873 	0 	0 	0 	2.501022783 	-0.03020015211 	8.559649583e-06 	0 	0 	0
0.5499094439 	0 	0 	0 	2.501514113 	-0.02958457203 	9.025249562e-06 	0 	0 	0
0.5564962101 	0 	0 	0 	2.501765338 	-0.02897502842 	9.441905237e-06 	0 	0 	0
0.5630107473 	0 	0 	0 	2.501794726 	-0.02837206182 	9.81434995e-06 	0 	0 	0
0.5694538871 	0 	0 	0 	2.501618367 	-0.02777613087 	1.01443612e-05 	0 	0 	0
0.5758259307 	0 	0 	0 	2.501250393 	-0.02718756682 	1.043601823e-05 	0 	0 	0
0.5821279228 	0 	0 	0 	2.500703189 	-0.02660661927 	1.069331291e-05 	0 	0 	0
0.5883608326 	0 	0 	0 	2.499987638 	-0.02603348267 	1.091761733e-05 	0 	0 	0
0.5945249646 	0 	0 	0 	2.49911337 	-0.02546830358 	1.111188422e-05 	0 	0 	0
0.6006211498 	0 	0 	0 	2.498088858 	-0.02491115459 	1.127946119e-05 	0 	0 	0
0.606650536 	0 	0 	0 	2.496921552 	-0.02436207376 	1.142160461e-05 	0 	0 	0
0.6126133893 	0 	0 	0 	2.495618079 	-0.02382108888 	1.154005173e-05 	0 	0 	0
0.6185104433 	0 	0 	0 	2.494184262 	-0.0232881745 	1.163741708e-05 	0 	0 	0
0.624342742 	0 	0 	0 	2.49262518 	-0.02276327894 	1.171528657e-05 	0 	0 	0
0.6301107689 	0 	0 	0 	2.490945315 	-0.02224635427 	1.177413393e-05 	0 	0 	0
0.6358151458 	0 	0 	0 	2.489148575 	-0.02173731996 	1.18158473e-05 	0 	0 	0
0.641456666 	0 	0 	0 	2.48723828 	-0.02123607156 	1.184202618e-05 	0 	0 	0
0.647036138 	0 	0 	0 	2.485217234 	-0.0207425036 	1.18526647e-05 	0 	0 	0
0.65255404 	0 	0 	0 	2.4830878 	-0.02025649942 	1.184854863e-05 	0 	0 	0
0.6580110512 	0 	0 	0 	2.480851845 	-0.01977791141 	1.183072043e-05 	0 	0 	0
0.6634079914 	0 	0 	0 	2.478510745 	-0.01930657522 	1.179955966e-05 	0 	0 	0
0.6687454422 	0 	0 	0 	2.476065467 	-0.01884231348 	1.175443936e-05 	0 	0 	0
0.6740239929 	0 	0 	0 	2.473516583 	-0.01838490958 	1.169568123e-05 	0 	0 	0
0.6792442933 	0 	0 	0 	2.47086426 	-0.01793409506 	1.162359959e-05 	0 	0 	0
0.6844071263 	0 	0 	0 	2.468108331 	-0.01748955381 	1.153819772e-05 	0 	0 	0
0.6895129981 	0 	0 	0 	2.465248493 	-0.01705091253 	1.143910863e-05 	0 	0 	0
0.6945625248 	0 	0 	0 	2.46228451 	-0.01661772891 	1.13262584e-05 	0 	0 	0
0.699556328 	0 	0 	0 	2.459216496 	-0.01618954124 	1.119852514e-05 	0 	0 	0
0.7044951269 	0 	0 	0 	2.456045474 	-0.01576594071 	1.10518765e-05 	0 	0 	0
0.7093794255 	0 	0 	0 	2.452774363 	-0.01534666569 	1.08775513e-05 	0 	0 	0
0.7142098239 	0 	0 	0 	2.449408364 	-0.01493184782 	1.065841912e-05 	0 	0 	0
0.7189869164 	0 	0 	0 	2.445955468 	-0.01451905514 	1.044993624e-05 	0 	0 	0
0.7237113542 	0 	0 	0 	2.442425245 	-0.01410447549 	1.024285013e-05 	0 	0 	0
0.7283836644 	0 	0 	0 	2.438809473 	-0.01368357773 	1.000942119e-05 	0 	0 	0
0.7330044134 	0 	0 	0 	2.435043491 	-0.01323867742 	1.006812606e-05 	0 	0 	0
0.7375741699 	0 	0 	0 	2.431026627 	-0.01274300974 	1.044673133e-05 	0 	0 	0
0.7420935234 	0 	0 	0 	2.426715048 	-0.01218945597 	1.047245508e-05 	0 	0 	0
0.7465630238 	0 	0 	0 	2.422177467 	-0.01160497455 	9.567842489e-06 	0 	0 	0
0.7509832008 	0 	0 	0 	2.417560311 	-0.01103590879 	7.719457838e-06 	0 	0 	0
0.7553545986 	0 	0 	0 	2.412999664 	-0.01052182798 	5.45045461e-06 	0 	0 	0
0.7596777566 	0 	0 	0 	2.40855111 	-0.01007684445 	3.460311762e-06 	0 	0 	0
0.7639532349 	0 	0 	0 	2.40418103 	-0.009689191251 	2.154906628e-06 	0 	0 	0
0.7681815307 	0 	0 	0 	2.399805888 	-0.00933495994 	1.572655683e-06 	0 	0 	0
0.7723631646 	0 	0 	0 	2.395339425 	-0.008992247219 	1.53535278e-06 	0 	0 	0
0.7764986516 	0 	0 	0 	2.390722672 	-0.008648718793 	1.811675815e-06 	0 	0 	0
0.7805885059 	0 	0 	0 	2.385934438 	-0.008302804901 	2.213890969e-06 	0 	0 	0
0.7846332395 	0 	0 	0 	2.380986425 	-0.007960841837 	2.636842315e-06 	0 	0 	0
0.7886333369 	0 	0 	0 	2.375907683 	-0.007632275919 	3.058710249e-06 	0 	0 	0
0.7925892905 	0 	0 	0 	2.370726136 	-0.007325234322 	3.506100965e-06 	0 	0 	0
0.7965015875 	0 	0 	0 	2.365455237 	-0.007044058946 	4.011946317e-06 	0 	0 	0
0.8003707124 	0 	0 	0 	2.360090306 	-0.006789173563 	4.590013811e-06 	0 	0 	0
0.8041971471 	0 	0 	0 	2.354612453 	-0.006558359997 	5.230603618e-06 	0 	0 	0
0.8079813545 	0 	0 	0 	2.34899545 	-0.006348196373 	5.911148906e-06 	0 	0 	0
0.8117238006 	0 	0 	0 	2.343212321 	-0.006154984888 	6.608489294e-06 	0 	0 	0
0.8154249462 	0 	0 	0 	2.337239939 	-0.005975138711 	7.305968548e-06 	0 	0 	0
0.819085247 	0 	0 	0 	2.331061852 	-0.005805337078 	7.993264931e-06 	0 	0 	0
0.8227051594 	0 	0 	0 	2.324670013 	-0.005642729365 	8.660266568e-06 	0 	0 	0
0.8262851241 	0 	0 	0 	2.318065663 	-0.005485292473 	9.292482345e-06 	0 	0 	0
0.8298255813 	0 	0 	0 	2.311258581 	-0.00533214838 	9.870091923e-06 	0 	0 	0
0.8333269671 	0 	0 	0 	2.304263759 	-0.005183549072 	1.037026966e-05 	0 	0 	0
0.8367897125 	0 	0 	0 	2.297095613 	-0.005040384765 	1.077441648e-05 	0 	0 	0
0.8402142449 	0 	0 	0 	2.289761439 	-0.004903317239 	1.107582099e-05 	0 	0 	0
0.8436009875 	0 	0 	0 	2.282256809 	-0.004771877336 	1.128064964e-05 	0 	0 	0
0.8469503549 	0 	0 	0 	2.274564678 	-0.004644271467 	1.141027128e-05 	0 	0 	0
0.8502627596 	0 	0 	0 	2.266658243 	-0.004517103319 	1.146421129e-05 	0 	0 	0
0.8535386095 	0 	0 	0 	2.258505478 	-0.004386482887 	1.142934429e-05 	0 	0 	0
0.856778308 	0 	0 	0 	2.250068608 	-0.004249127947 	1.129084217e-05 	0 	0 	0
0.8599822544 	0 	0 	0 	2.24130084 	-0.004101435223 	1.097169466e-05 	0 	0 	0
0.8631508441 	0 	0 	0 	2.232148914 	-0.003941134275 	1.039176739e-05 	0 	0 	0
0.8662844661 	0 	0 	0 	2.222560572 	-0.003767828672 	9.55833985e-06 	0 	0 	0
0.8693835062 	0 	0 	0 	2.212490575 	-0.00358084058 	8.596436772e-06 	0 	0 	0
0.8724483462 	0 	0 	0 	2.201901082 	-0.003376722725 	7.733475311e-06 	0 	0 	0
0.8754793633 	0 	0 	0 	2.190763785 	-0.003147379892 	7.212280117e-06 	0 	0 	0
0.878476931 	0 	0 	0 	2.179069483 	-0.002881037119 	7.206177243e-06 	0 	0 	0
0.8814414187 	0 	0 	0 	2.166846685 	-0.002566888114 	7.738986178e-06 	0 	0 	0
0.8843731913 	0 	0 	0 	2.15418547 	-0.002203261859 	8.598425525e-06 	0 	0 	0
0.8872726095 	0 	0 	0 	2.141252659 	-0.001805382351 	9.335039319e-06 	0 	0 	0
0.8901400306 	0 	0 	0 	2.128274072 	-0.001405993417 	9.456741589e-06 	0 	0 	0
0.8929758075 	0 	0 	0 	2.115458894 	-0.001042989562 	8.775431376e-06 	0 	0 	0
0.8957802895 	0 	0 	0 	2.102893855 	-0.0007421676228 	7.516683269e-06 	0 	0 	0
0.8985538219 	0 	0 	0 	2.090494622 	-0.0005042775231 	6.235571048e-06 	0 	0 	0
0.9012967465 	0 	0 	0 	2.078074042 	-0.0003068888465 	5.423117966e-06 	0 	0 	0
0.9040094009 	0 	0 	0 	2.065468984 	-0.0001278279631 	4.978701758e-06 	0 	0 	0
0.9066921191 	0 	0 	0 	2.052602458 	4.063924883e-05 	4.623480724e-06 	0 	0 	0
0.9093452315 	0 	0 	0 	2.039455542 	0.0002012674157 	4.343546742e-06 	0 	0 	0
0.9119690649 	0 	0 	0 	2.026025745 	0.0003566343641 	4.116567753e-06 	0 	0 	0
0.9145639422 	0 	0 	0 	2.01230442 	0.0005055448687 	3.889846387e-06 	0 	0 	0
0.9171301831 	0 	0 	0 	1.998257901 	0.000649548115 	3.691658609e-06 	0 	0 	0
0.9196681037 	0 	0 	0 	1.983832097 	0.0007951398416 	3.555641675e-06 	0 	0 	0
0.9221780164 	0 	0 	0 	1.968986889 	0.0009454990739 	3.473456939e-06 	0 	0 	0
0.9246602303 	0 	0 	0 	1.953726192 	0.00110089093 	3.408847199e-06 	0 	0 	0
0.9271150512 	0 	0 	0 	1.938109763 	0.001259265234 	3.324433058e-06 	0 	0 	0
0.9295427812 	0 	0 	0 	1.92224723 	0.001414994668 	3.213705742e-06 	0 	0 	0
0.9319437194 	0 	0 	0 	1.907610788 	0.001550399562 	3.058456562e-06 	0 	0 	0
0.933507694 	0 	0 	0 	1.895769108 	0.001647631524 	2.903294506e-06 	0 	0 	0
0.935042816 	0 	0 	0 	1.885381423 	0.001722614084 	2.808372651e-06 	0 	0 	0
0.9365496177 	0 	0 	0 	1.875082021 	0.001795449699 	2.718622038e-06 	0 	0 	0
0.9380286214 	0 	0 	0 	1.86484756 	0.001862947049 	2.611376308e-06 	0 	0 	0
0.9394803402 	0 	0 	0 	1.854671626 	0.001922496467 	2.510498168e-06 	0 	0 	0
0.9409052772 	0 	0 	0 	1.844550375 	0.001976689548 	2.414195169e-06 	0 	0 	0
0.9423039265 	0 	0 	0 	1.834481116 	0.002025492124 	2.319096291e-06 	0 	0 	0
0.9436767733 	0 	0 	0 	1.824462474 	0.002069032833 	2.22607769e-06 	0 	0 	0
0.9450242933 	0 	0 	0 	1.81449343 	0.002107467404 	2.135372537e-06 	0 	0 	0
0.946346954 	0 	0 	0 	1.804573086 	0.00214093744 	2.04714154e-06 	0 	0 	0
0.9476452138 	0 	0 	0 	1.794700543 	0.002169595348 	1.96146067e-06 	0 	0 	0
0.948919523 	0 	0 	0 	1.784874838 	0.002193594206 	1.878347337e-06 	0 	0 	0
0.9501703234 	0 	0 	0 	1.775094893 	0.002213087057 	1.797793992e-06 	0 	0 	0
0.9513980487 	0 	0 	0 	1.765359477 	0.002228227423 	1.719789457e-06 	0 	0 	0
0.9526031246 	0 	0 	0 	1.755667167 	0.002239172499 	1.644403449e-06 	0 	0 	0
0.9537859689 	0 	0 	0 	1.746016322 	0.002246085371 	1.571681117e-06 	0 	0 	0
0.9549469918 	0 	0 	0 	1.736405045 	0.00224911386 	1.501041131e-06 	0 	0 	0
0.9560865958 	0 	0 	0 	1.726831219 	0.002248409419 	1.432869442e-06 	0 	0 	0
0.9572051761 	0 	0 	0 	1.71729264 	0.002244140288 	1.367339756e-06 	0 	0 	0
0.9583031205 	0 	0 	0 	1.707787038 	0.002236451329 	1.30355279e-06 	0 	0 	0
0.9593808097 	0 	0 	0 	1.69831191 	0.00222548025 	1.241772149e-06 	0 	0 	0
0.9604386175 	0 	0 	0 	1.688864447 	0.002211377225 	1.182140069e-06 	0 	0 	0
0.9614769105 	0 	0 	0 	1.679441577 	0.002194291722 	1.124481008e-06 	0 	0 	0
0.9624960488 	0 	0 	0 	1.670039989 	0.002174372689 	1.068844263e-06 	0 	0 	0
0.9634963857 	0 	0 	0 	1.660656135 	0.00215176911 	1.015178801e-06 	0 	0 	0
0.9644782682 	0 	0 	0 	1.651286219 	0.0021266279 	9.634468307e-07 	0 	0 	0
0.9654420366 	0 	0 	0 	1.641926191 	0.002099094022 	9.136132168e-07 	0 	0 	0
0.9663880252 	0 	0 	0 	1.632571741 	0.002069310272 	8.656419982e-07 	0 	0 	0
0.9673165619 	0 	0 	0 	1.623218281 	0.002037417041 	8.194967278e-07 	0 	0 	0
0.9682279687 	0 	0 	0 	1.613860934 	0.002003552115 	7.751401157e-07 	0 	0 	0
0.9691225617 	0 	0 	0 	1.604494515 	0.00196785048 	7.325340867e-07 	0 	0 	0
0.9700006509 	0 	0 	0 	1.595113516 	0.001930444177 	6.916398877e-07 	0 	0 	0
0.9708625409 	0 	0 	0 	1.585712076 	0.001891462173 	6.524182022e-07 	0 	0 	0
0.9717085305 	0 	0 	0 	1.576283962 	0.00185103026 	6.148292755e-07 	0 	0 	0
0.9725389131 	0 	0 	0 	1.566822535 	0.00180927099 	5.788330398e-07 	0 	0 	0
0.9733539766 	0 	0 	0 	1.557320715 	0.001766303618 	5.443892293e-07 	0 	0 	0
0.9741540035 	0 	0 	0 	1.547770946 	0.001722244079 	5.114574786e-07 	0 	0 	0
0.9749392713 	0 	0 	0 	1.538165144 	0.001677204982 	4.799974085e-07 	0 	0 	0
0.9757100523 	0 	0 	0 	1.528494654 	0.001631295619 	4.499686989e-07 	0 	0 	0
0.9764666137 	0 	0 	0 	1.518750186 	0.001584622002 	4.213311436e-07 	0 	0 	0
0.9772092179 	0 	0 	0 	1.508921749 	0.001537286905 	3.940446882e-07 	0 	0 	0
0.9779381223 	0 	0 	0 	1.498998576 	0.001489389932 	3.680694617e-07 	0 	0 	0
0.9786535797 	0 	0 	0 	1.488969034 	0.001441027594 	3.433658075e-07 	0 	0 	0
0.9793558381 	0 	0 	0 	1.478820528 	0.001392293394 	3.198943228e-07 	0 	0 	0
0.9800451411 	0 	0 	0 	1.468539382 	0.001343277952 	2.976158923e-07 	0 	0 	0
0.9807217276 	0 	0 	0 	1.458110708 	0.001294069109 	2.764918329e-07 	0 	0 	0
0.9813858323 	0 	0 	0 	1.447518253 	0.001244752053 	2.564840369e-07 	0 	0 	0
0.9820376853 	0 	0 	0 	1.436744224 	0.001195409465 	2.375551982e-07 	0 	0 	0
0.9826775129 	0 	0 	0 	1.425769079 	0.00114612165 	2.196691341e-07 	0 	0 	0
0.9833055367 	0 	0 	0 	1.414571289 	0.001096966683 	2.02791217e-07 	0 	0 	0
0.9839219745 	0 	0 	0 	1.403127059 	0.001048020525 	1.868889141e-07 	0 	0 	0
0.9845270401 	0 	0 	0 	1.391409997 	0.000999357122 	1.719324003e-07 	0 	0 	0
0.9851209434 	0 	0 	0 	1.379390726 	0.0009510484689 	1.578952115e-07 	0 	0 	0
0.9857038901 	0 	0 	0 	1.367036419 	0.0009031633255 	1.447547237e-07 	0 	0 	0
0.9862760825 	0 	0 	0 	1.354310246 	0.0008557721594 	1.324914814e-07 	0 	0 	0
0.9868377189 	0 	0 	0 	1.341170699 	0.0008089433266 	1.210842266e-07 	0 	0 	0
0.9873889941 	0 	0 	0 	1.327570707 	0.0007627141968 	1.104908581e-07 	0 	0 	0
0.9879300992 	0 	0 	0 	1.313456965 	0.0007176437719 	1.006311866e-07 	0 	0 	0
0.9884612219 	0 	0 	0 	1.298768703 	0.000672468986 	9.146782491e-08 	0 	0 	0
0.9889825462 	0 	0 	0 	1.284771032 	0.0006314878071 	8.410067523e-08 	0 	0 	0
0.9893180687 	0 	0 	0 	1.272955066 	0.0005999322438 	7.87334641e-08 	0 	0 	0
0.9896535912 	0 	0 	0 	1.262077479 	0.0005719426057 	7.389849853e-08 	0 	0 	0
0.9899891138 	0 	0 	0 	1.250684592 	0.0005435571655 	6.924222998e-08 	0 	0 	0
0.9903246363 	0 	0 	0 	1.238724345 	0.0005155306206 	6.493202056e-08 	0 	0 	0
0.9906601588 	0 	0 	0 	1.22613716 	0.0004876478553 	6.087198571e-08 	0 	0 	0
0.9909956813 	0 	0 	0 	1.212854413 	0.0004599552324 	5.703558214e-08 	0 	0 	0
0.9913312038 	0 	0 	0 	1.198796366 	0.0004324912449 	5.341670484e-08 	0 	0 	0
0.9916667263 	0 	0 	0 	1.183869899 	0.0004052976504 	4.999514264e-08 	0 	0 	0
0.9920022488 	0 	0 	0 	1.167965623 	0.0003784231515 	4.675801512e-08 	0 	0 	0
0.9923377713 	0 	0 	0 	1.150954274 	0.0003519214845 	4.368742782e-08 	0 	0 	0
0.9926732938 	0 	0 	0 	1.132682147 	0.0003258542532 	4.076125533e-08 	0 	0 	0
0.9930088164 	0 	0 	0 	1.112965324 	0.0003002939126 	3.795252501e-08 	0 	0 	0
0.9933443389 	0 	0 	0 	1.091582316 	0.0002753277834 	3.52291291e-08 	0 	0 	0
0.9936798614 	0 	0 	0 	1.068264685 	0.0002510628458 	3.255456352e-08 	0 	0 	0
0.9940153839 	0 	0 	0 	1.042685101 	0.0002276295322 	2.989015654e-08 	0 	0 	0
0.9943509064 	0 	0 	0 	1.01444221 	0.0002051785562 	2.719926355e-08 	0 	0 	0
0.9946864289 	0 	0 	0 	0.9830417294 	0.0001838535367 	2.445373152e-08 	0 	0 	0
0.9950219514 	0 	0 	0 	0.9478734609 	0.0001636932567 	2.164291578e-08 	0 	0 	0
0.9953574739 	0 	0 	0 	0.9081848539 	0.0001443394995 	1.878590945e-08 	0 	0 	0
0.9956929965 	0 	0 	0 	0.8630543005 	0.0001241990272 	1.595034866e-08 	0 	0 	0
0.996028519 	0 	0 	0 	0.8113735079 	9.850029845e-05 	1.324125086e-08 	0 	0 	0
0.9963640415 	0 	0 	0 	0.7518639383 	5.838412818e-05 	1.069737769e-08 	0 	0 	0
0.996699564 	0 	0 	0 	0.6831922021 	3.284963394e-06 	7.875933793e-09 	0 	0 	0
0.9970350865 	0 	0 	0 	0.6043208548 	-2.992790517e-05 	4.245374821e-09 	0 	0 	0
0.997370609 	0 	0 	0 	0.515223487 	6.997184439e-06 	1.361254603e-09 	0 	0 	0
0.9977061315 	0 	0 	0 	0.4176437744 	7.355686709e-05 	1.245509061e-09 	0 	0 	0
0.998041654 	0 	0 	0 	0.3148360777 	8.006549972e-05 	1.977469328e-09 	0 	0 	0
0.9983771766 	0 	0 	0 	0.2099707833 	3.54098975e-05 	1.215696354e-09 	0 	0 	0
0.9987126991 	0 	0 	0 	0.1048357878 	5.012311097e-06 	2.054665211e-10 	0 	0 	0