/*--------------------------------*- C++ -*----------------------------------*\
  =========                 |
  \\      /  F ield         | OpenFOAM: The Open Source CFD Toolbox
   \\    /   O peration     | Website:  https://openfoam.org
    \\  /    A nd           | Version:  7
     \\/     M anipulation  |
\*---------------------------------------------------------------------------*/
FoamFile
{
    version     2.0;
    format      ascii;
    class       volScalarField;
    location    "2000";
    object      p;
}
// * * * * * * * * * * * * * * * * * * * * * * * * * * * * * * * * * * * * * //

dimensions      [0 2 -2 0 0 0 0];

internalField   nonuniform List<scalar> 
15296
(
0.29452403
0.29240557
0.29155672
0.29085673
0.29005848
0.289258
0.28850124
0.28777916
0.28708941
0.28643376
0.28581045
0.28521591
0.28464683
0.28410005
0.28357406
0.28306608
0.28258315
0.28212179
0.28170333
0.28139282
0.28049092
0.27934992
0.27910261
0.27909438
0.27919014
0.27949402
0.2799286
0.28061477
0.28183032
0.28396236
0.287418
0.29300286
0.30180898
0.31598978
0.33987126
0.3806422
0.45530899
0.61186283
0.29450258
0.29240412
0.29155492
0.29085561
0.29005812
0.28925793
0.28850126
0.28777922
0.28708946
0.28643376
0.28581039
0.28521581
0.28464669
0.28409989
0.28357387
0.28306582
0.28258281
0.28212095
0.28170248
0.28139521
0.28049607
0.27935058
0.27909849
0.27909025
0.27918523
0.27948753
0.2799199
0.28060049
0.28180136
0.28391782
0.28736403
0.29291847
0.30167062
0.31575321
0.33939229
0.37980288
0.45375317
0.60769968
0.29449535
0.2924058
0.29155583
0.29085692
0.29005977
0.28925983
0.28850337
0.28778154
0.28709197
0.28643642
0.2858132
0.28521876
0.28464976
0.28410308
0.28357718
0.28306921
0.28258626
0.2821244
0.28170555
0.28140025
0.28050473
0.27935691
0.27910009
0.27909027
0.27918336
0.27948336
0.27991303
0.28058837
0.28177739
0.28388472
0.28731028
0.29282894
0.30152198
0.31549879
0.33890286
0.37897803
0.45210677
0.60300077
0.29448787
0.29240751
0.29155653
0.29085811
0.29006132
0.28926162
0.28850537
0.28778373
0.28709433
0.28643894
0.28581585
0.28522153
0.28465266
0.28410609
0.28358028
0.2830724
0.28258949
0.28212759
0.28170839
0.2814052
0.28051326
0.27936288
0.2791013
0.2790901
0.27918127
0.27947887
0.27990575
0.28057557
0.28175138
0.28384586
0.28725706
0.29274033
0.30137486
0.31524617
0.33841294
0.37815385
0.45049283
0.59835571
0.29448046
0.29240951
0.29155712
0.29085928
0.29006287
0.28926339
0.28850735
0.2877859
0.28709667
0.28644142
0.28581847
0.28522426
0.28465551
0.28410905
0.28358335
0.28307553
0.28259266
0.28213073
0.2817112
0.28141014
0.28052177
0.27936874
0.27910236
0.27908996
0.27917919
0.27947441
0.27989851
0.28056281
0.28172528
0.28380098
0.2872044
0.29265289
0.30122914
0.31499506
0.33793418
0.37733383
0.44889504
0.59388522
0.29447061
0.29241263
0.29155773
0.29086075
0.29006485
0.28926566
0.28850986
0.28778867
0.28709965
0.28644458
0.28582179
0.28522774
0.28465913
0.2841128
0.28358723
0.28307951
0.28259669
0.28213467
0.28171477
0.2814165
0.2805327
0.27937621
0.27910351
0.27908979
0.27917665
0.27946893
0.27988957
0.28054703
0.28169376
0.28374035
0.28713492
0.29254043
0.30104208
0.31467287
0.33733786
0.37625146
0.44682867
0.5883993
0.29445914
0.29241706
0.29155845
0.29086269
0.29006743
0.28926858
0.2885131
0.28779222
0.28710348
0.28644864
0.28582605
0.2852322
0.28466377
0.28411762
0.28359221
0.2830846
0.28260185
0.28213973
0.28171937
0.2814247
0.28054672
0.27938569
0.27910486
0.27908962
0.27917373
0.27946262
0.27987892
0.28052816
0.28165735
0.28366819
0.28704191
0.29239564
0.3008037
0.31426548
0.33660574
0.37483393
0.44419905
0.58154861
0.29444688
0.29242271
0.29155918
0.29086495
0.29007042
0.28927192
0.28851679
0.28779626
0.28710782
0.28645324
0.28583089
0.28523726
0.28466904
0.28412309
0.28359786
0.28309038
0.2826077
0.28214545
0.2817246
0.28143407
0.28056268
0.27939633
0.27910621
0.27908921
0.27917071
0.27945632
0.27986764
0.280508
0.28161944
0.28359484
0.2869327
0.29222913
0.30053343
0.31380816
0.33579987
0.37330987
0.44128263
0.57399391
0.29443344
0.29242988
0.29155986
0.29086757
0.29007386
0.28927571
0.28852096
0.28780084
0.28711273
0.28645844
0.28583635
0.28524297
0.28467499
0.28412926
0.28360424
0.2830969
0.28261429
0.28215187
0.28173051
0.28144472
0.2805808
0.27940829
0.27910746
0.27908802
0.27916737
0.27945019
0.27985562
0.28048623
0.28157909
0.28351971
0.28680983
0.29203925
0.30022852
0.31329582
0.33490851
0.37171
0.4381138
0.56577826
0.29441948
0.29243884
0.29156046
0.29087059
0.29007784
0.28928003
0.2885257
0.28780602
0.28711829
0.28646432
0.28584254
0.28524943
0.28468172
0.28413624
0.28361145
0.28310427
0.28262174
0.28215911
0.28173725
0.28145688
0.2806016
0.27942193
0.27910866
0.27908545
0.27916314
0.27944391
0.27984242
0.28046208
0.28153475
0.28343973
0.286675
0.29182475
0.29988409
0.31271913
0.33391571
0.36987778
0.43464691
0.55678704
0.2944049
0.29245
0.291561
0.29087411
0.29008249
0.28928501
0.28853113
0.28781196
0.28712465
0.28647105
0.2858496
0.28525682
0.28468941
0.28414421
0.28361968
0.28311268
0.28263024
0.28216732
0.28174495
0.28147081
0.28062581
0.27943786
0.27911015
0.27908155
0.27915727
0.2794367
0.27982723
0.28043444
0.2814847
0.2833516
0.28652712
0.29158521
0.29949652
0.31207089
0.33280705
0.36771594
0.43080524
0.54708695
0.29438851
0.29246365
0.29156142
0.29087819
0.2900879
0.2892907
0.28853731
0.2878187
0.28713187
0.28647867
0.2858576
0.28526518
0.28469811
0.28415323
0.28362899
0.28312218
0.28263984
0.28217653
0.28175368
0.2814865
0.28065388
0.27945667
0.27911234
0.27907767
0.27914944
0.27942728
0.27980919
0.28040263
0.28142834
0.28325386
0.28636465
0.2913216
0.29906836
0.31135329
0.33158961
0.3653691
0.42659521
0.53675955
0.29437113
0.2924802
0.29156168
0.29088286
0.29009416
0.28929718
0.2885443
0.28782632
0.28714001
0.28648726
0.28586662
0.2852746
0.28470791
0.28416339
0.28363947
0.28313287
0.28265064
0.28218683
0.28176355
0.28150395
0.28068634
0.27947888
0.27911559
0.27907582
0.27913989
0.27942045
0.27978862
0.28036689
0.28136582
0.28314595
0.28618538
0.29103214
0.29859863
0.31056596
0.33024909
0.36287714
0.42202252
0.52573077
0.29435246
0.29250026
0.29156175
0.29088818
0.29010145
0.28930461
0.28855227
0.287835
0.28714927
0.28649703
0.28587687
0.28528531
0.28471905
0.28417493
0.28365137
0.28314501
0.28266291
0.2821984
0.28177488
0.28152346
0.28072384
0.27950395
0.2791205
0.27907748
0.27912888
0.27940414
0.27976644
0.2803279
0.28129664
0.28302573
0.28598547
0.29071067
0.29807723
0.30969378
0.32874073
0.3601462
0.41700032
0.5139138
0.29432924
0.29252477
0.29156176
0.29089417
0.29011003
0.2893132
0.28856142
0.28784493
0.28715986
0.28650819
0.28588858
0.28529754
0.28473177
0.28418811
0.28366495
0.28315886
0.28267688
0.28221143
0.28178799
0.28154561
0.28076676
0.2795285
0.27913031
0.27908235
0.2791181
0.27936495
0.27974237
0.28028534
0.28121975
0.28289072
0.28576232
0.29035244
0.29749675
0.30872279
0.32707715
0.35712451
0.41149012
0.50131783
0.29429745
0.29255908
0.29156223
0.29090193
0.29012183
0.28932488
0.28857373
0.2878583
0.2871741
0.28652318
0.2859043
0.28531397
0.28474886
0.28420582
0.28368318
0.28317745
0.28269561
0.28222856
0.28180584
0.28157386
0.28082335
0.27955145
0.27915782
0.27909005
0.27910712
0.27934224
0.27971064
0.28022932
0.28111794
0.28271215
0.28546876
0.28988205
0.29673647
0.30745467
0.3249345
0.35321589
0.40439407
0.48565325
0.29426879
0.29259742
0.29156465
0.29091153
0.29013665
0.28933948
0.28858897
0.28787482
0.28719169
0.2865417
0.28592373
0.28533428
0.28476999
0.28422772
0.28370574
0.28320046
0.28271874
0.28224945
0.28182713
0.28159871
0.28089078
0.27959954
0.27920967
0.27909449
0.27909537
0.2793211
0.27967279
0.28016237
0.28099529
0.28249676
0.2851145
0.28931636
0.29582612
0.30594459
0.32239316
0.34862049
0.39611012
0.46813056
0.29424288
0.29263536
0.29156952
0.29092164
0.29015273
0.2893553
0.28860532
0.28789251
0.28721052
0.28656153
0.28594455
0.28535606
0.28479268
0.28425124
0.28372995
0.28322521
0.28274341
0.28227187
0.28185026
0.28158274
0.28096272
0.27975541
0.27927917
0.27909758
0.27907788
0.27929272
0.27962943
0.28009058
0.28086594
0.28227022
0.28474386
0.28872806
0.29488397
0.30438938
0.31979379
0.34397359
0.38775693
0.4512804
0.29421725
0.29267396
0.29157705
0.29093223
0.29017001
0.28937233
0.28862268
0.28791124
0.28723049
0.28658258
0.28596667
0.28537924
0.28481684
0.28427632
0.28375576
0.28325172
0.28276934
0.28229673
0.28187272
0.28151959
0.28111419
0.27995875
0.27931157
0.27911478
0.27906194
0.27926657
0.2795876
0.28001726
0.28073087
0.28203231
0.28435689
0.2881182
0.29391239
0.30279512
0.31714679
0.33930415
0.37938468
0.43517209
0.29419194
0.29271363
0.29158738
0.29094335
0.29018839
0.28939048
0.28864092
0.28793089
0.28725147
0.28660473
0.28599
0.28540373
0.28484241
0.28430291
0.28378312
0.28328004
0.28279623
0.28232588
0.28188858
0.28146358
0.28122779
0.28017605
0.27937017
0.27913658
0.27903752
0.2792365
0.2795446
0.27994347
0.28059244
0.28178483
0.28395487
0.28748863
0.2929143
0.30116778
0.31446137
0.33464096
0.3710365
0.41983886
0.29416673
0.29275435
0.29160074
0.29095512
0.29020782
0.28940974
0.28865998
0.28795136
0.28727337
0.28662789
0.28601445
0.28542948
0.28486937
0.28433099
0.28381204
0.28331012
0.28282453
0.28235776
0.28190838
0.28143543
0.2811674
0.28037445
0.27956785
0.27915629
0.27900746
0.27920027
0.27949211
0.27986158
0.28044545
0.28152391
0.28353487
0.28683756
0.29188803
0.29950645
0.3117361
0.3299921
0.36272604
0.40525384
0.2941416
0.29279592
0.29161727
0.29096762
0.2902281
0.28942994
0.28867964
0.28797238
0.28729594
0.28665182
0.28603981
0.28545626
0.28489749
0.28436037
0.28384237
0.28334163
0.28285522
0.28238839
0.28194063
0.28141683
0.2810798
0.28059169
0.27976785
0.27912666
0.27897492
0.27918426
0.27945242
0.27978372
0.28029466
0.28125004
0.2830963
0.28616576
0.29083582
0.29781697
0.30898095
0.32538324
0.35450348
0.39143535
0.29411789
0.29283823
0.29163698
0.29098084
0.29024893
0.28945079
0.28869956
0.28799358
0.28731877
0.28667614
0.28606567
0.28548371
0.28492643
0.28439069
0.28387382
0.28337409
0.28288833
0.28241817
0.281976
0.28145384
0.28103471
0.2809281
0.28011283
0.27907453
0.27886399
0.2791345
0.27940842
0.27970969
0.28014396
0.28096622
0.2826418
0.28547779
0.28976418
0.29611025
0.30621281
0.32084605
0.34643216
0.37838689
0.29409693
0.29288174
0.29166008
0.29099485
0.29026998
0.28947191
0.28871933
0.28801448
0.28734141
0.28670037
0.2860916
0.28551139
0.28495577
0.28442156
0.28390601
0.2834072
0.28292279
0.28245026
0.28200511
0.28152011
0.28100705
0.28096648
0.28066977
0.27932301
0.2788004
0.27905125
0.27934103
0.27962555
0.27998472
0.2806661
0.28216729
0.2847731
0.28867459
0.2943916
0.30344348
0.31640323
0.33857877
0.36607885
0.29407658
0.29292589
0.29168636
0.29100953
0.29029079
0.28949276
0.2887384
0.28803449
0.28736325
0.28672395
0.28611703
0.28553877
0.284985
0.28445248
0.28393844
0.28344067
0.28295737
0.28248543
0.28203131
0.28157932
0.28102701
0.28079388
0.28081636
0.27977967
0.27894845
0.27902481
0.27929797
0.27955885
0.27982991
0.28035369
0.2816757
0.28405838
0.28757565
0.29267175
0.30068811
0.31207116
0.33100269
0.35452928
0.2940592
0.29297179
0.29171597
0.29102482
0.29031081
0.28951265
0.28875602
0.28805284
0.28738352
0.28674612
0.28614124
0.28556512
0.28501341
0.28448277
0.28397041
0.28347395
0.28299152
0.28252121
0.28206192
0.28161673
0.28112072
0.28071241
0.28055799
0.28006986
0.27924667
0.27897943
0.279236
0.27950308
0.27967993
0.28001916
0.28115363
0.28332221
0.28645547
0.29094067
0.29794341
0.30784465
0.32371863
0.34376004
0.29404394
0.29301891
0.29174835
0.2910403
0.29032929
0.28953062
0.28877122
0.28806851
0.28740121
0.28676589
0.28616325
0.28558953
0.28504011
0.28451157
0.28400105
0.28350614
0.28302472
0.28255553
0.28209628
0.28164595
0.28119504
0.28072063
0.28041491
0.28039751
0.27966687
0.27894068
0.27911535
0.27943291
0.27954445
0.27967341
0.28061436
0.2825888
0.28533371
0.28921054
0.29522232
0.30372803
0.31674592
0.3337105
0.29403448
0.29306895
0.29178362
0.29105576
0.29034553
0.28954559
0.28878289
0.2880804
0.28741523
0.28678221
0.28618209
0.28561103
0.28506417
0.28453797
0.28402952
0.28353632
0.28305622
0.28258783
0.28212985
0.28167882
0.28123713
0.28080807
0.28037003
0.28036929
0.28016808
0.27924156
0.27907091
0.27934948
0.27938735
0.27929605
0.28001494
0.28183993
0.28421802
0.2875026
0.29256352
0.29976237
0.31014669
0.32432702
0.29403209
0.293123
0.29182159
0.2910708
0.29035868
0.28955634
0.28878972
0.28808726
0.28742435
0.28679391
0.28619662
0.28562855
0.28508456
0.28456097
0.28405482
0.28356353
0.28308498
0.28261756
0.28216044
0.28171206
0.28126808
0.28086571
0.28040966
0.28013754
0.28032017
0.27979022
0.27925231
0.27936948
0.27931538
0.27898117
0.27942098
0.28105117
0.28307229
0.2857753
0.28993013
0.29591683
0.3039492
0.31549079
0.29403926
0.29318288
0.29186217
0.29108492
0.29036779
0.28956136
0.28879018
0.28808766
0.28742721
0.28679969
0.28620563
0.28564094
0.28510017
0.2845795
0.28407592
0.28358677
0.28310991
0.28264376
0.28218734
0.28174051
0.2813014
0.28088251
0.28049192
0.28011658
0.28005252
0.28011021
0.27974306
0.27943959
0.2791716
0.27891375
0.27915414
0.28036187
0.28199661
0.28414803
0.28743291
0.29225435
0.2982304
0.30732231
0.29406215
0.29325096
0.29190507
0.2910975
0.29037177
0.28955897
0.28878263
0.28808017
0.28742249
0.28679834
0.28620801
0.28564717
0.28511002
0.28459263
0.28409192
0.28360516
0.28313015
0.2826654
0.28220982
0.28176369
0.28132722
0.280904
0.28051435
0.28017745
0.27988509
0.27991227
0.2797582
0.2792832
0.27905413
0.27922557
0.27921455
0.27971157
0.28077995
0.28242371
0.28502075
0.28878615
0.29294939
0.29997167
0.29411191
0.29333036
0.29195005
0.29110825
0.29036948
0.28954712
0.28876516
0.28806323
0.28740877
0.28678859
0.28620267
0.28564623
0.28511319
0.28459948
0.28410198
0.28361788
0.28314494
0.28268164
0.28222703
0.28178115
0.28134507
0.28092217
0.28052046
0.28017465
0.27984175
0.27955491
0.27930112
0.27901579
0.27886523
0.27921941
0.27939623
0.2795551
0.27986463
0.28058398
0.28248785
0.28542549
0.28807238
0.29328829
0.29420201
0.29342217
0.29199452
0.29111676
0.29036038
0.28952454
0.28873699
0.28803651
0.28738576
0.28677016
0.28618929
0.28563776
0.2851092
0.28459953
0.28410551
0.28362427
0.28315353
0.28269177
0.28223802
0.28179228
0.28135529
0.28093058
0.28052222
0.2801496
0.27979888
0.2794775
0.27913426
0.27874207
0.27852627
0.27870334
0.2791971
0.27937884
0.2795505
0.27962008
0.28020581
0.28222786
0.28378928
0.28753252
0.29433418
0.2935249
0.29203387
0.29112135
0.29034424
0.28949159
0.28869953
0.28800191
0.2873554
0.2867449
0.28616955
0.28562316
0.28509924
0.28459372
0.28410327
0.28362494
0.28315643
0.28269618
0.28224322
0.28179741
0.28135921
0.28093136
0.2805165
0.28012523
0.2797524
0.27939609
0.2790296
0.27864049
0.27835405
0.27824222
0.2784895
0.27850585
0.27877724
0.27938242
0.27896853
0.27953634
0.2800862
0.28284543
0.29449897
0.29363606
0.29206515
0.29112168
0.2903221
0.28945033
0.28865551
0.28796219
0.28732042
0.28671549
0.28614595
0.28560479
0.28508551
0.28458413
0.28409723
0.28362177
0.28315545
0.28269668
0.28224444
0.28179847
0.28135897
0.28092782
0.28050672
0.28010181
0.27970945
0.27932752
0.2789411
0.27854108
0.27820747
0.2779878
0.27795684
0.27778613
0.27762791
0.27832716
0.27834187
0.2779504
0.27726729
0.27898294
0.29469589
0.29374925
0.29208223
0.29111523
0.29029251
0.28940073
0.28860602
0.28791879
0.28728248
0.28668372
0.2861203
0.28558442
0.2850698
0.28457254
0.28408915
0.28361652
0.28315235
0.28269502
0.28224348
0.28179733
0.28135654
0.28092229
0.28049551
0.28007959
0.27967161
0.27926841
0.27886151
0.27844547
0.27807119
0.27776587
0.27756208
0.27729838
0.27686296
0.27694743
0.276992
0.27690219
0.2752322
0.27572865
0.2949446
0.29386397
0.29208699
0.29110625
0.29025773
0.28934507
0.28855345
0.28787374
0.28724351
0.28665142
0.28609428
0.28556363
0.28505359
0.2845604
0.28408043
0.28361056
0.28314847
0.28269253
0.28224167
0.28179536
0.28135338
0.28091633
0.28048452
0.28005956
0.27963875
0.27921852
0.27879306
0.27835807
0.27794511
0.2775711
0.2772445
0.27686507
0.27635122
0.27594659
0.27544542
0.27535009
0.27327917
0.27341497
0.29525415
0.29396167
0.29207075
0.29109345
0.29021734
0.28928459
0.28849967
0.28782873
0.28720512
0.28662009
0.28606922
0.28554365
0.28503805
0.28454878
0.28407212
0.28360489
0.28314479
0.28269018
0.28223997
0.28179353
0.28135048
0.28091097
0.28047479
0.28004235
0.27961092
0.27917661
0.27873458
0.27828065
0.27783371
0.27740134
0.2769821
0.27649646
0.27590041
0.27522653
0.27442946
0.27390685
0.2714368
0.27157438
0.29567352
0.29405915
0.29204442
0.29108366
0.29017434
0.28922209
0.28844687
0.2877853
0.28716863
0.28659086
0.28604605
0.28552529
0.28502391
0.28453838
0.28406487
0.28360016
0.28314193
0.28268857
0.28223898
0.28179246
0.28134848
0.28090683
0.28046692
0.28002826
0.279588
0.27914198
0.27868549
0.27821392
0.27773716
0.27725671
0.27676174
0.27619424
0.27549396
0.27470714
0.27366284
0.27287256
0.27006079
0.26981105
0.2961353
0.29412843
0.2920014
0.29107463
0.29012736
0.28915817
0.28839578
0.28774402
0.28713467
0.28656425
0.28602521
0.28550896
0.28501159
0.2845296
0.28405907
0.28359674
0.28314028
0.2826881
0.2822391
0.28179253
0.28134776
0.28090431
0.28046123
0.28001742
0.27956981
0.279114
0.27864503
0.27815763
0.2776552
0.27713476
0.27657858
0.27594235
0.2751525
0.27426745
0.2730308
0.27200847
0.26899497
0.26847526
0.296646
0.29416909
0.29194626
0.29106769
0.29007625
0.2890937
0.28834685
0.28770511
0.28710349
0.28654045
0.28600687
0.28549484
0.28500124
0.28452262
0.28405493
0.28359485
0.28314005
0.28268897
0.28224053
0.28179396
0.28134854
0.28090356
0.28045783
0.28000975
0.27955604
0.27909206
0.27861244
0.27811116
0.27758682
0.2770332
0.27642718
0.27573351
0.27486834
0.27389719
0.27250724
0.27130644
0.26814291
0.26740267
0.297203
0.29416282
0.29187605
0.29106053
0.29001955
0.28902888
0.28829997
0.28766847
0.28707511
0.28651945
0.28599102
0.28548296
0.28499294
0.28451754
0.28405255
0.28359459
0.28314135
0.28269129
0.28224337
0.28179682
0.28135087
0.28090463
0.28045668
0.28000507
0.27954631
0.27907551
0.27858684
0.27807359
0.27753073
0.27694958
0.27630287
0.27556139
0.27463339
0.2735884
0.27207764
0.27073462
0.26743901
0.26652818
0.29782111
0.29409967
0.29179448
0.29105345
0.28995742
0.28896455
0.28825525
0.28763417
0.28704961
0.28650127
0.28597768
0.28547335
0.28498674
0.28451439
0.28405196
0.28359599
0.28314418
0.28269505
0.2822476
0.28180108
0.28135469
0.28090738
0.28045758
0.28000303
0.27954004
0.27906353
0.27856722
0.27804373
0.27748529
0.27688136
0.27620136
0.27542037
0.27443996
0.27333369
0.27172519
0.27027147
0.26685941
0.265823
0.29850729
0.29396699
0.29170499
0.29104582
0.2898903
0.28890175
0.28821296
0.28760248
0.28702722
0.28648605
0.28596697
0.28546614
0.28498274
0.28451327
0.28405322
0.28359906
0.28314852
0.28270018
0.28225311
0.2818066
0.28135979
0.28091156
0.28046016
0.28000311
0.27953656
0.27905523
0.27855244
0.27802025
0.27744873
0.27682598
0.27611873
0.27530526
0.27428136
0.27312498
0.27143662
0.26989796
0.26638416
0.26525759
0.29926797
0.29375567
0.2916133
0.29103729
0.28981941
0.28884166
0.28817347
0.2875738
0.28700825
0.28647399
0.28595906
0.28546143
0.28498097
0.28451413
0.28405622
0.28360364
0.28315415
0.28270642
0.28225959
0.28181299
0.28136574
0.28091662
0.28046378
0.28000455
0.27953493
0.27904949
0.27854118
0.27800159
0.27741914
0.27678089
0.27605137
0.2752114
0.2741516
0.27295485
0.27120104
0.2695984
0.26599593
0.26480856
0.30010327
0.29345709
0.29152504
0.29102689
0.28974638
0.2887856
0.28813743
0.28754883
0.28699326
0.28646548
0.28595423
0.2854594
0.28498151
0.28451695
0.28406085
0.28360954
0.28316083
0.28271346
0.28226668
0.28181983
0.28137205
0.28092204
0.28046784
0.28000665
0.27953435
0.27904538
0.27853237
0.27798654
0.27739499
0.27674405
0.27599641
0.27513502
0.27404587
0.27281711
0.27100977
0.26936029
0.26568028
0.26445813
0.30101169
0.29306481
0.29144628
0.29101309
0.28967291
0.28873451
0.28810525
0.28752804
0.28698248
0.28646058
0.28595237
0.28545978
0.28498396
0.28452121
0.28406649
0.28361604
0.28316774
0.28272043
0.28227342
0.28182614
0.28137771
0.28092679
0.28047132
0.28000839
0.27953377
0.27904178
0.27852481
0.27797378
0.27737475
0.27671353
0.27595131
0.27507288
0.27396
0.27270644
0.27085555
0.26917332
0.26542528
0.26419231
0.30199088
0.29257318
0.29138396
0.29099531
0.28960227
0.28869052
0.28807843
0.28751271
0.28697672
0.28645971
0.28595369
0.28546262
0.28498821
0.2845267
0.28407283
0.28362278
0.2831745
0.28272695
0.28227956
0.28183178
0.28138273
0.280931
0.28047444
0.28001004
0.27953347
0.27903897
0.27851873
0.27796345
0.27735838
0.276689
0.27591525
0.27502355
0.27389182
0.27261966
0.27073357
0.26903031
0.26522181
0.26400132
0.30304301
0.29197828
0.29134411
0.29097215
0.28953626
0.28865407
0.28805686
0.28750226
0.28697486
0.28646148
0.2859566
0.28546617
0.28499242
0.28453147
0.28407786
0.28362775
0.2831792
0.28273131
0.28228356
0.28183543
0.28138596
0.28093363
0.28047622
0.28001063
0.27953246
0.27903592
0.27851306
0.2779544
0.27734461
0.27666895
0.27588631
0.27498466
0.27383829
0.27255294
0.27063849
0.26892455
0.26506019
0.2638784
0.30400697
0.29138408
0.291334
0.29095069
0.28948642
0.28862924
0.28804164
0.28749536
0.28697414
0.28646292
0.28595833
0.28546786
0.28499412
0.28453322
0.28407958
0.28362942
0.28318086
0.282733
0.28228531
0.28183715
0.2813875
0.2809348
0.28047677
0.2800103
0.27953098
0.27903301
0.27850837
0.27794749
0.27733461
0.27665495
0.27586657
0.2749588
0.27380273
0.27251024
0.27057543
0.26886129
0.26494788
0.26382529
0.30478528
0.29088262
0.29133609
0.29093437
0.28945347
0.28861303
0.28803108
0.28749087
0.28697411
0.28646433
0.28595977
0.285469
0.28499506
0.28453412
0.28408062
0.28363074
0.28318257
0.28273511
0.28228771
0.28183967
0.28138993
0.28093693
0.28047844
0.28001134
0.27953126
0.27903238
0.27850663
0.27794438
0.27732962
0.27664752
0.27585565
0.27494419
0.27378223
0.27248553
0.27053834
0.2688247
0.2648809
0.2638004
0.30551552
0.29040003
0.29134566
0.29092141
0.28942705
0.28859799
0.28802023
0.28748599
0.28697378
0.28646571
0.28596133
0.2854703
0.28499616
0.28453529
0.28408216
0.28363287
0.28318538
0.2827385
0.28229146
0.28184352
0.28139365
0.28094035
0.28048142
0.2800138
0.27953313
0.27903357
0.27850704
0.27794383
0.27732775
0.27664394
0.2758496
0.27493556
0.27376946
0.27246987
0.27051395
0.26880108
0.2648354
0.26379015
0.30619338
0.28994354
0.29136072
0.29090961
0.28940226
0.28858097
0.28800797
0.28748083
0.28697384
0.28646783
0.28596371
0.28547233
0.28499796
0.28453724
0.28408461
0.28363605
0.28318928
0.28274292
0.28229612
0.28184817
0.28139808
0.28094444
0.28048512
0.2800171
0.27953599
0.27903598
0.27850893
0.27794509
0.27732814
0.27664318
0.27584716
0.2749314
0.27376249
0.27246107
0.27049909
0.26878741
0.26480582
0.26379165
0.30682295
0.28952131
0.29137794
0.2908948
0.28937583
0.28856218
0.28799633
0.28747764
0.28697614
0.28647203
0.28596785
0.28547585
0.28500106
0.2845404
0.28408824
0.28364031
0.28319412
0.28274811
0.28230139
0.28185331
0.28140296
0.28094902
0.2804894
0.28002109
0.27953973
0.27903946
0.27851212
0.27794793
0.27733046
0.2766448
0.27584773
0.27493092
0.27376023
0.27245778
0.27049185
0.26878159
0.26478882
0.26380204
0.30739809
0.28913676
0.29139031
0.2908733
0.28934862
0.28854538
0.28798872
0.28747849
0.28698159
0.28647848
0.28597351
0.28548037
0.28500484
0.28454403
0.28409215
0.28364466
0.28319883
0.28275299
0.28230624
0.28185798
0.28140742
0.28095326
0.28049347
0.28002503
0.27954357
0.27904322
0.2785158
0.27795149
0.27733379
0.27664778
0.27585016
0.27493281
0.27376115
0.27245828
0.27049006
0.26878129
0.26478121
0.26381819
0.30791751
0.28878965
0.29139196
0.29084934
0.28932812
0.28853653
0.28798821
0.28748429
0.28698995
0.28648638
0.28597972
0.28548491
0.28500832
0.28454714
0.28409533
0.28364809
0.28320248
0.28275672
0.28230993
0.28186157
0.2814109
0.28095667
0.28049686
0.28002845
0.27954706
0.27904681
0.27851947
0.27795524
0.27733755
0.27665148
0.27585368
0.2749362
0.27376421
0.27246138
0.27049217
0.26878489
0.26478065
0.26383786
0.30837134
0.28847406
0.29138575
0.29083539
0.28932154
0.28853736
0.2879932
0.28749201
0.28699775
0.28649233
0.28598326
0.28548644
0.2850086
0.28454691
0.2840951
0.28364806
0.28320266
0.28275703
0.28231028
0.28186194
0.2814113
0.28095715
0.28049747
0.28002924
0.27954805
0.27904802
0.2785209
0.27795688
0.27733938
0.27665346
0.27585578
0.27493848
0.27376662
0.27246417
0.27049495
0.26878911
0.26478314
0.26385708
0.30877758
0.28821142
0.29139735
0.29084593
0.28933119
0.28854603
0.2880008
0.28749889
0.28700287
0.28649487
0.28598326
0.28548452
0.2850056
0.28454359
0.28409191
0.28364519
0.28320011
0.28275472
0.28230816
0.28185998
0.28140952
0.28095558
0.28049615
0.2800282
0.27954731
0.27904759
0.27852079
0.27795708
0.27733988
0.27665427
0.27585691
0.27494001
0.27376861
0.27246681
0.27049825
0.26879383
0.26478794
0.26387521
0.30912076
0.28804472
0.29143196
0.29085998
0.28933187
0.28853854
0.28798895
0.28748511
0.28698728
0.28647717
0.28596359
0.2854635
0.28498401
0.28452206
0.28407076
0.2836245
0.2831798
0.28273469
0.28228832
0.28184033
0.28139007
0.28093637
0.28047721
0.28000954
0.27952893
0.2790295
0.27850299
0.27793959
0.2773227
0.27663744
0.27584048
0.27492408
0.27375331
0.2724523
0.27048477
0.26878177
0.26477711
0.26387414
0.30930846
0.28795748
0.29146813
0.29084772
0.28929615
0.28849116
0.2879369
0.28743224
0.28693417
0.28642334
0.28590882
0.28540807
0.28492842
0.28446668
0.28401571
0.28356974
0.28312523
0.28268021
0.28223392
0.28178599
0.28133583
0.28088224
0.28042319
0.27995566
0.27947519
0.27897589
0.27844953
0.27788629
0.2772696
0.27658458
0.27578792
0.27487194
0.27370172
0.27240146
0.27043485
0.26873322
0.26472995
0.26383137
0.30935696
0.28776113
0.29144291
0.29079383
0.28922499
0.28841321
0.28785776
0.28735453
0.286858
0.28634788
0.28583344
0.28533256
0.28485287
0.28439119
0.28394028
0.28349429
0.28304968
0.28260452
0.28215806
0.28170997
0.28125966
0.28080592
0.28034675
0.27987908
0.27939848
0.27889905
0.27837257
0.27780922
0.27719245
0.27650737
0.2757107
0.27479478
0.27362469
0.27232466
0.27035844
0.2686573
0.26465505
0.26375547
0.30937715
0.287455
0.29134413
0.2907121
0.28914426
0.28833459
0.28778198
0.28728176
0.28678771
0.28627923
0.28576562
0.28526507
0.28478548
0.2843238
0.28387283
0.28342668
0.28298184
0.28253641
0.28208965
0.28164125
0.28119061
0.28073655
0.28027704
0.27980905
0.27932812
0.27882837
0.27830156
0.27773789
0.27712079
0.27643539
0.2756384
0.27472217
0.27355177
0.27225145
0.27028489
0.26858347
0.26458104
0.26367751
0.30950897
0.28726879
0.2912715
0.29066374
0.28910589
0.28830169
0.28775228
0.28725412
0.28676151
0.28625406
0.28574113
0.28524096
0.28476154
0.28429993
0.28384896
0.28340275
0.28295782
0.28251227
0.28206537
0.28161681
0.28116601
0.28071178
0.2802521
0.27978393
0.27930283
0.2788029
0.27827592
0.27771206
0.27709478
0.2764092
0.27561202
0.2746956
0.27352499
0.27222444
0.27025764
0.26855591
0.26455327
0.26364637
0.30971884
0.28721763
0.29125686
0.29065497
0.28910111
0.28829943
0.28775143
0.28725396
0.28676168
0.28625447
0.28574174
0.28524175
0.28476246
0.28430094
0.28385003
0.28340385
0.28295893
0.28251339
0.2820665
0.28161795
0.28116714
0.28071291
0.28025323
0.27978506
0.27930396
0.27880403
0.27827704
0.27771319
0.27709591
0.27641034
0.27561318
0.27469678
0.27352621
0.27222572
0.27025897
0.26855733
0.26455478
0.2636464
0.96361275
0.33734313
0.23882824
0.20979753
0.17177856
0.14589619
0.12534047
0.10593939
0.08738675
0.069450941
0.051806665
0.034373689
0.017219427
0.00042398546
-0.015947647
-0.031758883
-0.046836296
-0.061059358
-0.074316025
-0.086481861
-0.097420522
-0.10698685
-0.11500204
-0.12123015
-0.12532478
-0.12634254
0.96216904
0.34289779
0.2399066
0.2101013
0.17207607
0.14611287
0.12551845
0.10609971
0.087533141
0.069586211
0.051932591
0.034490426
0.017326529
0.0005214606
-0.015860118
-0.031681772
-0.046769758
-0.061003165
-0.074269758
-0.086444967
-0.097392279
-0.10696636
-0.11498822
-0.12122167
-0.12532011
-0.12633924
0.96084523
0.3498527
0.24202223
0.21069491
0.17246576
0.14636994
0.12571398
0.10626508
0.087678098
0.069716491
0.052051552
0.034599347
0.017426596
0.00061138371
-0.015779734
-0.031611023
-0.046708582
-0.060951247
-0.074226646
-0.086410175
-0.097365118
-0.10694602
-0.11497377
-0.12121196
-0.12531384
-0.12633454
0.9581316
0.3562762
0.245027
0.21176117
0.17306971
0.14673563
0.12597269
0.10647043
0.087850015
0.069865852
0.052184565
0.034719127
0.017536457
0.00070918328
-0.015693243
-0.03153517
-0.046642874
-0.060895114
-0.074179597
-0.086371634
-0.097334332
-0.10692217
-0.11495592
-0.12119903
-0.12530463
-0.12632761
0.95415897
0.362175
0.24836158
0.21314592
0.17389931
0.14723705
0.12631501
0.1067311
0.088060926
0.070044167
0.052339988
0.034856919
0.017659547
0.00082018527
-0.015595704
-0.031449814
-0.046568818
-0.060831457
-0.0741258
-0.08632688
-0.097297818
-0.10689303
-0.11493317
-0.12118161
-0.12529138
-0.12631757
0.94774775
0.3687974
0.25256704
0.21508102
0.17517514
0.14805462
0.1268782
0.10715188
0.088393444
0.070319264
0.052575351
0.035062371
0.017838697
0.00098157379
-0.015453944
-0.031325158
-0.046460176
-0.060737505
-0.074045451
-0.086258888
-0.097241058
-0.10684628
-0.11489517
-0.12115102
-0.12526685
-0.12629871
0.93823385
0.37612608
0.25778791
0.21763629
0.17698868
0.14930978
0.12778359
0.10783785
0.088933495
0.070761061
0.052948455
0.03538401
0.018118545
0.0012275008
-0.015237367
-0.031133404
-0.046291817
-0.060590707
-0.073918094
-0.086149116
-0.097147145
-0.10676648
-0.11482776
-0.12109433
-0.12521945
-0.12626181
0.92597189
0.38303436
0.2633536
0.22044417
0.17905163
0.15082273
0.12893791
0.10874808
0.0896658
0.071364956
0.053458569
0.03582261
0.01850056
0.0015594566
-0.014943177
-0.030872379
-0.046061184
-0.0603876
-0.073739503
-0.085992521
-0.09701021
-0.10664697
-0.11472365
-0.12100382
-0.12514142
-0.12620021
0.9109809
0.38944023
0.26922596
0.22348812
0.18131655
0.15252603
0.13028233
0.10984894
0.090580834
0.072137456
0.054120817
0.036397139
0.019003226
0.0020010525
-0.014550348
-0.030523036
-0.045750455
-0.060111095
-0.07349334
-0.085773334
-0.096814951
-0.10647286
-0.11456832
-0.12086538
-0.12501936
-0.12610265
0.89293241
0.39521968
0.27540538