-0.1            0.0099  -4.5739779e-20  0.95614321    0.011254922     0.00036571948
-5.9305859e-17  0.1385  -3.0357661e-18  0.91846744    0.26411097      -0.00029867612
0.1             0.1811  -3.0357661e-18  1.0289496     0.38552339      -0.00023261584
0.2             0.214   -8.6736174e-19  1.125948      0.38988855      -0.00019891101
0.3             0.2333  -3.9031278e-18  1.199186      0.38625485      -9.0889494e-05
0.4             0.2651  -6.0715322e-18  1.2380092     0.33777131      -0.00075739281
0.5             0.2921  -7.0202091e-18  1.265822      0.29878095      -3.9731488e-05
0.6             0.3156  -2.2985086e-17  1.2838482     0.26775029      -0.00044354731
0.7             0.3364  -2.6020852e-17  1.2981887     0.24138104      -0.0002529479
0.8             0.3548  -2.1033522e-17  1.3102911     0.21905632      -1.8644931e-06
0.9             0.3714  -1.3010426e-17  1.3191897     0.19952773      -0.00018780797
1               0.3863  -2.0816682e-17  1.324684      0.18183868      -0.00035246279
1.1             0.3998  -2.4286129e-17  1.32899       0.1657527       -0.00039773637
4.17            0.4913  0               1.1411033     0.00050974752   1.7758631e-06
4.27            0.4913  0               1.1371026     0.0004827042    1.6205359e-06
4.37            0.4913  -1.7347235e-18  1.1333323     0.00045740088   1.4808921e-06
4.47            0.4913  -3.469447e-18   1.1297707     0.00043386397   1.3552207e-06
4.57            0.4913  -4.3368087e-18  1.1263989     0.00041199406   1.2414664e-06
4.67            0.4913  -5.2041704e-18  1.1232015     0.00039156686   1.1375525e-06
4.77            0.4913  -5.2041704e-18  1.1201669     0.00037246979   1.0418928e-06
4.87            0.4913  -6.0715322e-18  1.1172849     0.00035464735   9.5354104e-07
4.97            0.4913  -4.3368087e-18  1.1145462     0.00033798389   8.7193085e-07
5.07            0.5013  -2.6020852e-18  1.2230195     0.00061185084   -2.8640533e-07
5.17            0.5013  -8.6736174e-19  1.2197319     0.00058369761   -2.7707132e-07
5.27            0.5013  2.6020852e-18   1.2165932     0.00055751487   -2.6729409e-07
5.37            0.5013  8.6736174e-19   1.2135936     0.00053315149   -2.5915558e-07
5.47            0.5013  1.7347235e-18   1.2107249     0.00051029909   -2.5375811e-07
8.6667          0.4961  1.994932e-17    1.1156477     0.00011734208   -4.550102e-08
8.9167          0.4961  2.0816682e-17   1.1137403     0.00010762498   1.4424676e-07
9.1667          0.4961  2.2117724e-17   1.1122802     9.6123825e-05   -4.4312736e-08
9.4167          0.4961  1.6479873e-17   1.1107392     8.0569748e-05   7.79865e-08
9.6667          0.4961  1.3010426e-17   1.1096464     4.6703331e-05   -1.2036087e-07
9.9167          0.4961  1.2143064e-17   1.109019      -3.2723899e-05  7.6178985e-09
10.1667         0.4961  1.1275703e-17   1.1102518     -0.00061692819  -6.0434176e-06
10.4167         0.4961  1.5612511e-17   1.1168026     -0.003613242    -4.0431341e-06
10.6667         0.4961  1.3877788e-17   1.1344997     -0.012442636    -1.1622347e-06
10.9167         0.4961  1.4528309e-17   1.1698626     -0.031003097    -3.6797395e-07
11.1667         0.4856  2.1684043e-17   1.15482       -0.061074537    -4.6521558e-06
11.4167         0.4646  2.6888214e-17   1.103296      -0.10158443     -0.00022815077
11.6667         0.4226  1.6479873e-17   0.92200696    -0.1369017      -1.7117046e-05
11.9167         0.3701  2.1250363e-17   0.68831098    -0.14112341     -6.8520633e-05
12.1667         0.2966  2.1141942e-17   0.30461455    -0.071765945    0.00038321474
12.4167         0.1811  2.1684043e-17   -0.045143378  0.024191774     8.999148e-05
12.6667         0.0236  1.2739376e-17   -0.13473507   0.028365351     -1.0459042e-05
12.9167         0.0236  1.3457659e-17   0.10786411    -0.011482625    5.5272935e-05
13.1667         0.0236  1.3444107e-17   0.28686652    -0.0065811322   6.7327603e-06
13.4167         0.0236  1.3498317e-17   0.39606439    -0.0042032061   1.0730774e-05
13.6667         0.0236  1.3444107e-17   0.46924151    -0.0029292602   2.2539992e-06
13.9167         0.0236  1.3444107e-17   0.5222869     -0.002231277    3.0209287e-06
14.1667         0.0236  1.3715157e-17   0.56427076    -0.0018164003   7.6866991e-07
14.4167         0.0236  1.3552527e-17   0.59928976    -0.0015546919   1.081337e-06
14.6667         0.0236  1.3227267e-17   0.6298245     -0.0013724553   3.5986352e-07
14.9167         0.0236  1.3606737e-17   0.65706308    -0.0012373989   5.1785222e-07
15.1667         0.0236  1.3715157e-17   0.68181078    -0.0011293243   2.2405521e-07
15.4167         0.0236  1.3633842e-17   0.70449875    -0.0010400098   2.9704043e-07
15.6667         0.0236  1.3715157e-17   0.72546394    -0.00096275594  1.6438384e-07
15.9167         0.0236  1.3769368e-17   0.74492205    -0.00089555911  1.7994539e-07
16.1667         0.0236  1.4365679e-17   0.76305401    -0.00083535428  1.2991526e-07
16.4167         0.0236  1.4148838e-17   0.78000253    -0.00078186347  1.0542052e-07
