5.3700 0.5013 0.4987 1.2061 0.0015 14.1797 1.4912 -0.5076 
5.3700 0.5113 0.4887 1.3016 0.0031 10.1870 1.3144 -0.4156 
5.3700 0.5212 0.4788 1.3702 0.0048 5.9012 1.0626 -0.3021 
5.3700 0.5312 0.4688 1.4054 0.0079 3.6692 0.8738 -0.1779 
5.3700 0.5411 0.4589 1.4247 0.0118 2.2460 0.7217 -0.0600 
5.3700 0.5511 0.4489 1.4320 0.0139 1.6281 0.6588 0.0416 
5.3700 0.5611 0.4389 1.4318 0.0131 1.4592 0.6588 0.1166 
5.3700 0.5710 0.4290 1.4289 0.0119 1.4014 0.6644 0.1712 
5.3700 0.5810 0.4190 1.4253 0.0116 1.4317 0.6813 0.2119 
5.3700 0.5910 0.4090 1.4220 0.0111 1.4808 0.7067 0.2426 
5.3700 0.6009 0.3991 1.4186 0.0101 1.5294 0.7423 0.2667 
5.3700 0.6109 0.3891 1.4148 0.0092 1.5781 0.7768 0.2872 
5.3700 0.6209 0.3791 1.4108 0.0093 1.6217 0.7973 0.3060 
5.3700 0.6308 0.3692 1.4065 0.0094 1.6611 0.8173 0.3246 
5.3700 0.6408 0.3592 1.4018 0.0092 1.7093 0.8442 0.3434 
5.3700 0.6507 0.3493 1.3973 0.0093 1.7699 0.8652 0.3621 
5.3700 0.6607 0.3393 1.3927 0.0091 1.8264 0.8851 0.3799 
5.3700 0.6707 0.3293 1.3880 0.0087 1.8724 0.9093 0.3963 
5.3700 0.6806 0.3194 1.3840 0.0081 1.9243 0.9312 0.4110 
5.3700 0.6906 0.3094 1.3800 0.0076 1.9756 0.9509 0.4242 
5.3700 0.7006 0.2994 1.3756 0.0075 2.0257 0.9660 0.4366 
5.3700 0.7105 0.2895 1.3718 0.0077 2.0849 0.9749 0.4487 
5.3700 0.7205 0.2795 1.3685 0.0069 2.1432 0.9853 0.4604 
5.3700 0.7305 0.2695 1.3653 0.0065 2.1967 1.0004 0.4718 
5.3700 0.7404 0.2596 1.3614 0.0065 2.2577 1.0122 0.4828 
5.3700 0.7504 0.2496 1.3565 0.0061 2.3244 1.0273 0.4930 
5.3700 0.7603 0.2397 1.3510 0.0058 2.3933 1.0416 0.5024 
5.3700 0.7703 0.2297 1.3456 0.0058 2.4520 1.0502 0.5114 
5.3700 0.7803 0.2197 1.3398 0.0059 2.4940 1.0499 0.5202 
5.3700 0.7902 0.2098 1.3340 0.0054 2.5432 1.0481 0.5282 
5.3700 0.8002 0.1998 1.3288 0.0047 2.6043 1.0537 0.5348 
5.3700 0.8102 0.1898 1.3235 0.0049 2.6681 1.0543 0.5402 
5.3700 0.8201 0.1799 1.3186 0.0051 2.7322 1.0641 0.5449 
5.3700 0.8301 0.1699 1.3136 0.0056 2.8101 1.0718 0.5501 
5.3700 0.8401 0.1599 1.3079 0.0058 2.9249 1.0773 0.5565 
5.3700 0.8500 0.1500 1.3019 0.0047 3.0260 1.0810 0.5649 
5.3700 0.8600 0.1400 1.2946 0.0036 3.1180 1.0773 0.5759 
5.3700 0.8699 0.1301 1.2860 0.0036 3.2709 1.0823 0.5902 
5.3700 0.8799 0.1201 1.2767 0.0037 3.4754 1.0946 0.6114 
5.3700 0.8899 0.1101 1.2674 0.0034 3.6994 1.1174 0.6434 
5.3700 0.8998 0.1002 1.2578 0.0038 3.9534 1.1359 0.6912 
5.3700 0.9098 0.0902 1.2455 0.0045 4.3216 1.1716 0.7559 
5.3700 0.9397 0.0603 1.1882 0.0040 5.9652 1.3342 0.8287 
5.3700 0.9496 0.0504 1.1584 0.0033 6.5690 1.3951 0.8916 
5.3700 0.9596 0.0404 1.1201 0.0045 7.4907 1.4410 0.9315 
5.3700 0.9696 0.0304 1.0713 0.0052 8.3822 1.5054 0.9411 
5.3700 0.9795 0.0205 1.0093 0.0064 9.3834 1.4589 0.9252 
5.3700 0.9895 0.0105 0.9538 0.0068 10.8501 1.3018 0.8942 
