0.4709558481 	0.1022204651 	-2.073083438e-08 	3.943861392e-10
0.4709558481 	0.1022204651 	-2.073083438e-08 	3.943861392e-10
0.471614208 	0.3770996397 	-6.794892474e-07 	-3.247560732e-09
0.4722725678 	0.7415192359 	-2.114071717e-06 	-1.328716622e-08
0.4729309277 	1.058209216 	-3.742836976e-06 	-2.746893446e-08
0.4735892875 	1.298572709 	-5.383887476e-06 	-4.522216022e-08
0.4742476473 	1.472145937 	-6.98067244e-06 	-6.585553504e-08
0.4749060072 	1.60167878 	-8.500046081e-06 	-8.866899911e-08
0.475564367 	1.702541155 	-9.858710544e-06 	-1.126544139e-07
0.4762227269 	1.795953714 	-1.115525944e-05 	-1.410744327e-07
0.4773080319 	1.893102435 	-1.231152081e-05 	-1.779915635e-07
0.4784819342 	1.983028828 	-1.292636677e-05 	-2.201987072e-07
0.479751666 	2.061205822 	-1.273245483e-05 	-2.638940814e-07
0.4811250504 	2.130986014 	-1.157023324e-05 	-3.087804996e-07
0.4826105488 	2.194454179 	-9.298979205e-06 	-3.54755382e-07
0.4842173135 	2.252986406 	-5.796965058e-06 	-4.018757364e-07
0.4859552439 	2.307579499 	-9.251570045e-07 	-4.503817525e-07
0.4878350474 	2.358976294 	5.488716424e-06 	-5.004879601e-07
0.4898683057 	2.407743754 	1.365244089e-05 	-5.523762231e-07
0.4920675457 	2.454323391 	2.38098343e-05 	-6.062208752e-07
0.4944463172 	2.499064817 	3.624492589e-05 	-6.621124903e-07
0.497019276 	2.54224864 	5.128540262e-05 	-7.19908064e-07
0.4998022741 	2.584116023 	6.932869502e-05 	-7.80529975e-07
0.5028124578 	2.624921208 	9.088236331e-05 	-8.457564186e-07
0.506068373 	2.6699182 	0.0001203015285 	-9.267248613e-07
0.5112857627 	2.72221537 	0.0001640743682 	-1.032531437e-06
0.5167584128 	2.7749435 	0.0002209001095 	-1.149710677e-06
0.5224988119 	2.823554245 	0.0002870851015 	-1.265825175e-06
0.5285200595 	2.868176205 	0.0003619150162 	-1.380148863e-06
0.5348358961 	2.908628332 	0.0004434135119 	-1.491781055e-06
0.5414607345 	2.944632849 	0.0005281410811 	-1.598265492e-06
0.5484096926 	2.976285389 	0.0006128414056 	-1.698584658e-06
0.5556986279 	3.004104659 	0.0006954907321 	-1.793322676e-06
0.5633441738 	3.028487105 	0.000774241594 	-1.883072018e-06
0.5713637774 	3.04953276 	0.0008465524162 	-1.967581451e-06
0.5797757394 	3.067246589 	0.0009091025497 	-2.045127856e-06
0.588599256 	3.081656864 	0.0009583639002 	-2.114356451e-06
0.5978544624 	3.092886728 	0.0009912923124 	-2.174568282e-06
0.607562479 	3.101172408 	0.001005985362 	-2.225761004e-06
0.6177454595 	3.106809047 	0.001001755246 	-2.268295174e-06
0.6284266415 	3.110089099 	0.0009788288656 	-2.302495777e-06
0.6396303994 	3.1112684 	0.0009380396618 	-2.328438912e-06
0.6513823003 	3.110550011 	0.0008805891064 	-2.345851367e-06
0.6637091619 	3.108077484 	0.000807876137 	-2.354080116e-06
0.6766391143 	3.103933837 	0.0007214102119 	-2.352146777e-06
0.6902016635 	3.098142486 	0.0006227973861 	-2.338852088e-06
0.7044277593 	3.090667017 	0.000513781149 	-2.312892904e-06
0.7193498657 	3.081407267 	0.0003963144071 	-2.273015417e-06
0.7350020349 	3.070442463 	0.0002753431112 	-2.219519054e-06
0.7500308009 	3.058258223 	0.0001592325933 	-2.15571856e-06
0.7643871251 	3.045195316 	5.276124457e-05 	-2.084732834e-06
0.7781010947 	3.031318305 	-4.27354204e-05 	-2.00816205e-06
0.7912014512 	3.016642375 	-0.0001265095585 	-1.927260553e-06
0.8037156498 	3.001158063 	-0.0001981672435 	-1.84317902e-06
0.8156699174 	2.984838282 	-0.0002576160939 	-1.757056207e-06
0.8270893073 	2.967643382 	-0.0003050232555 	-1.670030996e-06
0.837997752 	2.949524939 	-0.000340784597 	-1.583169684e-06
0.8484181129 	2.930428634 	-0.0003655555095 	-1.497356607e-06
0.8583722288 	2.910296367 	-0.0003803529334 	-1.413050629e-06
0.8678809611 	2.88901743 	-0.0003853380681 	-1.329621603e-06
0.8769642379 	2.86635076 	-0.000380294205 	-1.247125081e-06
0.8856410957 	2.842006278 	-0.0003653243765 	-1.166601805e-06
0.8939297192 	2.815825329 	-0.0003414772759 	-1.089379871e-06
0.9018474793 	2.787809864 	-0.0003113579035 	-1.016540253e-06
0.9094109698 	2.758043172 	-0.0002776993239 	-9.477069175e-07
0.9166360422 	2.726625738 	-0.0002429388062 	-8.821459085e-07
0.9235378383 	2.693632651 	-0.0002091272692 	-8.19351856e-07
0.9301308229 	2.659088117 	-0.000177890404 	-7.590922535e-07
0.9364288132 	2.62294599 	-0.0001504165019 	-7.013739382e-07
0.9424450084 	2.585063251 	-0.0001273768326 	-6.460517682e-07
0.948192017 	2.545153287 	-0.0001085854681 	-5.916658278e-07
0.9536818834 	2.502717627 	-9.323455512e-05 	-5.370190292e-07
0.9589261131 	2.457055712 	-8.036043014e-05 	-4.819295185e-07
0.9639356968 	2.411336516 	-6.998853612e-05 	-4.314930518e-07
0.9671916133 	2.370928699 	-6.240544764e-05 	-3.914152174e-07
0.9702017979 	2.333532987 	-5.647548755e-05 	-3.577919623e-07
0.9729847967 	2.29507886 	-5.126944722e-05 	-3.263261613e-07
0.9755577559 	2.255381782 	-4.66357675e-05 	-2.967705818e-07
0.9779365277 	2.214218748 	-4.245651154e-05 	-2.689471255e-07
0.9801357679 	2.171317275 	-3.863647932e-05 	-2.426928887e-07
0.9821690261 	2.126339942 	-3.509577529e-05 	-2.178495668e-07
0.9840488294 	2.078862282 	-3.176776061e-05 	-1.942694772e-07
0.9857867595 	2.028340474 	-2.859799038e-05 	-1.718225918e-07
0.9873935238 	1.974062866 	-2.554312183e-05 	-1.504039595e-07
0.9888790217 	1.915074935 	-2.256955236e-05 	-1.299423955e-07
0.9902524056 	1.850058961 	-1.965379755e-05 	-1.10418862e-07
0.9915221368 	1.777080509 	-1.679482336e-05 	-9.186227589e-08
0.9926960384 	1.693010409 	-1.400417534e-05 	-7.433205187e-08
0.9937813429 	1.601931294 	-1.151760409e-05 	-5.925889499e-08
0.9944397027 	1.514073948 	-9.556635967e-06 	-4.779131631e-08
0.9950980625 	1.419095717 	-7.850737269e-06 	-3.814107255e-08
0.9957564224 	1.297386206 	-6.160999234e-06 	-2.889711493e-08
0.9964147822 	1.135282459 	-4.51693438e-06 	-2.028666993e-08
0.9970731421 	0.9148850789 	-2.935606135e-06 	-1.251392158e-08
0.9977315019 	0.6344254702 	-1.523994981e-06 	-6.108354256e-09
0.9983898617 	0.3208958669 	-4.773796625e-07 	-1.722150812e-09
0.9990482216 	0.09999923372 	-4.322314975e-08 	-5.689631242e-11
0.9990482216 	0.09999923372 	-4.322314975e-08 	-5.689631242e-11
