0.4709558481 	0.1027702196 	4.963291864e-08 	-1.631939255e-11
0.4709558481 	0.1027702196 	4.963291864e-08 	-1.631939255e-11
0.471614208 	0.3792223496 	1.111077965e-06 	-2.098211055e-10
0.4722725678 	0.7457259411 	4.254469605e-06 	-7.412338568e-10
0.4729309277 	1.063959718 	9.213974576e-06 	-1.547336216e-09
0.4735892875 	1.305218505 	1.517126723e-05 	-2.495997936e-09
0.4742476473 	1.47936871 	2.160036448e-05 	-3.513775121e-09
0.4749060072 	1.609350683 	2.837958091e-05 	-4.58751969e-09
0.475564367 	1.710594437 	3.544692214e-05 	-5.709750399e-09
0.4762227269 	1.804402925 	4.396637014e-05 	-7.069825796e-09
0.4773080319 	1.902018709 	5.556881574e-05 	-8.93252222e-09
0.4784819342 	1.99242997 	6.972742797e-05 	-1.120669986e-08
0.479751666 	2.071067456 	8.559488205e-05 	-1.374423623e-08
0.4811250504 	2.141297581 	0.000103360864 	-1.656926002e-08
0.4826105488 	2.205216291 	0.0001232098991 	-1.970627743e-08
0.4842173135 	2.264204961 	0.0001453651019 	-2.318706996e-08
0.4859552439 	2.319265108 	0.0001700918809 	-2.705209444e-08
0.4878350474 	2.371143915 	0.0001976898868 	-3.134981673e-08
0.4898683057 	2.420412455 	0.0002284998088 	-3.613939519e-08
0.4920675457 	2.467516171 	0.0002629049689 	-4.149186134e-08
0.4944463172 	2.51280843 	0.000301323442 	-4.747389717e-08
0.497019276 	2.556589062 	0.0003443307071 	-5.419618755e-08
0.4998022741 	2.599148934 	0.0003926937683 	-6.183672124e-08
0.5028124578 	2.640772699 	0.0004473469855 	-7.060052879e-08
0.506068373 	2.686797921 	0.0005176235713 	-8.209141642e-08
0.5112857627 	2.740348511 	0.0006146986707 	-9.827971869e-08
0.5167584128 	2.794302534 	0.0007320924541 	-1.179972195e-07
0.5224988119 	2.843852417 	0.000860526978 	-1.392307642e-07
0.5285200595 	2.888955146 	0.0009976060778 	-1.607658667e-07
0.5348358961 	2.929286334 	0.001139064678 	-1.807262376e-07
0.5414607345 	2.964591615 	0.001280419133 	-1.983105743e-07
0.5484096926 	2.995204834 	0.001418768386 	-2.138478369e-07
0.5556986279 	3.021798736 	0.001552689699 	-2.272693315e-07
0.5633441738 	3.044673507 	0.001679028316 	-2.378206455e-07
0.5713637774 	3.06382988 	0.001792663698 	-2.441716933e-07
0.5797757394 	3.079290843 	0.001888684737 	-2.454597327e-07
0.588599256 	3.091202975 	0.001962811313 	-2.418989821e-07
0.5978544624 	3.099876963 	0.002012564431 	-2.344922425e-07
0.607562479 	3.105712034 	0.00203729596 	-2.243768891e-07
0.6177454595 	3.109098447 	0.002037518009 	-2.12421119e-07
0.6284266415 	3.110369746 	0.002014336476 	-1.992278615e-07
0.6396303994 	3.109788128 	0.00196909749 	-1.851858966e-07
0.6513823003 	3.107543311 	0.00190316163 	-1.705061812e-07
0.6637091619 	3.103757945 	0.001817802002 	-1.552776372e-07
0.6766391143 	3.098494686 	0.001714195068 	-1.395071227e-07
0.6902016635 	3.091761784 	0.001593472614 	-1.231423228e-07
0.7044277593 	3.083515266 	0.001456815381 	-1.060857114e-07
0.7193498657 	3.073656262 	0.001305578891 	-8.820218294e-08
0.7350020349 	3.062281608 	0.001145023052 	-6.969952127e-08
0.7500308009 	3.049890333 	0.0009855031093 	-5.129735353e-08
0.7643871251 	3.036809125 	0.0008334278689 	-3.337548119e-08
0.7781010947 	3.023082698 	0.0006909104165 	-1.599358315e-08
0.7912014512 	3.00870962 	0.0005593666336 	7.676850667e-10
0.8037156498 	2.993665337 	0.0004398128832 	1.680543653e-08
0.8156699174 	2.977907798 	0.0003329297193 	3.201143836e-08
0.8270893073 	2.961381573 	0.0002391063299 	4.628652944e-08
0.837997752 	2.944021001 	0.0001584758649 	5.954513498e-08
0.8484181129 	2.925752671 	9.094038546e-05 	7.171348262e-08
0.8583722288 	2.906497364 	3.614461411e-05 	8.273658544e-08
0.8678809611 	2.886171519 	-6.575248209e-06 	9.238018436e-08
0.8769642379 	2.864598049 	-3.734747859e-05 	1.000154434e-07
0.8856410957 	2.84144833 	-5.595492184e-05 	1.051820151e-07
0.8939297192 	2.816421422 	-6.23567789e-05 	1.0776105e-07
0.9018474793 	2.789384184 	-5.754575273e-05 	1.076537912e-07
0.9094109698 	2.760330715 	-4.42107403e-05 	1.048529892e-07
0.9166360422 	2.729320586 	-2.554886701e-05 	9.952294419e-08
0.9235378383 	2.696427746 	-4.582005368e-06 	9.20866279e-08
0.9301308229 	2.661701633 	1.614169691e-05 	8.312602129e-08
0.9364288132 	2.625138453 	3.463833357e-05 	7.320763084e-08
0.9424450084 	2.586656017 	4.947207682e-05 	6.283863539e-08
0.948192017 	2.546061941 	5.973144066e-05 	5.257930197e-08
0.9536818834 	2.503002206 	6.513064492e-05 	4.308527266e-08
0.9589261131 	2.45687513 	6.633312877e-05 	3.477607095e-08
0.9639356968 	2.410826908 	6.466483096e-05 	2.828202631e-08
0.9671916133 	2.370174893 	6.189124546e-05 	2.376455985e-08
0.9702017979 	2.332578591 	5.886368909e-05 	2.029120769e-08
0.9729847967 	2.293943317 	5.542058935e-05 	1.729568399e-08
0.9755577559 	2.254085094 	5.166519516e-05 	1.470482802e-08
0.9779365277 	2.21278109 	4.771181387e-05 	1.245678685e-08
0.9801357679 	2.169758711 	4.365846737e-05 	1.050102373e-08
0.9821690261 	2.124680219 	3.958386435e-05 	8.79765821e-09
0.9840488294 	2.0771207 	3.555084056e-05 	7.314806866e-09
0.9857867595 	2.02653581 	3.160895115e-05 	6.026217429e-09
0.9873935238 	1.972213334 	2.779641948e-05 	4.909612979e-09
0.9888790217 	1.91319819 	2.414238931e-05 	3.945422848e-09
0.9902524056 	1.848172134 	2.067101714e-05 	3.115802642e-09
0.9915221368 	1.775193108 	1.738922068e-05 	2.4076287e-09
0.9926960384 	1.691121032 	1.428850688e-05 	1.810012249e-09
0.9937813429 	1.600044389 	1.159427802e-05 	1.356916208e-09
0.9944397027 	1.512201068 	9.502754374e-06 	1.056596003e-09
0.9950980625 	1.417250866 	7.695265081e-06 	8.29223053e-10
0.9957564224 	1.295595782 	5.902900105e-06 	6.265429524e-10
0.9964147822 	1.133598971 	4.152630842e-06 	4.463321804e-10
0.9970731421 	0.913432171 	2.504941154e-06 	2.860001219e-10
0.9977315019 	0.6334003141 	1.144970487e-06 	1.501673577e-10
0.9983898617 	0.3204086197 	2.9857222e-07 	5.366544227e-11
0.9990482216 	0.09986377206 	1.643329545e-08 	1.093451964e-11
0.9990482216 	0.09986377206 	1.643329545e-08 	1.093451964e-11
