0.4709558481 	8.483470501e-06 	-1.79796312e-07 	1.873693499e-11 	8.46732387e-06 	-6.283879857e-10 	1.614107267e-08
0.471614208 	0.0004248034066 	-6.08634956e-05 	6.094588093e-09 	0.0004239895179 	-3.135679091e-08 	8.082418629e-07
0.4722725678 	0.003706394868 	-0.001192430656 	9.938394263e-08 	0.003699147628 	-2.53259139e-07 	7.051603503e-06
0.4729309277 	0.01157339207 	-0.004853438024 	3.044213795e-07 	0.01155018991 	-6.472651869e-07 	2.201787218e-05
0.4735892875 	0.02025233806 	-0.009281829914 	4.392566997e-07 	0.02021056928 	-9.139668061e-07 	3.852696228e-05
0.4742476473 	0.02624387016 	-0.01219561548 	4.650653919e-07 	0.0261878848 	-9.974306009e-07 	4.992138697e-05
0.4749060072 	0.03000776104 	-0.01394326007 	4.735690762e-07 	0.02994121778 	-1.015257981e-06 	5.707628282e-05
0.475564367 	0.0324181173 	-0.01505758552 	4.686421383e-07 	0.03234311302 	-1.003568688e-06 	6.165496273e-05
0.4762227269 	0.0342347005 	-0.01589980395 	4.547869457e-07 	0.03415130179 	-9.726559315e-07 	6.510187307e-05
0.4773080319 	0.03567115045 	-0.01656538484 	4.282782089e-07 	0.03557797794 	-9.140389539e-07 	6.782151434e-05
0.4784819342 	0.03653920146 	-0.01696654212 	3.879285778e-07 	0.03643547218 	-8.252297852e-07 	6.945613669e-05
0.479751666 	0.03694934772 	-0.01714840122 	3.544468794e-07 	0.03683479721 	-7.137825968e-07 	7.021736118e-05
0.4811250504 	0.03705411131 	-0.0171826533 	3.075688631e-07 	0.03692828162 	-5.816928092e-07 	7.039556845e-05
0.4826105488 	0.03693514784 	-0.01712247166 	2.470840406e-07 	0.0367973192 	-4.306257141e-07 	7.014591769e-05
0.4842173135 	0.03663682731 	-0.01699232175 	1.592780349e-07 	0.0364859498 	-2.575727655e-07 	6.955236106e-05
0.4859552439 	0.03618313786 	-0.01678628242 	4.06805721e-08 	0.03601799393 	-5.4372915e-08 	6.866030712e-05
0.4878350474 	0.03558567561 	-0.01650488704 	-7.450212429e-08 	0.03540506653 	1.871477037e-07 	6.749189713e-05
0.4898683057 	0.03484700172 	-0.01615743645 	-2.070660331e-07 	0.03464989247 	4.756441697e-07 	6.605232548e-05
0.4920675457 	0.03396258514 	-0.01574201793 	-3.648642506e-07 	0.03374823971 	8.180443675e-07 	6.433352472e-05
0.4944463172 	0.03292282443 	-0.01525424695 	-5.510897211e-07 	0.03269086627 	1.22104935e-06 	6.231787706e-05
0.497019276 	0.0317139415 	-0.01468781775 	-7.692806004e-07 	0.03146443971 	1.691768488e-06 	5.997996718e-05
0.4998022741 	0.030319101 	-0.0140350224 	-1.022746406e-06 	0.03005264388 	2.236950143e-06 	5.728869193e-05
0.5028124578 	0.02872167462 	-0.01328825654 	-1.311729005e-06 	0.02843936685 	2.857408041e-06 	5.421333752e-05
0.506068373 	0.02667424878 	-0.01233231989 	-1.665815787e-06 	0.02637689463 	3.617252034e-06 	5.028169224e-05
0.5112857627 	0.02395910268 	-0.01106658158 	-2.038323543e-06 	0.02365043128 	4.415144033e-06 	4.508429532e-05
0.5167584128 	0.02099923232 	-0.009688830698 	-2.232094506e-06 	0.02068718079 	4.825980907e-06 	3.943551628e-05
0.5224988119 	0.01830377017 	-0.008331932064 	-2.722104595e-06 	0.01799635674 	4.729924619e-06 	3.430605778e-05
0.5285200595 	0.0160155975 	-0.006890103424 	-3.104305059e-06 	0.01572410876 	4.305473826e-06 	2.997452159e-05
0.5348358961 	0.01418555644 	-0.005469522153 	-2.981418645e-06 	0.01392092608 	3.59271966e-06 	2.653715422e-05
0.5414607345 	0.01284258514 	-0.004219510195 	-2.79006484e-06 	0.01261099572 	2.675177834e-06 	2.404006288e-05
0.5484096926 	0.01197064558 	-0.003116884955 	-2.540615377e-06 	0.01177606685 	1.709302525e-06 	2.24484564e-05
0.5556986279 	0.01149821892 	-0.002126494672 	-2.36369465e-06 	0.01134309248 	8.590026692e-07 	2.162308692e-05
0.5633441738 	0.01131619833 	-0.001224462788 	-2.183770954e-06 	0.01120255344 	2.301986628e-07 	2.135518045e-05
0.5713637774 	0.01132360634 	-0.0004065056703 	-2.00138918e-06 	0.01125259658 	-1.996250929e-07 	2.145057658e-05
0.5797757394 	0.01145159789 	0.0003400825554 	-1.848016572e-06 	0.01142394176 	-4.905139398e-07 	2.177720812e-05
0.588599256 	0.01165698655 	0.001028932158 	-1.720956159e-06 	0.01167310407 	-6.870257472e-07 	2.225218073e-05
0.5978544624 	0.01191250209 	0.001669731272 	-1.615187687e-06 	0.01197254268 	-8.196717025e-07 	2.282299394e-05
0.607562479 	0.01220040165 	0.002268866909 	-1.525374145e-06 	0.01230430806 	-9.084348932e-07 	2.345543097e-05
0.6177454595 	0.01250858664 	0.002830162691 	-1.446574531e-06 	0.01265609462 	-9.661728027e-07 	2.412603392e-05
0.6284266415 	0.01282828184 	0.003355537955 	-1.374488575e-06 	0.01301887482 	-1.00107181e-06 	2.481759382e-05
0.6396303994 	0.01315265937 	0.003845548205 	-1.305497567e-06 	0.01338549252 	-1.018305726e-06 	2.551646904e-05
0.6513823003 	0.01347603293 	0.004299820943 	-1.236612762e-06 	0.01374983452 	-1.021125163e-06 	2.621100617e-05
0.6637091619 	0.01379340406 	0.004717416078 	-1.165388826e-06 	0.01410636038 	-1.011557367e-06 	2.689064354e-05
0.6766391143 	0.01410023712 	0.005097140463 	-1.089827728e-06 	0.01444986531 	-9.908402104e-07 	2.754545942e-05
0.6902016635 	0.01439239608 	0.005437843437 	-1.008276787e-06 	0.01477540789 	-9.596639269e-07 	2.816603406e-05
0.7044277593 	0.01466621228 	0.00573872018 	-9.193117025e-07 	0.0150783693 	-9.18253345e-07 	2.87435627e-05
0.7193498657 	0.01491868732 	0.005999664355 	-8.215914074e-07 	0.0153546268 	-8.662932531e-07 	2.927018627e-05
0.7350020349 	0.01514334679 	0.006217309519 	-7.161645635e-07 	0.01559615212 	-8.041134405e-07 	2.973060066e-05
0.7500308009 	0.01533295761 	0.006388760663 	-6.073709541e-07 	0.01579453334 	-7.338183366e-07 	3.010877042e-05
0.7643871251 	0.01549064595 	0.00652164149 	-4.973251033e-07 	0.01595309418 	-6.561927414e-07 	3.041103144e-05
0.7781010947 	0.01562480669 	0.00662722906 	-3.857638939e-07 	0.0160809198 	-5.700726846e-07 	3.065470259e-05
0.7912014512 	0.01574370506 	0.006715308573 	-2.722061196e-07 	0.01618691955 	-4.737661349e-07 	3.085676758e-05
0.8037156498 	0.01585528606 	0.006794299922 	-1.56157233e-07 	0.01627964117 	-3.653263088e-07 	3.103352076e-05
0.8156699174 	0.01596726707 	0.006871532744 	-3.719895104e-08 	0.0163673798 	-2.427094112e-07 	3.120077498e-05
0.8270893073 	0.016087239 	0.006953455536 	8.492347401e-08 	0.01645830076 	-1.039060389e-07 	3.137409561e-05
0.837997752 	0.01622276848 	0.007045788331 	2.102167926e-07 	0.01656056555 	5.294543224e-08 	3.15690407e-05
0.8484181129 	0.0163814967 	0.007153625886 	3.383477494e-07 	0.01668245363 	2.294524628e-07 	3.180139327e-05
0.8583722288 	0.01657123103 	0.007281495734 	4.685222909e-07 	0.01683247322 	4.268526302e-07 	3.20873723e-05
0.8678809611 	0.01680002336 	0.007433372939 	5.993084127e-07 	0.01701945216 	6.458591894e-07 	3.244380614e-05
0.8769642379 	0.01707622631 	0.0076126507 	7.28384167e-07 	0.01725259633 	8.864239915e-07 	3.288824371e-05
0.8856410957 	0.0174085128 	0.007822063595 	8.522344933e-07 	0.01754150553 	1.14744811e-06 	3.343898495e-05
0.8939297192 	0.01780583263 	0.008063560107 	9.659219569e-07 	0.01789615973 	1.426674193e-06 	3.411505443e-05
0.9018474793 	0.01827729479 	0.008338125696 	1.063287189e-06 	0.01832688413 	1.720675989e-06 	3.493613485e-05
0.9094109698 	0.01883232118 	0.008649171186 	1.207658621e-06 	0.01884366632 	2.019195132e-06 	3.592126533e-05
0.9166360422 	0.01948168774 	0.009013598763 	1.237303994e-06 	0.01945568203 	2.313261076e-06 	3.708793738e-05
0.9235378383 	0.02023834583 	0.009397164281 	1.234465259e-06 	0.02017382009 	2.611693376e-06 	3.845690811e-05
0.9301308229 	0.02111518877 	0.00979583467 	1.367237517e-06 	0.02101249919 	2.908720269e-06 	4.005566359e-05
0.9364288132 	0.02211459113 	0.01025256556 	1.475214471e-06 	0.02197872545 	3.155681393e-06 	4.189755938e-05
0.9424450084 	0.0232202636 	0.01076081916 	1.52745815e-06 	0.02306015023 	3.285943899e-06 	4.395905557e-05
0.948192017 	0.02439845384 	0.01130528747 	1.505730557e-06 	0.02422461353 	3.253421733e-06 	4.617884627e-05
0.9536818834 	0.02560201605 	0.01186396893 	1.407480407e-06 	0.02542460075 	3.052354713e-06 	4.846635543e-05
0.9589261131 	0.02677712826 	0.01241150826 	1.245174376e-06 	0.02660493267 	2.710269998e-06 	5.071639612e-05
0.9639356968 	0.02778991143 	0.01288492038 	1.058344367e-06 	0.02762857582 	2.312265506e-06 	5.266774449e-05
0.9671916133 	0.0285433649 	0.01323810574 	8.936607935e-07 	0.02839433213 	1.959024356e-06 	5.412748884e-05
0.9702017979 	0.02912922975 	0.01351337579 	7.546818539e-07 	0.02899253735 	1.65885176e-06 	5.526783425e-05
0.9729847967 	0.02962985214 	0.01374902185 	6.314490384e-07 	0.02950551075 	1.390631659e-06 	5.624570413e-05
0.9755577559 	0.03005025915 	0.01394716113 	5.271821485e-07 	0.02993733931 	1.161844947e-06 	5.706888939e-05
0.9779365277 	0.03039501035 	0.01410128499 	3.714904461e-07 	0.03029176875 	9.701982575e-07 	5.774453039e-05
0.9801357679 	0.03066586309 	0.01420832179 	2.623434068e-07 	0.03057042464 	8.091123511e-07 	5.827572597e-05
0.9821690261 	0.03086029129 	0.01428109863 	2.322651924e-07 	0.03077131159 	6.685616862e-07 	5.865867234e-05
0.9840488294 	0.03097104933 	0.01432206228 	1.785709633e-07 	0.03088770416 	5.412084345e-07 	5.888054892e-05
0.9857867595 	0.0309864136 	0.01432301097 	1.341762976e-07 	0.03090806192 	4.273821715e-07 	5.891935647e-05
0.9873935238 	0.03088902955 	0.014277444 	9.749600545e-08 	0.03081510853 	3.267511964e-07 	5.874216148e-05
0.9888790217 	0.03065244718 	0.01417452037 	6.723193692e-08 	0.03058251706 	2.384314192e-07 	5.829877749e-05
0.9902524056 	0.0302353575 	0.01400913547 	3.720523993e-08 	0.03016915048 	1.610907234e-07 	5.751078589e-05
0.9915221368 	0.02956271027 	0.01372596219 	2.549844123e-08 	0.02950022285 	9.629667471e-08 	5.623562392e-05
0.9926960384 	0.0284936498 	0.01323596932 	1.987629777e-08 	0.02843521825 	4.50923443e-08 	5.420542914e-05
0.9937813429 	0.02694796123 	0.01251840197 	3.639163907e-09 	0.02689394982 	9.478227874e-09 	5.126734315e-05
0.9944397027 	0.02511259201 	0.01166701645 	-6.04832422e-09 	0.0250630007 	-1.161123756e-08 	4.777704523e-05
0.9950980625 	0.0227774257 	0.01058304816 	-1.243715004e-08 	0.02273291533 	-2.558646305e-08 	4.333525491e-05
0.9957564224 	0.01929939016 	0.008966454402 	-1.651646769e-08 	0.01926199068 	-3.486580071e-08 	3.671870783e-05
0.9964147822 	0.01409013049 	0.006352674028 	-2.054307774e-08 	0.01406300172 	-3.826411297e-08 	2.680798989e-05
0.9970731421 	0.007422870632 	0.0029475292 	-1.600234384e-08 	0.007408648259 	-2.870619733e-08 	1.412294271e-05
0.9977315019 	0.002173786186 	0.0006206285155 	-4.677077218e-09 	0.002169636647 	-1.078504189e-08 	4.135930469e-06
0.9983898617 	0.0002402886507 	2.821632089e-05 	-2.551253604e-10 	0.0002398311164 	-1.278157137e-09 	4.571847655e-07
0.9990482216 	5.509038995e-06 	9.332871059e-08 	-8.80185501e-13 	5.498556822e-06 	-2.936681451e-11 	1.048177755e-08
0.9990482216 	5.509038995e-06 	9.332871059e-08 	-8.80185501e-13 	5.498556822e-06 	-2.936681451e-11 	1.048177755e-08
