0.4709558481 	0.107910228 	1.279951856e-07 	-4.795963266e-11
0.4709558481 	0.107910228 	1.279951856e-07 	-4.795963266e-11
0.471614208 	0.3981137228 	2.921067204e-06 	-1.189494728e-09
0.4722725678 	0.7816790313 	1.117823155e-05 	-4.578170196e-09
0.4729309277 	1.111795725 	2.413137576e-05 	-9.885425583e-09
0.4735892875 	1.359625693 	3.96360893e-05 	-1.626657263e-08
0.4742476473 	1.537863883 	5.641277216e-05 	-2.32942972e-08
0.4749060072 	1.670928487 	7.419607882e-05 	-3.089643299e-08
0.475564367 	1.774729949 	9.283614227e-05 	-3.899720813e-08
0.4762227269 	1.871173432 	0.0001154457785 	-4.895841617e-08
0.4773080319 	1.97192797 	0.0001465165342 	-6.28320445e-08
0.4784819342 	2.065664341 	0.0001848810044 	-8.024968991e-08
0.479751666 	2.147489491 	0.000228366603 	-1.003365064e-07
0.4811250504 	2.220821682 	0.0002775654852 	-1.234779295e-07
0.4826105488 	2.287886508 	0.0003330945686 	-1.501767905e-07
0.4842173135 	2.350148458 	0.000395650382 	-1.809279219e-07
0.4859552439 	2.408672042 	0.0004662887195 	-2.166600477e-07
0.4878350474 	2.464312684 	0.0005463875962 	-2.585988795e-07
0.4898683057 	2.517756093 	0.0006375968197 	-3.077216125e-07
0.4920675457 	2.569521692 	0.0007417240941 	-3.647175564e-07
0.4944463172 	2.619995939 	0.0008605864069 	-4.299864452e-07
0.497019276 	2.669464279 	0.0009961299394 	-5.038743121e-07
0.4998022741 	2.718116427 	0.001150425231 	-5.868776276e-07
0.5028124578 	2.766020848 	0.001325529441 	-6.799089514e-07
0.506068373 	2.818875464 	0.001549370445 	-7.979162972e-07
0.5112857627 	2.878977561 	0.001848603465 	-9.499999237e-07
0.5167584128 	2.936335388 	0.00218437981 	-1.095238423e-06
0.5224988119 	2.984287027 	0.002512325477 	-1.206408401e-06
0.5285200595 	3.02331426 	0.002821740489 	-1.276730733e-06
0.5348358961 	3.054657217 	0.00310676244 	-1.295650802e-06
0.5414607345 	3.07877522 	0.003352939822 	-1.261163937e-06
0.5484096926 	3.095911639 	0.003542707498 	-1.179592276e-06
0.5556986279 	3.107020655 	0.003672567207 	-1.079712816e-06
0.5633441738 	3.113521348 	0.003749280685 	-9.84973159e-07
0.5713637774 	3.116712473 	0.003783029581 	-9.033946812e-07
0.5797757394 	3.117504954 	0.003781995138 	-8.347049985e-07
0.588599256 	3.116483122 	0.003751874145 	-7.764375191e-07
0.5978544624 	3.114014071 	0.003696562376 	-7.258770073e-07
0.607562479 	3.110324675 	0.003618549705 	-6.806908393e-07
0.6177454595 	3.105551445 	0.003519300828 	-6.389962637e-07
0.6284266415 	3.099771847 	0.003399550205 	-5.992782647e-07
0.6396303994 	3.093023826 	0.003259516548 	-5.603059952e-07
0.6513823003 	3.085317912 	0.003099062715 	-5.210707532e-07
0.6637091619 	3.076644557 	0.002917821912 	-4.807400046e-07
0.6766391143 	3.066978174 	0.00271530464 	-4.386195632e-07
0.6902016635 	3.056278652 	0.00249099714 	-3.941177982e-07
0.7044277593 	3.044490575 	0.002244460415 	-3.467067989e-07
0.7193498657 	3.031539901 	0.001975440116 	-2.958766157e-07
0.7350020349 	3.017634654 	0.001690296933 	-2.422502426e-07
0.7500308009 	3.003410421 	0.001404472387 	-1.880451508e-07
0.7643871251 	2.989211444 	0.001127158314 	-1.343273199e-07
0.7781010947 	2.975051548 	0.0008607207037 	-8.096053758e-08
0.7912014512 	2.960907669 	0.0006068453155 	-2.77430528e-08
0.8037156498 	2.946740253 	0.0003669746729 	2.550394298e-08
0.8156699174 	2.932494886 	0.0001423675446 	7.890930026e-08
0.8270893073 	2.918103046 	-6.585789229e-05 	1.325201933e-07
0.837997752 	2.903482221 	-0.0002566956595 	1.86267051e-07
0.8484181129 	2.888535537 	-0.0004292371597 	2.399296949e-07
0.8583722288 	2.873151069 	-0.0005826693447 	2.931151237e-07
0.8678809611 	2.857200933 	-0.000716285812 	3.452622257e-07
0.8769642379 	2.840540343 	-0.0008295085468 	3.956883206e-07
0.8856410957 	2.82300676 	-0.0009219105407 	4.437047488e-07
0.8939297192 	2.804419337 	-0.000993249982 	4.888586264e-07
0.9018474793 	2.784578769 	-0.001043634379 	5.311959247e-07
0.9094109698 	2.763267599 	-0.001073930427 	5.699176522e-07
0.9166360422 	2.740173217 	-0.001082993427 	6.055004891e-07
0.9235378383 	2.714769865 	-0.001068016866 	6.396882219e-07
0.9301308229 	2.686399387 	-0.001025997288 	6.711502073e-07
0.9364288132 	2.654478747 	-0.0009561632647 	6.918558695e-07
0.9424450084 	2.618585523 	-0.0008628339187 	6.90189435e-07
0.948192017 	2.578437518 	-0.0007530082305 	6.600371844e-07
0.9536818834 	2.53383598 	-0.0006348149555 	6.032771402e-07
0.9589261131 	2.484588254 	-0.0005162911044 	5.269160653e-07
0.9639356968 	2.434856077 	-0.000413175986 	4.464322313e-07
0.9671916133 	2.391030094 	-0.0003369956824 	3.774473432e-07
0.9702017979 	2.350802644 	-0.0002789696027 	3.176371325e-07
0.9729847967 	2.309825664 	-0.0002305675516 	2.618324753e-07
0.9755577559 	2.267941964 	-0.0001906405718 	2.149724209e-07
0.9779365277 	2.224863506 	-0.0001576052983 	1.783464241e-07
0.9801357679 	2.180213445 	-0.0001299339499 	1.504100947e-07
0.9821690261 	2.133610755 	-0.0001064896482 	1.281585864e-07
0.9840488294 	2.084633799 	-8.66248219e-05 	1.079049923e-07
0.9857867595 	2.03273971 	-6.986788895e-05 	8.987589692e-08
0.9873935238 	1.977214853 	-5.577384381e-05 	7.411489615e-08
0.9888790217 	1.917100529 	-4.394309566e-05 	6.043238545e-08
0.9902524056 	1.851073395 	-3.40311561e-05 	4.860871891e-08
0.9915221368 	1.777121347 	-2.579040887e-05 	3.845160124e-08
0.9926960384 	1.692005851 	-1.901691191e-05 	2.976756105e-08
0.9937813429 	1.599961548 	-1.396670939e-05 	2.296627807e-08
0.9944397027 	1.51139806 	-1.061915584e-05 	1.818154953e-08
0.9950980625 	1.415877978 	-8.078517061e-06 	1.433660899e-08
0.9957564224 	1.293732215 	-5.846362765e-06 	1.074945552e-08
0.9964147822 	1.131399884 	-3.916282519e-06 	7.431737527e-09
0.9970731421 	0.9112351966 	-2.28565619e-06 	4.438328823e-09
0.9977315019 	0.6317016621 	-1.03451382e-06 	2.027692527e-09
0.9983898617 	0.3195385559 	-2.740231456e-07 	5.340729549e-10
0.9990482216 	0.09960082211 	-1.662723891e-08 	3.11587107e-11
