0.4709558481 	1.446900002e-07 	-4.533084197e-10 	4.220272093e-15 	1.44414699e-07 	-9.283998318e-13 	2.752945544e-10
0.4709558481 	1.446900002e-07 	-4.533084197e-10 	4.220272093e-15 	1.44414699e-07 	-9.283998318e-13 	2.752945544e-10
0.4713069734 	3.549758322e-06 	-6.004932393e-08 	5.585851317e-13 	3.543001885e-06 	-2.277627499e-11 	6.753946318e-09
0.4716580986 	2.625710063e-05 	-1.194442738e-06 	1.106984532e-11 	2.620706079e-05 	-1.683639528e-10 	4.995794173e-08
0.4720092239 	0.0001018657994 	-9.144595305e-06 	8.373743608e-11 	0.0001016711175 	-6.509335627e-10 	1.938134079e-07
0.4723603491 	0.0002735008612 	-4.073686017e-05 	3.628290543e-10 	0.0002729755325 	-1.729444974e-09 	5.203672345e-07
0.4727114744 	0.0005804179982 	-0.0001260358542 	1.06735453e-09 	0.0005792947947 	-3.585197948e-09 	1.104296885e-06
0.4730625996 	0.001041807626 	-0.0002970980892 	2.330792e-09 	0.001039771883 	-6.174689714e-09 	1.982094199e-06
0.4734137249 	0.001643034927 	-0.0005659360047 	4.017157791e-09 	0.001639787614 	-9.169794654e-09 	3.125890947e-06
0.4737648501 	0.002337216826 	-0.0009120950023 	5.766655347e-09 	0.002332539627 	-1.210336893e-08 	4.446468825e-06
0.4741159754 	0.003064375641 	-0.00129410965 	7.250368281e-09 	0.003058162139 	-1.461273815e-08 	5.829707008e-06
0.4744671006 	0.00377320026 	-0.001671935997 	8.336415972e-09 	0.003765444397 	-1.655651489e-08 	7.177983572e-06
0.4748182259 	0.004431384239 	-0.002020892434 	9.105559272e-09 	0.004422146071 	-1.796438072e-08 	8.429839484e-06
0.4751693511 	0.005024594123 	-0.002325014781 	9.228738656e-09 	0.005013968517 	-1.894816751e-08 	9.558017555e-06
0.4755204764 	0.005551122577 	-0.00257850106 	9.164621585e-09 	0.005539214997 	-1.964972587e-08 	1.055928333e-05
0.4758716016 	0.006015541178 	-0.002794179651 	9.396539196e-09 	0.00600244725 	-2.013882169e-08 	1.144233275e-05
0.4762227269 	0.006476271904 	-0.003008128961 	9.550896371e-09 	0.006461924456 	-2.045879991e-08 	1.231822401e-05
0.4767673536 	0.006964096593 	-0.003234640952 	9.615791459e-09 	0.006948304319 	-2.058124545e-08 	1.324539921e-05
0.4773330083 	0.007412879226 	-0.00344302643 	9.559910099e-09 	0.007395598922 	-2.043636404e-08 	1.409806705e-05
0.4779205028 	0.007786804645 	-0.003616611765 	9.392618072e-09 	0.007768098989 	-2.005305789e-08 	1.48081557e-05
0.4785306805 	0.008096607893 	-0.00376031724 	9.130194699e-09 	0.008076516079 	-1.946865272e-08 	1.53960844e-05
0.479164417 	0.00835190184 	-0.003878664212 	8.787008141e-09 	0.00833044208 	-1.870647516e-08 	1.588013793e-05
0.4798226221 	0.00856094123 	-0.003975529437 	8.368796316e-09 	0.008538113302 	-1.7779323e-08 	1.6276017e-05
0.4805062404 	0.008730642745 	-0.004054108612 	7.877910374e-09 	0.008706430508 	-1.669274354e-08 	1.659687638e-05
0.4812162531 	0.008866718998 	-0.004117048647 	7.314414146e-09 	0.008841092666 	-1.544712347e-08 	1.685357988e-05
0.4819536793 	0.008973844489 	-0.004166518025 	6.676647912e-09 	0.008946762636 	-1.403902373e-08 	1.705501621e-05
0.4827195775 	0.009055821363 	-0.004204281416 	5.961586209e-09 	0.009027232657 	-1.246201903e-08 	1.720841443e-05
0.483515047 	0.009115729211 	-0.004231768402 	5.16508023e-09 	0.009085573919 	-1.070725779e-08 	1.731962909e-05
0.4843412294 	0.009156054604 	-0.004250133341 	4.282071605e-09 	0.009124265925 	-8.7639437e-09 	1.739338681e-05
0.4851993106 	0.009178797499 	-0.004260304686 	3.306665786e-09 	0.009145302792 	-6.61950773e-09 	1.743348893e-05
0.4860905223 	0.009185556098 	-0.004263024385 	2.232089637e-09 	0.009150278058 	-4.25952761e-09 	1.744297317e-05
0.4870161436 	0.0091775967 	-0.004258880334 	1.050707184e-09 	0.009140454516 	-1.667770548e-09 	1.742424677e-05
0.487977503 	0.009155910193 	-0.004248332642 	-2.45963724e-10 	0.009116820737 	1.173762806e-09 	1.737919421e-05
0.4889759804 	0.009121256614 	-0.004231734361 	-1.667271009e-09 	0.009080135679 	4.284872319e-09 	1.73092623e-05
0.4900130089 	0.009074200639 	-0.004209348005 	-3.223459719e-09 	0.009030964273 	7.687217704e-09 	1.721552793e-05
0.491090077 	0.009015139877 	-0.00418135874 	-4.925712658e-09 	0.008969705817 	1.140439854e-08 	1.709875229e-05
0.4922087306 	0.008944327546 	-0.004147884945 	-6.786198797e-09 	0.008896616775 	1.54620529e-08 	1.695942426e-05
0.4933705753 	0.008861890829 	-0.004108986789 	-8.818127971e-09 	0.008811829263 	1.98879723e-08 	1.67977957e-05
0.4945772787 	0.008767846032 	-0.004064673312 	-1.103580944e-08 	0.008715366346 	2.4712227e-08 	1.661391057e-05
0.4958305727 	0.008662111443 	-0.004014908442 	-1.345471033e-08 	0.00860715507 	2.996728895e-08 	1.64076298e-05
0.4971322564 	0.008544518469 	-0.003959616245 	-1.609150964e-08 	0.008487037849 	3.568813449e-08 	1.617865299e-05
0.4984841978 	0.008414821069 	-0.003898685415 	-1.896414897e-08 	0.008354782339 	4.191231797e-08 	1.592653723e-05
0.4998883377 	0.008272702253 	-0.003831972534 	-2.209189946e-08 	0.008210088862 	4.868005125e-08 	1.565071125e-05
0.5013466912 	0.008117774111 	-0.003759302599 	-2.549550507e-08 	0.008052592722 	5.603442438e-08 	1.535047983e-05
0.5028613516 	0.007949564152 	-0.003680463664 	-2.919753142e-08 	0.007881855019 	6.402205938e-08 	1.502500632e-05
0.5044344929 	0.007767477844 	-0.003595189819 	-3.322313837e-08 	0.007697324684 	7.269489435e-08 	1.467324021e-05
0.506068373 	0.007545838951 	-0.003491489651 	-3.81569459e-08 	0.007473118092 	8.330664484e-08 	1.424584013e-05
0.5085784129 	0.007253957899 	-0.003355059629 	-4.471849606e-08 	0.007178423108 	9.739435361e-08 	1.368406958e-05
0.5111453651 	0.00691220092 	-0.003195485646 	-5.248696391e-08 	0.006834078148 	1.140416314e-07 	1.302765238e-05
0.5137705202 	0.006545370911 	-0.003024410566 	-6.08894585e-08 	0.006465322104 	1.320057387e-07 	1.232470087e-05
0.5164551977 	0.006153335404 	-0.002841817042 	-6.980703069e-08 	0.006072195719 	1.510083572e-07 	1.157529272e-05
0.5192007473 	0.005737193208 	-0.002648260355 	-7.84127917e-08 	0.005655974761 	1.692516774e-07 	1.078185989e-05
0.5220085492 	0.005303734305 	-0.002446923451 	-8.500162731e-08 	0.005223536606 	1.831022642e-07 	9.957512578e-06
0.5248800149 	0.004866698473 	-0.002244189208 	-8.850308493e-08 	0.004788559527 	1.903643853e-07 	9.128325369e-06
0.5278165879 	0.004440282685 	-0.002046644934 	-8.898832585e-08 	0.004365152471 	1.912872983e-07 	8.32119384e-06
0.5308197445 	0.004035393197 	-0.001859338719 	-8.688662977e-08 	0.003964039263 	1.86756117e-07 	7.556560584e-06
0.5338909942 	0.003656696527 	-0.001667619948 	-9.714215839e-08 	0.00359001542 	1.797324745e-07 	6.843567183e-06
0.5370318812 	0.003303171504 	-0.001466270211 	-1.043467943e-07 	0.003241948896 	1.726762286e-07 	6.180055649e-06
0.5402439843 	0.002975557357 	-0.001272652144 	-9.877493251e-08 	0.002920205366 	1.633024734e-07 	5.566723056e-06
0.5435289183 	0.002678778976 	-0.001091031768 	-9.579467835e-08 	0.002629829182 	1.491027825e-07 	5.013185344e-06
0.5468883345 	0.002419120268 	-0.0009216396621 	-9.046766408e-08 	0.002377037586 	1.301507186e-07 	4.531294303e-06
0.5503239217 	0.002201367569 	-0.0007672666585 	-8.323113852e-08 	0.00216634492 	1.07697436e-07 	4.129655522e-06
0.5538374071 	0.002027152436 	-0.0006292677501 	-7.495846825e-08 	0.001999185241 	8.395073299e-08 	3.811002713e-06
0.5574305568 	0.001894407978 	-0.0005074369263 	-6.658026207e-08 	0.001873355855 	6.129794684e-08 	3.571136933e-06
0.5611051773 	0.001797982735 	-0.0004003613835 	-5.886061156e-08 	0.001783669768 	4.156868862e-08 	3.400170323e-06
0.5648631156 	0.001730955484 	-0.0003065868715 	-5.125306777e-08 	0.001723284208 	2.572791762e-08 	3.285058663e-06
0.5687062611 	0.001686639228 	-0.0002250948029 	-4.447868488e-08 	0.001685623015 	1.308481821e-08 	3.213265961e-06
0.5726365456 	0.001659979469 	-0.0001530580824 	-4.012124593e-08 	0.001665635497 	2.981596801e-09 	3.175164196e-06
0.576655945 	0.001646615731 	-8.72346751e-05 	-3.685512717e-08 	0.001658791818 	-4.226119945e-09 	3.162118242e-06
0.5807664798 	0.001642429125 	-2.652175009e-05 	-3.381983464e-08 	0.001660830912 	-9.013301293e-09 	3.166005323e-06
0.5849702164 	0.001644411171 	2.97850036e-05 	-3.138422015e-08 	0.001668738551 	-1.224479187e-08 	3.18107948e-06
0.5892692681 	0.001650639158 	8.257383272e-05 	-2.939941287e-08 	0.001680610092 	-1.445686484e-08 	3.203709937e-06
0.593665796 	0.001659849794 	0.0001324704454 	-2.773342556e-08 	0.001695194328 	-1.597388554e-08 	3.231511544e-06
0.5981620103 	0.001671188465 	0.0001799179807 	-2.629085264e-08 	0.001711643083 	-1.700069666e-08 	3.262867443e-06
0.6027601713 	0.001684060237 	0.0002252327947 	-2.500422475e-08 	0.001729365988 	-1.767071023e-08 	3.296652226e-06
0.6074625904 	0.001698039708 	0.0002686420279 	-2.382543552e-08 	0.001747941445 	-1.807284957e-08 	3.33206221e-06
0.6122716317 	0.00171281485 	0.0003103092413 	-2.271947079e-08 	0.001767060724 	-1.82672968e-08 	3.368508869e-06
0.6171897127 	0.001728151184 	0.000350352383 	-2.166039803e-08 	0.001786492178 	-1.829517202e-08 	3.405550621e-06
0.6222193057 	0.001743868519 	0.0003888567411 	-2.062881677e-08 	0.001806057954 	-1.818476243e-08 	3.442848428e-06
0.6273629392 	0.001759825715 	0.0004258845256 	-1.961015156e-08 	0.001825618684 	-1.795564957e-08 	3.480136617e-06
0.6326231989 	0.001775910683 	0.0004614821344 	-1.859345956e-08 	0.001845063417 	-1.762147962e-08 	3.517203682e-06
0.6380027291 	0.001792033901 	0.0004956858023 	-1.757059107e-08 	0.001864303079 	-1.719183983e-08 	3.553879824e-06
0.6435042341 	0.001808124366 	0.0005285261045 	-1.653560561e-08 	0.001883266388 	-1.667354669e-08 	3.590029162e-06
0.6491304798 	0.001824127252 	0.0005600316402 	-1.548437038e-08 	0.00190189751 	-1.607154573e-08 	3.62554526e-06
0.6548842942 	0.001840002825 	0.0005902321171 	-1.441428318e-08 	0.001920154997 	-1.538955003e-08 	3.660349104e-06
0.6607685701 	0.001855726291 	0.0006191609906 	-1.332407739e-08 	0.001938011685 	-1.463049648e-08 	3.694388914e-06
0.6667862654 	0.001871288369 	0.0006468577654 	-1.221368044e-08 	0.001955455351 	-1.37968701e-08 	3.72764139e-06
0.6729404052 	0.001886696454 	0.0006733700317 	-1.108410591e-08 	0.001972489969 	-1.289092956e-08 	3.760114106e-06
0.6792340834 	0.001901976251 	0.0006987552868 	-9.93736408e-09 	0.001989137459 	-1.191485605e-08 	3.791848848e-06
0.6856704637 	0.001917173844 	0.0007230825723 	-8.776376961e-09 	0.00200543987 	-1.087084033e-08 	3.822925775e-06
0.6922527818 	0.00193235814 	0.0007464339426 	-7.60488412e-09 	0.00202146194 	-9.761116457e-09 	3.853468294e-06
0.6989843466 	0.00194762368 	0.0007689057685 	-6.427326284e-09 	0.002037294016 	-8.587946335e-09 	3.883648632e-06
0.7058685423 	0.001963093829 	0.0007906098716 	-5.248695126e-09 	0.002053055336 	-7.353554428e-09 	3.913694087e-06
0.7129088294 	0.001978924374 	0.0008116744813 	-4.074340159e-09 	0.002068897695 	-6.060008991e-09 	3.943894028e-06
0.7201087472 	0.001995307588 	0.0008322450045 	-2.909726343e-09 	0.002085009589 	-4.709041893e-09 	3.974607775e-06
0.7274719152 	0.002012476961 	0.0008524847524 	-1.760124013e-09 	0.002101620755 	-3.301794154e-09 	4.006273275e-06
0.7350020349 	0.002030611901 	0.0008724621395 	-6.360630753e-10 	0.002118912265 	-1.8464383e-09 	4.039235699e-06
0.7425321576 	0.002049684981 	0.0008920333489 	4.412703489e-10 	0.002136878787 	-3.680727637e-10 	4.073484883e-06
0.7498953284 	0.002069623768 	0.000911084581 	1.454875415e-09 	0.002155486362 	1.108473559e-09 	4.108956093e-06
0.7570952489 	0.002090536178 	0.0009297225488 	2.40370844e-09 	0.002174875039 	2.577141105e-09 	4.145916299e-06
0.7641355384 	0.002112615826 	0.000948122746 	3.293855486e-09 	0.002195261352 	4.04179282e-09 	4.184778277e-06
0.7710197363 	0.002136044098 	0.0009664339394 	4.132140056e-09 	0.002216845924 	5.50830318e-09 	4.225924472e-06
0.7777513032 	0.002160992544 	0.0009847824579 	4.925701714e-09 	0.00223981642 	6.984611146e-09 	4.269712621e-06
0.7843336232 	0.002187625724 	0.001003276055 	5.681417204e-09 	0.002264350784 	8.480803295e-09 	4.316481938e-06
0.7907700052 	0.002216104365 	0.001022007249 	6.405138744e-09 	0.002290620837 	1.000912328e-08 	4.366559961e-06
0.7970636849 	0.002246588813 	0.001041056041 	7.100977886e-09 	0.002318796078 	1.158375288e-08 	4.420269801e-06
0.8032178261 	0.002279242578 	0.001060491887 	7.771269971e-09 	0.002349047919 	1.322056206e-08 	4.477938217e-06
0.8092355226 	0.002314234991 	0.001080374866 	8.418260181e-09 	0.002381556245 	1.493758315e-08 	4.539908121e-06
0.8151197995 	0.002351743177 	0.001100756289 	9.048598845e-09 	0.002416517878 	1.675037969e-08 	4.606554712e-06
0.8208736149 	0.002391973054 	0.001121830854 	1.009541518e-08 	0.00245411792 	1.866255396e-08 	4.678230842e-06
0.8264998613 	0.00243522989 	0.001144468446 	1.062742887e-08 	0.002494507233 	2.065600777e-08 	4.755224098e-06
0.8320013671 	0.002482041246 	0.001167275572 	1.100710144e-08 	0.002537852145 	2.283586211e-08 	4.837851548e-06
0.8373808978 	0.002532931372 	0.001190049715 	1.22374457e-08 	0.002584587334 	2.534599885e-08 	4.926941808e-06
0.8426411579 	0.00258824072 	0.001214776758 	1.360396657e-08 	0.002635329709 	2.821662724e-08 	5.023670877e-06
0.8477847917 	0.002648261396 	0.001241641306 	1.510874601e-08 	0.00269059426 	3.143010295e-08 	5.129020472e-06
0.8528143849 	0.002713269316 	0.001270806058 	1.6752678e-08 	0.002750810427 	3.494816215e-08 	5.243809222e-06
0.857732466 	0.002783539093 	0.001302417842 	1.85378654e-08 	0.002816333176 	3.875983e-08 	5.368713793e-06
0.8625415073 	0.002859345284 	0.001336610942 	2.046899615e-08 	0.002887461491 	4.287648669e-08 	5.50430413e-06
0.8672439263 	0.002940964202 	0.001373511718 	2.255205514e-08 	0.002964458139 	4.731496385e-08 	5.651081142e-06
0.8718420871 	0.003028679287 	0.001413244927 	2.479198047e-08 	0.003047572463 	5.208766726e-08 	5.809520144e-06
0.8763383011 	0.003122788619 	0.001455940227 	2.71904034e-08 	0.003137061316 	5.719942114e-08 	5.980110768e-06
0.8807348287 	0.003223609971 	0.001501736735 	2.974347846e-08 	0.003233203613 	6.2644765e-08 	6.16338471e-06
0.8850338799 	0.003331479215 	0.001550783998 	3.243986388e-08 	0.003336305828 	6.840362437e-08 	6.359926186e-06
0.889237616 	0.003446740424 	0.00160323873 	3.525943756e-08 	0.003446697375 	7.443762739e-08 	6.570363157e-06
0.8933481502 	0.003569728068 	0.001659257443 	3.817303594e-08 	0.003564716308 	8.068894417e-08 	6.795340044e-06
0.8973675489 	0.003700742241 	0.001718985434 	4.114251296e-08 	0.003690686299 	8.708033909e-08 	7.03547386e-06
0.9012978327 	0.003840017336 	0.001782542318 	4.412000364e-08 	0.003824885417 	9.351354151e-08 	7.291294677e-06
0.9051409774 	0.003987684122 	0.001850004041 	4.704608266e-08 	0.003967506537 	9.986483622e-08 	7.563170172e-06
0.9088989149 	0.004143725896 	0.001921381639 	4.984774533e-08 	0.004118609829 	1.059798781e-07 	7.851215042e-06
0.9125735344 	0.004307931467 	0.001996597995 	5.243788329e-08 	0.004278070033 	1.116717088e-07 	8.155190512e-06
0.9161666832 	0.004479851442 	0.00207546579 	5.471848753e-08 	0.00444552575 	1.167272482e-07 	8.47440765e-06
0.9196801676 	0.004658770388 	0.002157672844 	5.659006567e-08 	0.004620344686 	1.209278454e-07 	8.80766113e-06
0.9231157538 	0.004843710167 	0.002242782317 	5.796607222e-08 	0.004801621604 	1.240811312e-07 	9.153225318e-06
0.9264751689 	0.005033466112 	0.002330248718 	5.878420137e-08 	0.004988211274 	1.260462187e-07 	9.50891709e-06
0.9297601017 	0.005226658137 	0.002419441311 	5.900902842e-08 	0.005178778145 	1.267400554e-07 	9.872190511e-06
0.9329722036 	0.005421781682 	0.002509667703 	5.863068872e-08 	0.005371846907 	1.261349436e-07 	1.024023323e-05
0.9361130893 	0.005617259706 	0.002600198086 	5.766398899e-08 	0.005565854709 	1.242568163e-07 	1.061006603e-05
0.9391843379 	0.005811497803 	0.002690291054 	5.614644743e-08 	0.00575920699 	1.211811569e-07 	1.097864921e-05
0.9421874931 	0.006002935682 	0.002779217849 	5.413409757e-08 	0.005950330095 	1.170240672e-07 	1.134298297e-05
0.9451240648 	0.006190087772 	0.002866281608 	5.16961164e-08 	0.006137713288 	1.119307481e-07 	1.170018742e-05
0.9479955291 	0.006371569791 	0.002950830095 	4.890941748e-08 	0.006319936788 	1.060638657e-07 	1.204755605e-05
0.9508033297 	0.006546110128 	0.003032261351 	4.585381534e-08 	0.006495684566 	9.959313005e-08 	1.238258017e-05
0.9535488779 	0.006712546356 	0.003110022376 	4.260810991e-08 	0.006663742037 	9.268685099e-08 	1.270294441e-05
0.956233554 	0.006869808702 	0.003183601612 	3.924723662e-08 	0.006822980004 	8.550580193e-08 	1.300649624e-05
0.9588587076 	0.007016894555 	0.00325251719 	3.584051138e-08 	0.006972329326 	7.819952145e-08 	1.329119755e-05
0.9614256584 	0.007152841279 	0.003316305535 	3.245095317e-08 	0.007110761321 	7.09046079e-08 	1.355508741e-05
0.9639356968 	0.007267034313 	0.003369963035 	2.940461528e-08 	0.007227368657 	6.432827492e-08 	1.37773734e-05
0.9655695775 	0.007351843925 	0.003409869674 	2.70036223e-08 	0.007314211089 	5.913070219e-08 	1.394291922e-05
0.9671427194 	0.007419776537 	0.003441877061 	2.498229369e-08 	0.007383953024 	5.474409593e-08 	1.407586673e-05
0.9686573803 	0.007480599551 	0.003470571297 	2.307861206e-08 	0.007446552738 	5.060425154e-08 	1.419519918e-05
0.9701157342 	0.00753442688 	0.003496000883 	2.129423232e-08 	0.007502106087 	4.671604622e-08 	1.43010993e-05
0.9715198744 	0.007581330157 	0.0035181956 	1.962878475e-08 	0.007550669444 	4.307998343e-08 	1.439367456e-05
0.9728718162 	0.007621344991 	0.003537169586 	1.808026095e-08 	0.007592267996 	3.969293909e-08 	1.447297296e-05
0.9741735001 	0.007654469635 	0.003552920422 	1.664537446e-08 	0.007626893163 	3.654892147e-08 	1.453897815e-05
0.9754267944 	0.007680658847 	0.003565426059 	1.531987807e-08 	0.007654495412 	3.363975225e-08 	1.459159571e-05
0.9766334979 	0.007699815029 	0.00357464058 	1.409883225e-08 	0.007674974894 	3.095564679e-08 	1.46306353e-05
0.9777953427 	0.007711777755 	0.003580489264 	1.297682665e-08 	0.00768817069 	2.848569125e-08 	1.465579015e-05
0.9789139964 	0.007716311954 	0.003582863041 	1.194816064e-08 	0.007693848781 	2.621823193e-08 	1.466661417e-05
0.9799910645 	0.007713094532 	0.003581612228 	1.100698934e-08 	0.00769168849 	2.414119248e-08 	1.466249606e-05
0.981028093 	0.007701698914 	0.003576539304 	1.014744048e-08 	0.007681266869 	2.224233102e-08 	1.464262955e-05
0.9820265703 	0.007681576814 	0.003567390403 	9.363706826e-09 	0.007662040323 	2.050944653e-08 	1.460597841e-05
0.9829879297 	0.007652036376 	0.003553845114 	8.650117145e-09 	0.007633322621 	1.893054075e-08 	1.455123449e-05
0.9839135509 	0.007612215687 	0.00353550415 	8.00118832e-09 	0.007594258313 	1.749394049e-08 	1.447676706e-05
0.9848047624 	0.007561050427 	0.00351187428 	7.411668161e-09 	0.007543790287 	1.618840059e-08 	1.438056098e-05
0.9856628435 	0.007497234387 	0.003482349972 	6.876559351e-09 	0.007480620248 	1.500316679e-08 	1.426014132e-05
0.9864890258 	0.00741917202 	0.003446191334 	6.391099388e-09 	0.007403161237 	1.392794483e-08 	1.411248292e-05
0.987284495 	0.007324921386 	0.003402497622 	5.950731797e-09 	0.007309480598 	1.295285227e-08 	1.393390158e-05
0.988050393 	0.00721212588 	0.0033501756 	5.551086825e-09 	0.007197231753 	1.206839463e-08 	1.371992409e-05
0.988787819 	0.007077935575 	0.003287903211 	5.18792298e-09 	0.007063575635 	1.126536742e-08 	1.346513838e-05
0.9894978315 	0.00691892082 	0.003214090065 	4.857014419e-09 	0.006905094398 	1.053466553e-08 	1.316302909e-05
0.9901814495 	0.006730984436 	0.003126838367 	4.553978336e-09 	0.006717703753 	9.867018756e-09 	1.280581044e-05
0.9908396543 	0.006509286745 	0.003023912952 	4.274010006e-09 	0.006496578122 	9.252653261e-09 	1.238428353e-05
0.9914733905 	0.006248207902 	0.002902659589 	4.014333017e-09 	0.00623611304 	8.681014699e-09 	1.188776469e-05
0.9920835679 	0.005941408269 	0.002760121593 	3.769170133e-09 	0.005929985371 	8.14006865e-09 	1.130420027e-05
0.9926710621 	0.005582071782 	0.002593184923 	3.529715397e-09 	0.005571396222 	7.615287417e-09 	1.062062969e-05
0.9932367165 	0.005163431396 	0.002398708358 	3.28821783e-09 	0.005153595444 	7.088466427e-09 	9.824185285e-06
0.9937813429 	0.004721554895 	0.002193436518 	3.0547418e-09 	0.004712584697 	6.580901811e-09 	8.983496228e-06
0.9941324681 	0.004314862867 	0.002003006543 	2.728193665e-09 	0.004306677676 	6.1232776e-09 	8.20972463e-06
0.9944835934 	0.003913734095 	0.00180344393 	2.423959408e-09 	0.003906315772 	5.664070524e-09 	7.446523566e-06
0.9948347186 	0.003469444586 	0.001571151196 	2.213069273e-09 	0.003462871058 	5.149610853e-09 	6.601194693e-06
0.9951858439 	0.002984645275 	0.001314712034 	1.947204975e-09 	0.002978990813 	4.571204999e-09 	5.678784457e-06
0.9955369691 	0.002469014767 	0.001040336426 	1.635316605e-09 	0.002464336307 	3.921349546e-09 	4.697709929e-06
0.9958880943 	0.001941775286 	0.0007631840932 	1.280101176e-09 	0.001938094299 	3.205820202e-09 	3.6945464e-06
0.9962392196 	0.001432274746 	0.0005063541208 	9.05677344e-10 	0.001429557943 	2.454743957e-09 	2.725134764e-06
0.9965903448 	0.0009756054344 	0.0002951742373 	5.58810267e-10 	0.0009737535387 	1.726314777e-09 	1.856244886e-06
0.9969414701 	0.0006026980694 	0.0001462975885 	2.894085193e-10 	0.0006015532097 	1.091889393e-09 	1.146727611e-06
0.9972925953 	0.0003296892647 	5.926427466e-05 	1.206748485e-10 	0.0003290626136 	6.06121756e-10 	6.272847998e-07
0.9976437206 	0.000153698178 	1.856081239e-05 	3.83714245e-11 	0.0001534059037 	2.84705343e-10 	2.924342894e-07
0.9979948458 	5.694674204e-05 	4.092354588e-06 	8.50374645e-12 	5.683841925e-05 	1.05811336e-10 	1.083498245e-07
0.9983459711 	1.464573157e-05 	5.300464634e-07 	1.100541077e-12 	1.461786832e-05 	2.723838022e-11 	2.786571984e-08
0.9986970963 	1.977812596e-06 	2.655587193e-08 	5.493795843e-14 	1.974049582e-06 	3.67902629e-12 	3.763087163e-09
0.9990482216 	9.673551847e-08 	2.403397609e-10 	4.949103558e-16 	9.655146477e-08 	1.799450571e-13 	1.840539269e-10
