0 	0.3671014971 	-1.641154027e-14 	2.118865071e-22
0.0006299624726 	0.3671004707 	-0.0001330629326 	1.414382382e-07
0.001259922727 	0.3671062741 	-0.0002500545801 	2.619002917e-07
0.001889880757 	0.3671245588 	-0.0003671753154 	3.788525173e-07
0.002519836559 	0.3671515213 	-0.0004874183209 	4.953344286e-07
0.00314979013 	0.3671866568 	-0.0006082250717 	6.086398262e-07
0.003779741465 	0.3672298061 	-0.0007291180706 	7.182742524e-07
0.004409690564 	0.367280897 	-0.0008500665831 	8.242075392e-07
0.005039637424 	0.3673398883 	-0.0009710611382 	9.264328914e-07
0.005669582045 	0.367406751 	-0.001092080003 	1.024933819e-06
0.006299524428 	0.3674814621 	-0.001213106456 	1.119701033e-06
0.006929464573 	0.3675640007 	-0.00133413002 	1.210733131e-06
0.007559402482 	0.367654347 	-0.001455143727 	1.298033692e-06
0.008189338158 	0.3677524812 	-0.001576142564 	1.381609923e-06
0.008819271603 	0.367858383 	-0.001697118792 	1.461468802e-06
0.009449202822 	0.3679889154 	-0.001835179656 	1.552106808e-06
0.01042627816 	0.3681670647 	-0.002008359876 	1.650696787e-06
0.01144107264 	0.3683859536 	-0.002203174515 	1.756461677e-06
0.01249504218 	0.3686344006 	-0.002405405442 	1.85629789e-06
0.0135896989 	0.3689151318 	-0.002615327129 	1.949290887e-06
0.01472661327 	0.369231093 	-0.002833214082 	2.034454527e-06
0.01590741638 	0.3695854658 	-0.003059350091 	2.110738339e-06
0.01713380225 	0.3699816849 	-0.003294027807 	2.177027217e-06
0.01840753034 	0.3704234564 	-0.003537548075 	2.232142946e-06
0.01973042799 	0.3709154539 	-0.003790555639 	2.275069707e-06
0.02111125744 	0.3714631203 	-0.004053829611 	2.303830526e-06
0.02254802119 	0.3720710239 	-0.004327509082 	2.316715698e-06
0.02404024843 	0.3727434314 	-0.004611500788 	2.311923185e-06
0.02559007988 	0.3734855578 	-0.004906030464 	2.287474446e-06
0.02719973888 	0.3743032881 	-0.005211447706 	2.241317934e-06
0.02887153458 	0.3752029576 	-0.005528108562 	2.171247054e-06
0.03060786522 	0.3761913842 	-0.005856375021 	2.07489112e-06
0.03241122156 	0.3772759034 	-0.006196614215 	1.949705946e-06
0.03428419049 	0.3784644048 	-0.00654919743 	1.792964212e-06
0.0362294587 	0.3797653725 	-0.006914498965 	1.601745703e-06
0.03824981657 	0.3811881167 	-0.00729294382 	1.372937613e-06
0.04034919392 	0.3827450963 	-0.007685552592 	1.103109521e-06
0.04254220021 	0.3844496685 	-0.008093246905 	7.865328525e-07
0.04481986049 	0.3863112449 	-0.008515787025 	4.214546912e-07
0.04718544201 	0.3883398802 	-0.008952984248 	3.778058873e-09
0.04720596277 	0.3883583204 	-0.008956756956 	9.05868109e-09
0.04964233816 	0.3905338226 	-0.009406087604 	5.099878051e-07
0.0521940732 	0.3929217219 	-0.009874660275 	1.090553195e-06
0.05484430744 	0.3955189252 	-0.01035902266 	1.742746884e-06
0.05759684237 	0.3983420809 	-0.01085952841 	2.471999133e-06
0.06045679983 	0.4014134791 	-0.01137719822 	3.284558908e-06
0.06344293631 	0.4051891108 	-0.01197992774 	4.214630188e-06
0.0680303274 	0.4101972004 	-0.01273170184 	5.693542064e-06
0.0727216763 	0.4160995031 	-0.01355729267 	7.362098853e-06
0.07751933878 	0.4225058002 	-0.01439128792 	9.200203533e-06
0.08243678312 	0.4294500282 	-0.01523364105 	1.121468417e-05
0.08748051347 	0.4369605939 	-0.01608311996 	1.340804046e-05
0.09263855481 	0.4450551414 	-0.01693704174 	1.577572696e-05
0.09791349788 	0.4537608965 	-0.01779361063 	1.831790364e-05
0.1033219993 	0.46311761 	-0.01865183565 	2.103958782e-05
0.1088648393 	0.4731548794 	-0.019509287 	2.16501627e-05
0.1145333149 	0.4838915784 	-0.02036239003 	2.050350625e-05
0.1203302739 	0.4953648987 	-0.02120877161 	1.917501249e-05
0.126283763 	0.5076207092 	-0.0220461579 	1.765582812e-05
0.1323724013 	0.5206784705 	-0.02287000188 	1.595815362e-05
0.13859906 	0.5345665341 	-0.02367616729 	1.408391843e-05
0.1449844499 	0.5493313924 	-0.0244611462 	1.20304283e-05
0.1515216595 	0.5649984419 	-0.0252198597 	9.810503486e-06
0.1582070715 	0.5815920281 	-0.0259469892 	7.434150209e-06
0.1650600416 	0.5991506762 	-0.02663756389 	4.904400731e-06
0.1720761416 	0.6176922441 	-0.02728556613 	2.239812521e-06
0.1778742496 	0.6334780505 	-0.02776963186 	4.861263714e-06
0.1792513138 	0.6372268672 	-0.02788590652 	5.89045079e-07
0.1866082084 	0.6577651166 	-0.02843621282 	3.725648776e-06
0.1941355691 	0.6793140028 	-0.02892565383 	6.952344167e-06
0.201837514 	0.701857798 	-0.02934818838 	1.025033388e-05
0.2097317023 	0.7253720813 	-0.02969837722 	1.360025186e-05
0.2178048959 	0.7497926158 	-0.02997128132 	1.697145032e-05
0.2260749236 	0.775038182 	-0.03016337584 	2.034841103e-05
0.2345389491 	0.8009874886 	-0.0302727652 	2.370321741e-05
0.2432009396 	0.8274816562 	-0.03029979159 	2.701970736e-05
0.252072218 	0.8543250047 	-0.03024745292 	3.028059198e-05
0.2611461362 	0.8812788622 	-0.03012164789 	3.347009862e-05
0.2704418772 	0.9080845864 	-0.0299310642 	3.657967762e-05
0.279948433 	0.9344671632 	-0.02968659112 	3.696938553e-05
0.2896860092 	0.9601777077 	-0.02940009746 	3.387592518e-05
0.2996451109 	0.9850078281 	-0.02908294297 	3.081325325e-05
0.3098437913 	1.008823687 	-0.02874442533 	2.778694533e-05
0.3202747851 	1.031564066 	-0.02839081885 	2.481388845e-05
0.3309556803 	1.053240476 	-0.02802512685 	2.190395812e-05
0.3418805904 	1.073904812 	-0.0276476594 	1.907565614e-05
0.3530635948 	1.093633903 	-0.02725684033 	1.634356523e-05
0.3645041893 	1.112499179 	-0.02685016279 	1.372183612e-05
0.376211093 	1.130555248 	-0.02642484629 	1.122491068e-05
0.3881898512 	1.147827286 	-0.02597825551 	8.860308574e-06
0.4004437244 	1.164305186 	-0.02550805604 	6.638513566e-06
0.4129838138 	1.179941241 	-0.02501213892 	4.563809126e-06
0.4258115502 	1.194639707 	-0.02448861901 	2.640341016e-06
0.438934409 	1.208256846 	-0.02393563762 	8.72478742e-07
0.4461214683 	1.214862275 	-0.02362307283 	2.665671165e-05
0.4523607748 	1.220598029 	-0.02335253414 	7.926529905e-07
0.4660946366 	1.231427314 	-0.02273767803 	2.350058081e-06
0.4801431735 	1.240503803 	-0.02208883017 	3.735280041e-06
0.4945150618 	1.24761033 	-0.02141003069 	4.950559039e-06
0.5088894551 	1.252628701 	-0.0207166762 	5.976955784e-06
0.5229473462 	1.255701971 	-0.02002593797 	6.811057681e-06
0.5366960301 	1.257159279 	-0.01934536735 	7.479437833e-06
0.5501417812 	1.257325484 	-0.01867753645 	8.006973329e-06
0.5632905288 	1.256457815 	-0.01802359109 	8.413960089e-06
0.5761491699 	1.254742519 	-0.01738354356 	8.718049384e-06
0.5887237696 	1.252306735 	-0.01675673055 	8.935958617e-06
0.6010201278 	1.249233353 	-0.01614214739 	9.080136316e-06
0.6130448619 	1.245574041 	-0.01553864404 	9.161840225e-06
0.6248033648 	1.241359707 	-0.01494511465 	9.191219286e-06
0.6363016453 	1.236609178 	-0.01436052125 	9.175334829e-06
0.6475454267 	1.231337738 	-0.01378414388 	9.121868602e-06
0.6585401132 	1.225562353 	-0.0132156699 	9.035721467e-06
0.6692914304 	1.219301899 	-0.01265503841 	8.922336452e-06
0.6798044385 	1.212576637 	-0.01210243132 	8.785535508e-06
0.6900846696 	1.205408144 	-0.01155825495 	8.628923022e-06
0.7001369949 	1.197819055 	-0.01102311044 	8.455497344e-06
0.709966655 	1.189832572 	-0.01049775146 	8.267612654e-06
0.7195783858 	1.181472196 	-0.009983061837 	8.067327523e-06
0.7289771609 	1.172761679 	-0.009480078556 	7.856272251e-06
0.7381675586 	1.163725404 	-0.008990415947 	7.632790123e-06
0.7471542778 	1.154378215 	-0.008514652516 	7.40460949e-06
0.7559417682 	1.144689994 	-0.008051202086 	7.181405586e-06
0.7645344677 	1.134591573 	-0.007596681677 	6.963508918e-06
0.7729366838 	1.124043986 	-0.007149084685 	6.74698282e-06
0.7811526225 	1.113063032 	-0.006709137421 	6.529484018e-06
0.7891864349 	1.101694628 	-0.006277716556 	6.312412692e-06
0.7970421296 	1.089994019 	-0.005855402381 	6.097199798e-06
0.8047236705 	1.078009204 	-0.005442314269 	5.884289637e-06
0.8122349102 	1.065772142 	-0.005038230902 	5.67340731e-06
0.8195796179 	1.05329808 	-0.004642836595 	5.464778658e-06
0.8267614972 	1.040589826 	-0.004255891531 	5.258376873e-06
0.8337841463 	1.027643261 	-0.00387726713 	5.054122881e-06
0.8406510965 	1.014451669 	-0.003506954603 	4.852036782e-06
0.8473658039 	1.00100825 	-0.00314505085 	4.651758368e-06
0.8539316385 	0.9873072248 	-0.002791752023 	4.452929355e-06
0.8603519015 	0.9733442107 	-0.002447386616 	4.255203784e-06
0.8666298224 	0.9591163969 	-0.002112439256 	4.058025065e-06
0.8727685545 	0.9446227437 	-0.001787563843 	3.860924866e-06
0.8787711837 	0.9298640606 	-0.001473588764 	3.663613178e-06
0.8846407287 	0.9148427939 	-0.001171484503 	3.465920553e-06
0.8903801391 	0.8995626183 	-0.000882302462 	3.267902565e-06
0.8959923 	0.884028481 	-0.0006071341686 	3.069871074e-06
0.9014800328 	0.8682485017 	-0.0003471491082 	2.871965569e-06
0.9068460964 	0.8522395277 	-0.0001037770284 	2.673476186e-06
0.9120931879 	0.8360370778 	0.0001209164623 	2.472368155e-06
0.9172239451 	0.8197065269 	0.0003237987587 	2.265657658e-06
0.9222409474 	0.8033452481 	0.0005007113968 	2.051983856e-06
0.9271467168 	0.7870581546 	0.0006478592266 	1.835917877e-06
0.9319437194 	0.7722049067 	0.0007565521013 	1.647606925e-06
0.9350662734 	0.7602097436 	0.0008271885043 	1.508178701e-06
0.9380727476 	0.7497099054 	0.0008778129104 	1.395249013e-06
0.9409674572 	0.739376526 	0.0009181783688 	1.290211454e-06
0.9437545572 	0.7292016652 	0.0009488396877 	1.190422455e-06
0.9464380477 	0.7191761441 	0.0009704804397 	1.0958892e-06
0.9490217805 	0.7092895076 	0.0009838330319 	1.006586953e-06
0.951509464 	0.6995300015 	0.000989609122 	9.223829462e-07
0.9539046688 	0.6898845432 	0.0009884897221 	8.431391704e-07
0.9562108328 	0.6803386782 	0.0009811270779 	7.687251272e-07
0.958431266 	0.6708765134 	0.0009681442537 	6.990043648e-07
0.9605691554 	0.6614806186 	0.0009501339451 	6.33828809e-07
0.9626275696 	0.6521318908 	0.0009276580763 	5.730389363e-07
0.9646094631 	0.6428093723 	0.0009012477591 	5.164672056e-07
0.9665176803 	0.6334900118 	0.0008714035644 	4.63939765e-07
0.9683549604 	0.6241483554 	0.0008385963712 	4.15278937e-07
0.9701239402 	0.6147561527 	0.0008032684001 	3.703057179e-07
0.9718271589 	0.6052818546 	0.0007658345003 	3.288419922e-07
0.973467061 	0.5956899745 	0.0007266836638 	2.90712373e-07
0.9750460004 	0.5859402767 	0.000686180729 	2.557456492e-07
0.9765662434 	0.5759867396 	0.0006446682494 	2.23775847e-07
0.9780299718 	0.565776226 	0.0006024684998 	1.946429235e-07
0.9794392867 	0.5552467676 	0.0005598855611 	1.681931391e-07
0.9807962109 	0.5443253346 	0.0005172075708 	1.44279021e-07
0.9821026919 	0.5329249152 	0.0004747090565 	1.22759146e-07
0.983360605 	0.5209406566 	0.0004326533363 	1.034976343e-07
0.9845717556 	0.5082447308 	0.0003912949036 	8.636331584e-08
0.9857378822 	0.4946794509 	0.0003508804491 	7.122760239e-08
0.9868606585 	0.4800480056 	0.0003116473199 	5.795912704e-08
0.9879416959 	0.4641019987 	0.0002738412941 	4.642935954e-08
0.9889825462 	0.4480065766 	0.0002405622445 	3.726200143e-08
0.9896535912 	0.4335119795 	0.0002143825593 	3.069435545e-08
0.9903246363 	0.4192575177 	0.0001917604486 	2.544265608e-08
0.9909956813 	0.4032774573 	0.0001696161875 	2.067020946e-08
0.9916667263 	0.3851953521 	0.0001480686462 	1.636985573e-08
0.9923377713 	0.3645468352 	0.0001272624386 	1.253268184e-08
0.9930088164 	0.3407855085 	0.0001073458202 	9.146780574e-09
0.9936798614 	0.3133401284 	8.846187199e-05 	6.208394503e-09
0.9943509064 	0.2817819427 	7.074503514e-05 	3.73793814e-09
0.9950219514 	0.2461302842 	5.434444775e-05 	1.790021801e-09
0.9956929965 	0.2071230519 	3.947219385e-05 	4.303589748e-10
0.9963640415 	0.1660709912 	2.642178504e-05 	-3.239257912e-10
0.9970350865 	0.1242617989 	1.555287121e-05 	-5.535013862e-10
0.9977061315 	0.08248394182 	7.309492651e-06 	-4.349879679e-10
0.9983771766 	0.04104010252 	2.099474756e-06 	-1.819597196e-10
0.9990482216 	0.0150875116 	2.160511039e-07 	-3.553788558e-11
0.9990482216 	0.0150875116 	2.160511039e-07 	-3.553788558e-11
