0.4642759628 	1.270332215e-07 	-3.776891798e-10 	5.378341601e-14 	1.268355883e-07 	-7.549868931e-12 	2.417838834e-10
0.4646205696 	3.094004266e-06 	-4.927698655e-08 	5.260928967e-12 	3.093852084e-06 	-1.18490324e-10 	5.897741965e-09
0.4649651795 	2.267462412e-05 	-9.693535324e-07 	8.628789389e-11 	2.274406814e-05 	-6.729343992e-10 	4.335651526e-08
0.4653097919 	8.743739982e-05 	-7.395514638e-06 	5.607092357e-10 	8.812834626e-05 	-1.961567221e-09 	1.67997122e-07
0.4656544066 	0.0002338028403 	-3.301734836e-05 	2.110917326e-09 	0.0002371783284 	-3.434747946e-09 	4.521278143e-07
0.4659990231 	0.0004952976537 	-0.0001029782749 	5.41584724e-09 	0.0005062484389 	-2.94822503e-09 	9.65050229e-07
0.466343641 	0.0008902203233 	-0.0002460812838 	1.031901471e-08 	0.000916892405 	3.05186696e-09 	1.747851761e-06
0.4666882598 	0.001410550338 	-0.0004771277552 	1.544710706e-08 	0.001462751738 	1.782530696e-08 	2.788411363e-06
0.4670328793 	0.002021188125 	-0.0007839611257 	1.900130759e-08 	0.002107318157 	4.22033614e-08 	4.017134105e-06
0.467377499 	0.002672945963 	-0.001133117315 	1.993064534e-08 	0.002797579678 	7.408835613e-08 	5.332964414e-06
0.4677221184 	0.003320066512 	-0.001487882039 	1.827977772e-08 	0.003483607917 	1.098982301e-07 	6.640724909e-06
0.4680667373 	0.003930768082 	-0.001822026584 	1.444994564e-08 	0.004130669369 	1.463287905e-07 	7.874203877e-06
0.4684113551 	0.004488402021 	-0.002122982582 	1.180022973e-08 	0.004720737839 	1.811184989e-07 	8.999038382e-06
0.4687559715 	0.004988592348 	-0.002376714361 	9.657721699e-09 	0.005247911453 	2.125131498e-07 	1.000397781e-05
0.469100586 	0.005433574433 	-0.002588595886 	5.703492511e-09 	0.005715067454 	2.405775008e-07 	1.089450699e-05
0.4694451983 	0.005878178412 	-0.002800259261 	1.117423943e-09 	0.006181477777 	2.692790559e-07 	1.17836147e-05
0.4699797175 	0.00635234074 	-0.003025950689 	-4.29173005e-09 	0.006678425852 	3.007292516e-07 	1.273093585e-05
0.4705348661 	0.006791918334 	-0.003235156267 	-9.73097566e-09 	0.007138580245 	3.297253459e-07 	1.360811801e-05
0.4711114382 	0.007160908698 	-0.003410755152 	-1.44363229e-08 	0.007524225759 	3.534243836e-07 	1.434326555e-05
0.471710258 	0.007468917072 	-0.003557198156 	-1.820915863e-08 	0.007845458624 	3.720832391e-07 	1.495562467e-05
0.4723321814 	0.007724856652 	-0.003678756506 	-2.108868096e-08 	0.008111700669 	3.861616975e-07 	1.546315601e-05
0.4729780965 	0.007936605657 	-0.003779304109 	-2.322381162e-08 	0.008331283665 	3.961679407e-07 	1.588174223e-05
0.4736489253 	0.008110944465 	-0.00386204367 	-2.467812729e-08 	0.00851135196 	4.025806014e-07 	1.622500244e-05
0.4743456245 	0.008253620838 	-0.003929704681 	-2.553633699e-08 	0.008657966335 	4.05865423e-07 	1.650449019e-05
0.4750691873 	0.008369573658 	-0.003984636821 	-2.591322653e-08 	0.008776326881 	4.065274559e-07 	1.673011829e-05
0.4758232128 	0.008462934424 	-0.004028806482 	-2.588750239e-08 	0.008870776759 	4.050202406e-07 	1.691016601e-05
0.4766073048 	0.008537014005 	-0.004063793004 	-2.548134768e-08 	0.008944824175 	4.015256968e-07 	1.705132096e-05
0.4774216409 	0.008594639466 	-0.004090463561 	-2.55784425e-08 	0.009001436553 	3.959714164e-07 	1.715923989e-05
0.4782673867 	0.00863834597 	-0.004106776689 	-2.558940303e-08 	0.009042988349 	3.879070118e-07 	1.723844916e-05
0.4791457528 	0.008669929691 	-0.004115473931 	-2.416973085e-08 	0.009071585368 	3.774074155e-07 	1.729296303e-05
0.4800579964 	0.008690662378 	-0.004120383428 	-2.14677342e-08 	0.009088880525 	3.649781248e-07 	1.73259324e-05
0.4810054229 	0.008701719733 	-0.00412066259 	-1.726082595e-08 	0.009095938431 	3.507798891e-07 	1.733938673e-05
0.4819893884 	0.00870402619 	-0.004116809042 	-1.167440778e-08 	0.009093726919 	3.350585482e-07 	1.733517098e-05
0.4830113008 	0.008698359198 	-0.004109239763 	-4.851309355e-09 	0.009083065375 	3.180618229e-07 	1.731484711e-05
0.4840726223 	0.008685373251 	-0.004098303766 	3.054150838e-09 	0.009064637974 	3.000655196e-07 	1.727971936e-05
0.4851748716 	0.008665608481 	-0.004084289514 	1.189427578e-08 	0.009039022231 	2.813361455e-07 	1.723088864e-05
0.4863200095 	0.008639488317 	-0.004067447553 	2.148971142e-08 	0.009006642994 	2.620794166e-07 	1.716916481e-05
0.4875139858 	0.008607338141 	-0.004047926416 	3.176216271e-08 	0.008967830687 	2.424747106e-07 	1.709517777e-05
0.4887539942 	0.00856946965 	-0.004025878911 	4.255965039e-08 	0.008922925548 	2.227986816e-07 	1.700957609e-05
0.4900418077 	0.008526157206 	-0.00400148608 	5.368660376e-08 	0.008872208231 	2.032740943e-07 	1.691289479e-05
0.4913792676 	0.008477587668 	-0.003974849619 	6.501820205e-08 	0.008815874503 	1.840826996e-07 	1.680550705e-05
0.4927682862 	0.008423899276 	-0.003946048883 	7.643571074e-08 	0.008754065329 	1.653741376e-07 	1.668768158e-05
0.4942108491 	0.008365182608 	-0.003915139417 	8.783045602e-08 	0.00868688138 	1.472870239e-07 	1.65596103e-05
0.4957090187 	0.008301471407 	-0.003882150999 	9.911609928e-08 	0.008614400151 	1.299744768e-07 	1.642144094e-05
0.4972653719 	0.008232750211 	-0.003846860311 	1.101963467e-07 	0.008536490361 	1.134799434e-07 	1.627292322e-05
0.4988875604 	0.008149523141 	-0.003807265928 	1.219051713e-07 	0.008442644215 	9.623081364e-08 	1.609402639e-05
0.5013794199 	0.00804126435 	-0.003755441124 	1.360683159e-07 	0.008321015563 	7.697283151e-08 	1.586216837e-05
0.503927512 	0.007916560625 	-0.003693623611 	1.498451983e-07 	0.008181351288 	5.841152367e-08 	1.559592944e-05
0.5065331083 	0.007784968334 	-0.003629768963 	1.617873533e-07 	0.00803466234 	4.272804296e-08 	1.531629954e-05
0.5092015948 	0.007646626718 	-0.003563491365 	1.714990712e-07 	0.007881000891 	2.975556296e-08 	1.502337811e-05
0.5119357696 	0.007501610533 	-0.003494752716 	1.722202625e-07 	0.00772051309 	1.879307501e-08 	1.471744376e-05
0.5147316281 	0.007350068848 	-0.003423591978 	1.704998746e-07 	0.007553429793 	1.125716184e-08 	1.439893655e-05
0.5175905658 	0.007191985969 	-0.003350011847 	1.665117579e-07 	0.007379774331 	6.611028835e-09 	1.406790098e-05
0.5205191683 	0.007027157298 	-0.0032739273 	1.607250388e-07 	0.007199381216 	4.089647102e-09 	1.372402156e-05
0.5235181563 	0.006855476652 	-0.003195311023 	1.539331764e-07 	0.00701220176 	2.937440914e-09 	1.336720549e-05
0.5265847892 	0.006676933004 	-0.003114213002 	1.47469022e-07 	0.00681828411 	2.279479148e-09 	1.299754456e-05
0.5297205994 	0.006491291405 	-0.003030593849 	1.43639808e-07 	0.006617386133 	7.873902278e-10 	1.261457718e-05
0.5329363737 	0.006298210729 	-0.002944300063 	1.460164094e-07 	0.006409133751 	-2.78517978e-09 	1.221759026e-05
0.5362247396 	0.006097654191 	-0.002855190269 	1.596201316e-07 	0.006193318054 	-7.329917888e-09 	1.180618555e-05
0.5395872721 	0.005889675233 	-0.002762987099 	1.938346388e-07 	0.005969338947 	-8.260678926e-09 	1.137921912e-05
0.5430320892 	0.005674339914 	-0.002664605467 	1.971109426e-07 	0.005736255563 	2.93581624e-09 	1.093489741e-05
0.5465571731 	0.005451783257 	-0.002558152491 	1.701824514e-07 	0.005493995458 	3.136065134e-08 	1.047308232e-05
0.5501617554 	0.005222074411 	-0.002444589943 	1.714396517e-07 	0.005244058391 	6.709268657e-08 	9.996632803e-06
0.5538534827 	0.004985575051 	-0.002322286747 	1.41988656e-07 	0.004988852209 	9.275610949e-08 	9.510138891e-06
0.5576312913 	0.00474363251 	-0.002192921925 	7.996498506e-08 	0.004730720256 	1.019721425e-07 	9.018067643e-06
0.5614942977 	0.004498637663 	-0.002060309763 	3.953949023e-08 	0.004471665086 	9.992680478e-08 	8.524236488e-06
0.565451374 	0.004253153096 	-0.001925339628 	1.496759884e-08 	0.004213623031 	9.355853943e-08 	8.032336613e-06
0.5694990159 	0.004009405118 	-0.001788839483 	5.004791159e-10 	0.003958566322 	8.628464814e-08 	7.546127636e-06
0.573639373 	0.00376919463 	-0.001651517224 	-7.633159321e-09 	0.003708161899 	7.844308604e-08 	7.068787209e-06
0.5778795156 	0.003534115232 	-0.001513894405 	-1.188228071e-08 	0.00346386528 	7.006500403e-08 	6.603089956e-06
0.5822152888 	0.003305795819 	-0.001376502685 	-1.372871837e-08 	0.003227117005 	6.125713604e-08 	6.151781943e-06
0.586653869 	0.003085763574 	-0.001239846468 	-1.395650144e-08 	0.002999254958 	5.197320768e-08 	5.71741355e-06
0.5911949089 	0.00287562683 	-0.001104489521 	-1.298254394e-08 	0.002781686052 	4.205656084e-08 	5.302666745e-06
0.5958405812 	0.002677214184 	-0.0009710663859 	-1.101171582e-08 	0.002576003762 	3.114969572e-08 	4.910579134e-06
0.6005957189 	0.002492695566 	-0.0008402673642 	-8.12110034e-09 	0.002384135282 	1.879932741e-08 	4.544824484e-06
0.6054586727 	0.002324603965 	-0.0007128340444 	-4.354024414e-09 	0.002208330636 	4.641652311e-09 	4.209691965e-06
0.6104371666 	0.002175547929 	-0.0005894618113 	2.676553041e-10 	0.002050911057 	-1.14395628e-08 	3.909606496e-06
0.6155280055 	0.002047831373 	-0.0004707354815 	5.669970197e-09 	0.001913884808 	-2.91979949e-08 	3.648396381e-06
0.6207393231 	0.001942962933 	-0.0003570119323 	1.174815983e-08 	0.001798468132 	-4.809090333e-08 	3.428380117e-06
0.6260685137 	0.001861353403 	-0.0002484118822 	1.833544199e-08 	0.001704687364 	-6.749677754e-08 	3.249607909e-06
0.631522969 	0.001802201731 	-0.0001449816257 	2.538396425e-08 	0.001631098815 	-8.694997724e-08 	3.109327682e-06
0.6371009376 	0.001764238312 	-4.657650854e-05 	3.266615644e-08 	0.001575409653 	-1.072099885e-07 	3.003168661e-06
0.6428096793 	0.001746449162 	4.771710176e-05 	3.996073832e-08 	0.001536519447 	-1.286436124e-07 	2.92903312e-06
0.6486479934 	0.001746724213 	0.0001384821441 	4.722135878e-08 	0.001514073064 	-1.4912702e-07 	2.886244076e-06
0.6546219093 	0.001761719655 	0.0002256784592 	5.431110832e-08 	0.001506247523 	-1.671074775e-07 	2.871326419e-06
0.6607322254 	0.001788501536 	0.0003095570506 	6.115170405e-08 	0.001510673313 	-1.825900162e-07 	2.879763204e-06
0.6669830784 	0.001824933001 	0.000390428172 	6.767121304e-08 	0.001525600369 	-1.957232983e-07 	2.908218322e-06
0.6733775022 	0.001869510667 	0.0004685912318 	7.38233459e-08 	0.001549813803 	-2.066675659e-07 	2.954375856e-06
0.6799177175 	0.001921215294 	0.000544336395 	7.957942966e-08 	0.001582555534 	-2.155406377e-07 	3.016790697e-06
0.6866088061 	0.001979428523 	0.0006179564127 	8.48823003e-08 	0.001623408189 	-2.224059135e-07 	3.094667211e-06
0.693452393 	0.0020438468 	0.0006897474567 	8.960771257e-08 	0.001672232358 	-2.272878445e-07 	3.187739647e-06
0.7004523001 	0.002114439977 	0.0007600111773 	9.344499855e-08 	0.001729119782 	-2.301790859e-07 	3.296182888e-06
0.707612716 	0.002191398299 	0.0008290310091 	9.564074321e-08 	0.001794391975 	-2.309544124e-07 	3.42060983e-06
0.7149362703 	0.002275072605 	0.0008969325507 	9.445942962e-08 	0.001868589588 	-2.294197911e-07 	3.562051103e-06
0.7224267678 	0.00236567853 	0.0009634067855 	8.608709381e-08 	0.001952276816 	-2.247472636e-07 	3.721582218e-06
0.7300885888 	0.002462265159 	0.001028048228 	7.550824638e-08 	0.002044680243 	-2.192924925e-07 	3.897728833e-06
0.7377511119 	0.002562831865 	0.001089141061 	3.869972028e-08 	0.002143738243 	-2.077822713e-07 	4.086560912e-06
0.7452443874 	0.002666648477 	0.00114387936 	-2.964438087e-10 	0.002248271159 	-1.946460178e-07 	4.285829703e-06
0.7525723139 	0.002774813461 	0.001195186974 	-3.112140082e-09 	0.002357412375 	-1.879949594e-07 	4.493883196e-06
0.7597383927 	0.002888154048 	0.001247896579 	3.332685881e-09 	0.002470633134 	-1.811317253e-07 	4.709713431e-06
0.7667459613 	0.003006760403 	0.001302820191 	1.023532132e-08 	0.002588424202 	-1.726984369e-07 	4.934255945e-06
0.7735986742 	0.003130780671 	0.001360159754 	1.762939263e-08 	0.002711382961 	-1.628700735e-07 	5.168649514e-06
0.7802998613 	0.003260473294 	0.001420157493 	2.566025209e-08 	0.00284021828 	-1.511798007e-07 	5.41424544e-06
0.7868527211 	0.003396220237 	0.001483101756 	3.439209771e-08 	0.002975727624 	-1.374395447e-07 	5.672563911e-06
0.7932607211 	0.003538526665 	0.001549292518 	4.374981004e-08 	0.003118649267 	-1.21871509e-07 	5.945012287e-06
0.7995268627 	0.003687937758 	0.001618979346 	5.351310427e-08 	0.003269485044 	-1.051029266e-07 	6.2325472e-06
0.8056543378 	0.003844891874 	0.001692288695 	6.335723326e-08 	0.003428337123 	-8.805770674e-08 	6.535363414e-06
0.8116462168 	0.004009526176 	0.001769160644 	7.292051161e-08 	0.003594824344 	-7.173775234e-08 	6.85273433e-06
0.8175054246 	0.004181514995 	0.001849312031 	8.187727612e-08 	0.003768074388 	-5.705007778e-08 	7.182997066e-06
0.8232349835 	0.004359998696 	0.001932240306 	8.997656075e-08 	0.003946802386 	-4.467392069e-08 	7.523702304e-06
0.8288376497 	0.004543620408 	0.002017265524 	9.7058379e-08 	0.004129449426 	-3.501442831e-08 	7.871878327e-06
0.8343163297 	0.004730652059 	0.002103595651 	1.030352072e-07 	0.004314335885 	-2.822130835e-08 	8.224323305e-06
0.8396736694 	0.004919134519 	0.002190387198 	1.07849795e-07 	0.004499783313 	-2.427241076e-08 	8.577837644e-06
0.8449124274 	0.005106966034 	0.002276769424 	1.114395772e-07 	0.004684132419 	-2.307261304e-08 	8.929258278e-06
0.8500351606 	0.00529210623 	0.002361912923 	1.138685991e-07 	0.004865837925 	-2.423568718e-08 	9.275639476e-06
0.855044492 	0.005473045968 	0.002445215386 	1.154215224e-07 	0.005043801544 	-2.696854332e-08 	9.614887595e-06
0.8599428824 	0.005649032389 	0.002526387264 	1.16380671e-07 	0.005217518354 	-3.05681158e-08 	9.946040116e-06
0.8647328193 	0.005819777284 	0.002605320259 	1.168634074e-07 	0.005386804066 	-3.473438726e-08 	1.026874574e-05
0.8694166801 	0.005985138496 	0.002681951431 	1.169097932e-07 	0.0055515279 	-3.936634758e-08 	1.058275514e-05
0.8739968231 	0.006145011182 	0.002756224199 	1.16550147e-07 	0.005711552323 	-4.438981679e-08 	1.088780617e-05
0.8784755399 	0.006299305249 	0.002828084517 	1.15820668e-07 	0.005866737222 	-4.973165024e-08 	1.118363172e-05
0.8828550712 	0.006447941287 	0.002897483486 	1.147600688e-07 	0.006016954422 	-5.530528078e-08 	1.146998746e-05
0.8871376202 	0.006590855874 	0.00296438159 	1.13413714e-07 	0.006162099786 	-6.101382835e-08 	1.174667486e-05
0.8913253234 	0.006728008754 	0.003028752037 	1.118284374e-07 	0.006302100054 	-6.675232386e-08 	1.201355428e-05
0.8954202865 	0.006859386268 	0.003090582923 	1.100525124e-07 	0.006436919296 	-7.240607094e-08 	1.227055723e-05
0.8994245586 	0.006985005508 	0.003149877261 	1.081352531e-07 	0.006566554099 	-7.786483651e-08 	1.251767719e-05
0.9033401454 	0.007104911719 	0.003206652272 	1.061240963e-07 	0.006691034236 	-8.301346596e-08 	1.275497093e-05
0.907169014 	0.007219176678 	0.003260937693 	1.040669496e-07 	0.006810416635 	-8.774041089e-08 	1.298254696e-05
0.9109130792 	0.007327895882 	0.003312773752 	1.020111901e-07 	0.006924779377 	-9.193886053e-08 	1.320055414e-05
0.9145742191 	0.007431183406 	0.003362209549 	1.000043632e-07 	0.007034220755 	-9.549642134e-08 	1.340917982e-05
0.91815427 	0.007529170517 	0.003409301396 	9.809627813e-08 	0.007138852672 	-9.830342067e-08 	1.360863733e-05
0.921655025 	0.007622002657 	0.003454111736 	9.633844171e-08 	0.007238799462 	-1.002454278e-07 	1.379916369e-05
0.9250782395 	0.007709836878 	0.003496708493 	9.478435946e-08 	0.007334198072 	-1.011988557e-07 	1.398101996e-05
0.9284256303 	0.007792841743 	0.003537164349 	9.348863935e-08 	0.00742519422 	-1.010421885e-07 	1.415448391e-05
0.9316988747 	0.007871194358 	0.00357555597 	9.250292279e-08 	0.007511942418 	-9.965507605e-08 	1.431985009e-05
0.9348996142 	0.007945075566 	0.003611962554 	9.166480709e-08 	0.007594604669 	-9.670396744e-08 	1.447742731e-05
0.9380294537 	0.008014663408 	0.00364646296 	8.963063426e-08 	0.007673343739 	-9.072960318e-08 	1.462752586e-05
0.9410899623 	0.008080121034 	0.003679131076 	8.804639998e-08 	0.00774831504 	-8.353942524e-08 	1.4770442e-05
0.9440826745 	0.008141579553 	0.003710029023 	8.686617876e-08 	0.007819654735 	-7.519784315e-08 	1.490643529e-05
0.9470090913 	0.008199119192 	0.00373919799 	8.602564627e-08 	0.007887458813 	-6.58560667e-08 	1.50356887e-05
0.94987068 	0.008252749687 	0.003766647001 	8.545457873e-08 	0.007951754648 	-5.577149709e-08 	1.515825443e-05
0.9526688757 	0.008302389191 	0.003792340138 	8.509095157e-08 	0.008012468861 	-4.528903249e-08 	1.52739926e-05
0.9554050816 	0.008347838034 	0.003816182421 	8.488133364e-08 	0.008069395519 	-3.478426019e-08 	1.538251063e-05
0.9580806702 	0.008388742502 	0.003838003956 	8.476224988e-08 	0.008122163214 	-2.449869783e-08 	1.548310052e-05
0.9606969832 	0.008424547976 	0.003857542614 	8.464875294e-08 	0.00817019862 	-1.43279286e-08 	1.557466936e-05
0.9632553331 	0.008452240855 	0.003871953807 	9.652784104e-08 	0.008209451764 	-5.053108024e-09 	1.564949676e-05
0.9649206848 	0.008470579502 	0.003881541014 	1.065945423e-07 	0.008237520649 	3.147408626e-09 	1.570300386e-05
0.966524145 	0.008483222188 	0.00388945601 	1.060086474e-07 	0.008258906783 	1.095352151e-08 	1.574377177e-05
0.9680680133 	0.008492257838 	0.003895711738 	1.082763516e-07 	0.008276593961 	1.856841921e-08 	1.577748845e-05
0.9695545036 	0.008497519412 	0.003900160729 	1.096422713e-07 	0.008290379238 	2.574702362e-08 	1.580376702e-05
0.9709857481 	0.008498799708 	0.003902735685 	1.100830909e-07 	0.008300075699 	3.231451895e-08 	1.582225117e-05
0.9723637994 	0.008495869256 	0.003903351899 	1.09584567e-07 	0.008305464338 	3.815424412e-08 	1.583252341e-05
0.973690634 	0.00848847114 	0.003901905707 	1.081398684e-07 	0.008306291046 	4.316088275e-08 	1.583409935e-05
0.9749681551 	0.008476313923 	0.003898272883 	1.057457775e-07 	0.008302266393 	4.725191068e-08 	1.582642724e-05
0.976198195 	0.00845906614 	0.003892306494 	1.023989105e-07 	0.008293060934 	5.037363059e-08 	1.580887908e-05
0.9773825181 	0.0084363506 	0.003883834178 	9.809392416e-08 	0.008278299053 	5.249742584e-08 	1.578073883e-05
0.9785228233 	0.00840773835 	0.003872655183 	9.283924767e-08 	0.008257551723 	5.35979276e-08 	1.574118865e-05
0.9796207461 	0.0083727441 	0.003858595179 	8.860075016e-08 	0.008230324836 	5.358892886e-08 	1.568928664e-05
0.9806778617 	0.008330814488 	0.003841411692 	8.226111181e-08 	0.008196044301 	5.234173234e-08 	1.562393841e-05
0.9816956864 	0.008281297597 	0.003820712424 	6.900335344e-08 	0.008154037621 	4.964346715e-08 	1.5543862e-05
0.9826756803 	0.008223383616 	0.003795798411 	5.814558555e-08 	0.008103505121 	4.525431536e-08 	1.544753301e-05
0.9836192493 	0.008156070738 	0.00376621332 	5.26368274e-08 	0.008043476809 	3.913753992e-08 	1.533310237e-05
0.9845277471 	0.008078151968 	0.003731678909 	4.630004392e-08 	0.007972770701 	3.130716041e-08 	1.519831687e-05
0.985402477 	0.007988185949 	0.003691527004 	3.91778815e-08 	0.007889955167 	2.173753074e-08 	1.504044745e-05
0.986244694 	0.007884461384 	0.003644959636 	3.13538577e-08 	0.007793309877 	1.052131103e-08 	1.485621466e-05
0.9870556063 	0.007764943465 	0.003591026632 	2.293856967e-08 	0.007680783054 	-2.135989778e-09 	1.464170726e-05
0.9878363774 	0.007627210082 	0.003528597131 	1.406576329e-08 	0.007549932775 	-1.596165747e-08 	1.439227026e-05
0.9885881274 	0.007468376863 	0.003456325205 	4.8934012e-09 	0.007397853538 	-3.062853653e-08 	1.410236497e-05
0.989311935 	0.007285012539 	0.003372610927 	-4.392693971e-09 	0.007221092053 	-4.575063427e-08 	1.376540845e-05
0.9900088385 	0.007073050246 	0.00327556009 	-1.357407453e-08 	0.007015558801 	-6.087264297e-08 	1.337360495e-05
0.990679838 	0.006827707958 	0.003162949953 	-2.239555751e-08 	0.006776448762 	-7.545791586e-08 	1.291779476e-05
0.9913258962 	0.006543443045 	0.003032191928 	-3.053405108e-08 	0.006498196344 	-8.887699372e-08 	1.238736831e-05
0.99194794 	0.006213989148 	0.002880332425 	-3.766039191e-08 	0.00617451225 	-1.004069463e-07 	1.177033647e-05
0.992546862 	0.005832561288 	0.00270423015 	-4.340664558e-08 	0.005798588999 	-1.092471624e-07 	1.105372227e-05
0.9931235216 	0.005392313809 	0.002500729304 	-4.736491361e-08 	0.005363565954 	-1.145781281e-07 	1.022444743e-05
0.9936787461 	0.004930691822 	0.002287136596 	-4.920526885e-08 	0.004906498187 	-1.158964358e-07 	9.353149236e-06
0.9940367052 	0.004507125096 	0.002084285288 	-5.90950079e-08 	0.004486519859 	-1.149563413e-07 	8.552553815e-06
0.9943946651 	0.004089728501 	0.001873385108 	-6.678975732e-08 	0.004072241979 	-1.129175311e-07 	7.762825033e-06
0.9947526259 	0.003627931056 	0.001634527323 	-6.355183942e-08 	0.003613477313 	-1.086981426e-07 	6.888292073e-06
0.9951105875 	0.003124146317 	0.001369938682 	-5.9576957e-08 	0.003112593585 	-1.016568834e-07 	5.933468474e-06
0.99546855 	0.002587714956 	0.001086205514 	-5.332516879e-08 	0.002578870882 	-9.163997655e-08 	4.916044662e-06
0.9958265133 	0.002037896261 	0.0007984343531 	-4.485212485e-08 	0.002031487545 	-7.878670722e-08 	3.872579883e-06
0.9961844775 	0.001504902322 	0.0005304617906 	-3.45858075e-08 	0.001500565622 	-6.367488356e-08 	2.860495136e-06
0.9965424425 	0.001025700951 	0.0003091981176 	-2.362110411e-08 	0.00102299909 	-4.747824417e-08 	1.950120593e-06
0.9969004084 	0.0006335469972 	0.0001529095681 	-1.369749118e-08 	0.0006320192475 	-3.193932837e-08 	1.204804346e-06
0.9972583751 	0.0003462296153 	6.165912324e-05 	-6.427228463e-09 	0.0003454593087 	-1.889078297e-08 	6.585414578e-07
0.9976163427 	0.0001611266205 	1.917940429e-05 	-2.300585498e-09 	0.0001607909418 	-9.494907661e-09 	3.065122246e-07
0.9979743111 	5.953747956e-05 	4.191126743e-06 	-5.745044138e-10 	5.941907898e-05 	-3.829063553e-09 	1.132692792e-07
0.9983322804 	1.52452414e-05 	5.365155474e-07 	-8.46700671e-11 	1.521574983e-05 	-1.104608215e-09 	2.900544818e-08
0.9986902506 	2.042296974e-06 	2.640044644e-08 	-5.002682506e-12 	2.038397071e-06 	-1.783910019e-10 	3.88575136e-09
0.9990482216 	9.729548034e-08 	2.292169164e-10 	-5.705898026e-14 	9.711030513e-08 	-1.172217069e-11 	1.85119232e-10
0.9990482216 	9.729548034e-08 	2.292169164e-10 	-5.705898026e-14 	9.711030513e-08 	-1.172217069e-11 	1.85119232e-10
