0 	0.068574095 	-4.6572034e-15 	-1.6927702e-21
0.010869565 	0.076215297 	-0.0079893473 	4.247179e-07
0.02173913 	0.085340024 	-0.015942101 	1.5243462e-07
0.032608696 	0.099631945 	-0.023859496 	1.8949518e-05
0.043478261 	0.12263199 	-0.031698184 	1.1501073e-06
0.054347826 	0.14731812 	-0.039486779 	5.7916702e-05
0.065217391 	0.18287657 	-0.047645904 	3.2629426e-05
0.076086957 	0.21813393 	-0.054925327 	5.0877507e-05
0.086956522 	0.26183146 	-0.06255769 	2.9903545e-06
0.097826087 	0.30951665 	-0.070035481 	8.9313959e-06
0.10869565 	0.36159668 	-0.077510846 	8.9938899e-06
0.11956522 	0.42105365 	-0.085073654 	5.2720686e-06
0.13043478 	0.48603135 	-0.092335682 	1.8133859e-05
0.14130435 	0.55504937 	-0.099671123 	2.4086467e-05
0.15217391 	0.6340159 	-0.10663645 	3.0720816e-05
0.16304348 	0.71586509 	-0.11356819 	1.2904899e-05
0.17391304 	0.8056992 	-0.12016277 	3.5634176e-05
0.18478261 	0.89902745 	-0.12669314 	1.7114192e-05
0.19565217 	0.99965389 	-0.13269962 	4.4592398e-05
0.20652174 	1.1033532 	-0.13876129 	6.6951313e-06
0.2173913 	1.2124586 	-0.14395903 	7.0278509e-05
0.22826087 	1.323701 	-0.14931366 	0.00011542211
0.23913043 	1.436614 	-0.15360359 	0.00010429709
0.25 	1.5493492 	-0.1577165 	3.0446581e-05
0.26086957 	1.6631046 	-0.16129464 	4.6166629e-05
0.27173913 	1.7709148 	-0.16391168 	6.6405315e-05
0.2826087 	1.8790641 	-0.16638851 	0.00020628083
0.29347826 	1.977748 	-0.16756403 	0.00013664618
0.30434783 	2.0713519 	-0.16837811 	2.5653924e-05
0.31521739 	2.1600493 	-0.1684351 	0.00014809336
0.32608696 	2.2364062 	-0.16759345 	0.00020040245
0.33695652 	2.3061485 	-0.16640063 	0.00013439806
0.34782609 	2.3685968 	-0.16434917 	0.00017792784
0.35869565 	2.4206152 	-0.16182139 	0.00019351142
0.36956522 	2.4639093 	-0.15900132 	0.00012574781
0.38043478 	2.4996115 	-0.15545207 	0.0002766166
0.39130435 	2.53055 	-0.1516449 	8.9734573e-05
0.40217391 	2.5526241 	-0.14796448 	3.1100178e-05
0.41304348 	2.5675033 	-0.14368028 	0.00039970759
0.42391304 	2.5805763 	-0.1391419 	9.2850261e-05
0.43478261 	2.5898545 	-0.13508962 	0.00010890032
0.44565217 	2.5950119 	-0.13104804 	0.00019199403
0.45652174 	2.5983416 	-0.12686865 	0.00028069991
0.4673913 	2.6009349 	-0.1226352 	2.5221424e-05
0.47826087 	2.6024327 	-0.11910068 	1.1169416e-05
0.48913043 	2.6030438 	-0.11553889 	0.00022404871
0.5 	2.6031654 	-0.11187444 	0.00022977703
0.51086957 	2.6028395 	-0.10811372 	1.1444979e-05
0.52173913 	2.6023752 	-0.10499343 	3.1600123e-05
0.5326087 	2.6019007 	-0.10186382 	0.00022971767
0.54347826 	2.6008789 	-0.098541323 	0.00017640324
0.55434783 	2.5995243 	-0.095179541 	2.4879917e-05
0.56521739 	2.5980906 	-0.092343345 	8.9820468e-05
0.57608696 	2.5966559 	-0.089492987 	0.00026706114
0.58695652 	2.5943532 	-0.086400384 	8.0843245e-05
0.59782609 	2.5920245 	-0.083589862 	9.132333e-06
0.60869565 	2.5897236 	-0.080954372 	0.00017780457
0.61956522 	2.5868456 	-0.078191757 	0.00012932297
0.63043478 	2.5836323 	-0.075466608 	2.6595999e-05
0.64130435 	2.5804877 	-0.07301685 	0.00013129632
0.65217391 	2.5769011 	-0.070478919 	0.00013530364
0.66304348 	2.572817 	-0.067919478 	2.6450384e-05
0.67391304 	2.568815 	-0.065607508 	0.00012146376
0.68478261 	2.5642931 	-0.063208602 	0.00010838698
0.69565217 	2.5592923 	-0.060842556 	1.8274466e-06
0.70652174 	2.554338 	-0.058631949 	0.00014094474
0.7173913 	2.5485425 	-0.056325644 	5.5126396e-05
0.72826087 	2.5424421 	-0.054145402 	4.7360115e-05
0.73913043 	2.5360494 	-0.051998431 	0.00012485907
0.75 	2.5286982 	-0.049800885 	1.4089833e-05
0.76086957 	2.5209635 	-0.04775049 	0.00011616929
0.77173913 	2.5121614 	-0.045611077 	2.6896666e-05
0.7826087 	2.5023547 	-0.043582145 	7.3330946e-05
0.79347826 	2.4913955 	-0.041505736 	4.9735937e-05
0.80434783 	2.478631 	-0.039471645 	5.2083267e-05
0.81521739 	2.4640234 	-0.037407152 	5.2281958e-05
0.82608696 	2.4464859 	-0.035349771 	4.9330625e-05
0.83695652 	2.4259048 	-0.0332388 	3.729001e-05
0.84782609 	2.4003126 	-0.031115167 	6.2520629e-05
0.85869565 	2.3703832 	-0.02889002 	7.0594105e-06
0.86956522 	2.3315967 	-0.026639036 	8.6943402e-05
0.88043478 	2.2852543 	-0.024242292 	1.4832199e-05
0.89130435 	2.2274859 	-0.021738 	2.9434386e-05
0.90217391 	2.1572393 	-0.019169692 	6.4630573e-05
0.91304348 	2.0728054 	-0.016418029 	1.7573695e-05
0.92391304 	1.9722524 	-0.013497671 	3.0662574e-06
0.93478261 	1.856713 	-0.010694064 	1.7417001e-05
0.94565217 	1.7153808 	-0.0077320004 	1.3350075e-06
0.95652174 	1.5609818 	-0.0051593308 	3.1903455e-05
0.9673913 	1.3778151 	-0.0028110287 	9.795373e-06
0.97826087 	1.1574025 	-0.0010082242 	1.4027791e-05
0.98913043 	0.82263783 	4.6319197e-05 	5.0362143e-06
