1.640171e-35 	0.014269912 	-9.6913979e-16 	-3.5225666e-22 	6.5819321e-29 	2.9989407e-35 	4.2782796e-34
0.010869565 	0.014147889 	-0.0010890132 	-6.9724288e-09 	0.01684085 	-1.8485728e-05 	0.011437983
0.02173913 	0.013828241 	-0.0022676178 	-1.1443568e-07 	0.017811766 	-2.2948633e-05 	0.010680657
0.032608696 	0.013384641 	-0.0034415376 	2.4533137e-09 	0.019351043 	-2.0276128e-08 	0.0099788356
0.043478261 	0.012912015 	-0.0045999982 	3.0863153e-08 	0.021308324 	-1.8573809e-05 	0.0095141959
0.054347826 	0.012476594 	-0.0057512335 	4.9000872e-07 	0.023550983 	-2.9124676e-06 	0.0040268775
0.065217391 	0.012100909 	-0.0069443013 	5.8076206e-07 	0.026100699 	-3.1320314e-06 	0.0033247538
0.076086957 	0.011859611 	-0.0079530313 	3.5367132e-07 	0.028361546 	-1.7307611e-06 	0.0049194346
0.086956522 	0.011678953 	-0.0089965403 	1.0236607e-06 	0.030764054 	-1.6418974e-05 	0.00717952
0.097826087 	0.011551205 	-0.010001726 	2.1080764e-06 	0.033099642 	-2.0866266e-05 	0.006607569
0.10869565 	0.011456982 	-0.010966783 	4.5861672e-07 	0.035339528 	-1.9066854e-06 	0.002637073
0.11956522 	0.011376646 	-0.011844168 	2.7137226e-06 	0.037353096 	-1.866295e-05 	0.0048784057
0.13043478 	0.011284076 	-0.012651168 	5.9165305e-06 	0.039159289 	-3.1091662e-05 	0.0040677688
0.14130435 	0.011171857 	-0.013391817 	3.6191034e-07 	0.040769342 	-1.9018568e-06 	0.0030220322
0.15217391 	0.010988538 	-0.013966015 	1.5466037e-05 	0.041898205 	-6.6718268e-05 	0.0021081745
0.16304348 	0.010779217 	-0.014488047 	1.9319265e-06 	0.042875996 	-7.2107421e-06 	0.0011093687
0.17391304 	0.010446678 	-0.014759902 	2.1839919e-05 	0.043145781 	-8.1515538e-05 	0.00014328023
0.18478261 	0.01008962 	-0.014974017 	6.6340342e-06 	0.043262766 	-2.2213832e-05 	0.00096569194
0.19565217 	0.0096002139 	-0.014885891 	3.0834406e-05 	0.042560194 	-0.00010324793 	0.0018498759
0.20652174 	0.0090881645 	-0.014740334 	1.4710281e-06 	0.041704303 	-4.5237322e-06 	0.0025150669
0.2173913 	0.0084511377 	-0.014190333 	4.9081978e-05 	0.039819547 	-0.00015093779 	0.0032597622
0.22826087 	0.0078043068 	-0.013608931 	3.395922e-08 	0.037850318 	-2.2000417e-07 	0.0017256007
0.23913043 	0.0071081722 	-0.012666774 	5.0850021e-05 	0.035031923 	-0.00014670975 	0.0039731514
0.25 	0.0064101972 	-0.011671832 	1.2461346e-05 	0.032091006 	-3.5952806e-05 	0.0045429381
0.26086957 	0.005733744 	-0.01050924 	1.8837915e-05 	0.028785635 	-5.2198107e-05 	0.0038579563
0.27173913 	0.0051140793 	-0.0093078323 	4.3156955e-05 	0.025442283 	-0.0001195839 	0.0042432105
0.2826087 	0.0045152922 	-0.0080806096 	-4.4175555e-07 	0.022045936 	8.7179234e-07 	0.00021765778
0.29347826 	0.0040638528 	-0.0069933343 	3.5393978e-05 	0.019099329 	-9.5870595e-05 	0.0033908016
0.30434783 	0.0036534364 	-0.0059445752 	1.4134971e-05 	0.016264394 	-3.8286968e-05 	0.0036218782
0.31521739 	0.0033389454 	-0.0050129386 	-1.5121771e-07 	0.013763012 	2.7283284e-07 	0.0014571563
0.32608696 	0.0031798668 	-0.0042835373 	2.8668859e-05 	0.011847106 	-7.5651539e-05 	0.0026650873
0.33695652 	0.0030528798 	-0.0035861067 	2.454801e-06 	0.010024573 	-6.4777419e-06 	0.0027974903
0.34782609 	0.0030647002 	-0.0030604087 	-5.1862649e-08 	0.0086937607 	3.5352305e-08 	0.0012470406
0.35869565 	0.0031819194 	-0.002625336 	1.5819196e-05 	0.0076885197 	-3.690951e-05 	0.0022351132
0.36956522 	0.0033369647 	-0.0022087767 	1.8081757e-06 	0.0067632497 	-4.218854e-06 	0.0023192077
0.38043478 	0.0036147953 	-0.001870949 	3.6170246e-08 	0.0061476881 	-1.8570815e-07 	0.00067727935
0.39130435 	0.0038897535 	-0.001565714 	6.8431001e-06 	0.0056919826 	-1.0138433e-05 	0.0022645137
0.40217391 	0.0041706787 	-0.0012630896 	4.7097624e-06 	0.0053370724 	-6.9777745e-06 	0.0023301676
0.41304348 	0.0044586893 	-0.0009652291 	1.0167711e-07 	0.0051176795 	-3.2851941e-07 	0.00038028654
0.42391304 	0.0047282795 	-0.00069198238 	7.3268586e-09 	0.0049837355 	-2.3673129e-08 	0.0024338245
0.43478261 	0.0049276267 	-0.00044786997 	8.6274171e-06 	0.0049538496 	-5.0300156e-06 	0.0026447298
0.44565217 	0.0051078912 	-0.00021107516 	1.7799355e-08 	0.004953459 	-9.3152465e-08 	0.0021070565
0.45652174 	0.0052265059 	-1.4516873e-06 	6.1438629e-08 	0.0050453836 	-3.2153748e-07 	0.0007568274
0.4673913 	0.0053300153 	0.00018985733 	1.3928686e-06 	0.0051426887 	-6.5723585e-08 	0.0030238006
0.47826087 	0.0054020486 	0.00035761889 	3.5903617e-06 	0.0052546356 	-1.69414e-07 	0.0030737949
0.48913043 	0.0054552319 	0.0005109935 	1.9332251e-08 	0.0053759176 	-2.0774096e-07 	0.0017297712
0.5 	0.0054871205 	0.00064757176 	2.8180263e-08 	0.0055106241 	-3.0282013e-07 	0.0011997446
0.51086957 	0.005512906 	0.00077781652 	1.1699789e-06 	0.0056463517 	6.6134676e-08 	0.0033855001
0.52173913 	0.0055238353 	0.00089428966 	1.4007965e-06 	0.0057718994 	7.9181961e-08 	0.0034266583
0.5326087 	0.0055216131 	0.00099756752 	2.7232287e-08 	0.0058874412 	-2.7784564e-07 	0.0014168338
0.54347826 	0.0055122587 	0.0010971138 	2.3816802e-08 	0.0060072217 	-2.4299812e-07 	0.0017615176
0.55434783 	0.0054969135 	0.0011941819 	1.2805759e-06 	0.0061270871 	-1.9991392e-07 	0.0036421306
0.56521739 	0.0054739405 	0.00128437 	9.7986994e-10 	0.0062359477 	-9.0393665e-09 	0.0035989524
0.57608696 	0.0054390287 	0.0013627526 	4.4578628e-08 	0.0063250747 	-4.1124086e-07 	0.00026018537
0.58695652 	0.0054018979 	0.0014461765 	6.2471888e-09 	0.0064315999 	-5.7630739e-08 	0.0032942562
0.59782609 	0.0053566912 	0.0015232803 	8.1761676e-07 	0.0065255305 	-4.5022312e-07 	0.0038092324
0.60869565 	0.0053048918 	0.0015945611 	2.0811541e-08 	0.0066064027 	-2.3300798e-07 	0.0016273533
0.61956522 	0.005247632 	0.0016658728 	1.6393279e-08 	0.0066914956 	-1.835407e-07 	0.0021251411
0.63043478 	0.0051848451 	0.001736751 	9.2832473e-07 	0.006778015 	-8.8150514e-07 	0.0038890104
0.64130435 	0.0051158123 	0.0018030321 	6.8265564e-09 	0.0068517526 	-1.50087e-07 	0.0023228257
0.65217391 	0.0050405819 	0.0018686379 	9.7100321e-09 	0.0069251897 	-2.1348239e-07 	0.0016653558
0.66304348 	0.0049594141 	0.0019362768 	6.7838709e-07 	0.007006822 	-7.7545899e-07 	0.0039279918
0.67391304 	0.0048714353 	0.0020008845 	-3.69068e-10 	0.0070774274 	-1.4328654e-07 	0.0022273191
0.68478261 	0.0047764132 	0.0020667046 	-4.1045566e-10 	0.0071519989 	-1.5935483e-07 	0.0020331577
0.69565217 	0.0046741337 	0.0021356442 	5.8685793e-07 	0.0072362834 	-5.1415496e-07 	0.0039377719
0.70652174 	0.0045639009 	0.0022042093 	-5.3698687e-09 	0.0073137983 	-1.8369976e-07 	0.0012427426
0.7173913 	0.0044452826 	0.0022777435 	-1.1753143e-09 	0.0074076984 	-4.0206748e-08 	0.0033368417
0.72826087 	0.0043184103 	0.002356219 	5.5385895e-09 	0.007512434 	-8.6861137e-10 	0.0039321097
0.73913043 	0.004180997 	0.0024395902 	2.3791826e-09 	0.007623734 	-1.3435187e-07 	0.00079107976
0.75 	0.0040341914 	0.002533175 	1.0046868e-06 	0.007767774 	6.9931397e-07 	0.0039240413
0.76086957 	0.0038803367 	0.0026368217 	2.6247262e-08 	0.0079320858 	-7.4162961e-09 	0.0011812577
0.77173913 	0.0037154083 	0.0027523061 	8.8201689e-08 	0.0081323444 	1.2530384e-07 	0.003950938
0.7826087 	0.0035491186 	0.0028906036 	3.7349902e-08 	0.0083922735 	8.2878721e-08 	0.0025189532
0.79347826 	0.0033755768 	0.003047021 	2.4241741e-08 	0.0087034397 	5.3791962e-08 	0.0030993029
0.80434783 	0.003212047 	0.0032361328 	4.0906199e-08 	0.0091083993 	1.1315283e-07 	0.0032626737
0.81521739 	0.0030561713 	0.0034591053 	6.5460332e-08 	0.009609904 	1.8107333e-07 	0.0029473494
0.82608696 	0.0029323366 	0.00373057 	8.1041847e-08 	0.010253801 	2.362013e-07 	0.0033432482
0.83695652 	0.0028422135 	0.004054583 	6.5404623e-08 	0.011051596 	1.9062568e-07 	0.0038924766
0.84782609 	0.0028274568 	0.0044540862 	2.6208447e-07 	0.012069564 	7.765868e-07 	0.0025244618
0.85869565 	0.0028721064 	0.0049246414 	2.3136863e-06 	0.013301275 	6.1239473e-06 	0.0054639109
0.86956522 	0.0030320469 	0.0054784775 	6.8285766e-07 	0.014773807 	2.069218e-06 	0.0001922542
0.88043478 	0.0032676635 	0.0061046732 	1.8102277e-06 	0.016482927 	4.968174e-06 	0.0064604842
0.89130435 	0.00360867 	0.0067676291 	1.2407348e-07 	0.018322194 	4.0358879e-07 	0.0061163467
0.90217391 	0.0040053889 	0.007365003 	1.8667075e-07 	0.020025158 	9.1002631e-07 	0.0012888885
0.91304348 	0.0044304324 	0.0078909924 	5.1866524e-08 	0.021596744 	1.6308984e-07 	0.0086088362
0.92391304 	0.0048146572 	0.0081860586 	8.6102554e-08 	0.022581368 	1.0797147e-06 	0.009250088
0.93478261 	0.0050746622 	0.008170212 	-1.5062167e-07 	0.022744216 	-3.3436713e-07 	0.0081119498
0.94565217 	0.0051798783 	0.007819602 	-2.9070993e-06 	0.022001881 	-7.1253321e-06 	0.009137385
0.95652174 	0.0050213972 	0.0071167783 	-1.5784196e-06 	0.020204395 	-4.1690474e-06 	0.0012096615
0.9673913 	0.0045237047 	0.0060809715 	-2.5810906e-07 	0.017401773 	-7.2243909e-07 	0.0062715864
0.97826087 	0.0035541697 	0.0047482155 	-8.794916e-07 	0.013606423 	-2.6028682e-06 	0.00088645695
0.98913043 	0.001806251 	0.0026145494 	-2.4551262e-07 	0.0073106016 	-7.6382435e-07 	0.00049194501
