0.31958763 	1.1604094 	0.22352193 	-0.00028007107
0.32989691 	2.8121967 	0.53208401 	-0.001519839
0.34020619 	2.8370779 	0.51649576 	-0.00020063922
0.35051546 	2.8308317 	0.49636897 	-5.6622055e-05
0.36082474 	2.8242249 	0.47660116 	-0.00010205009
0.37113402 	2.818187 	0.45891029 	-0.00034077847
0.3814433 	2.8117653 	0.44148046 	-0.00040246174
0.39175258 	2.80516 	0.42484071 	-0.00050047348
0.40206186 	2.7983623 	0.40896543 	-0.00048017198
0.41237113 	2.7913834 	0.39383597 	-0.0002664253
0.42268041 	2.7842007 	0.37935102 	-4.0619624e-05
0.43298969 	2.7768947 	0.36530869 	-5.1850037e-05
0.44329897 	2.7693829 	0.35217408 	-0.00027210634
0.45360825 	2.76156 	0.33953567 	-1.651877e-05
0.46391753 	2.7532821 	0.32684701 	-0.00026356478
0.4742268 	2.7453982 	0.31544978 	-0.00021933721
0.48453608 	2.736389 	0.30364602 	-0.00035288235
0.49484536 	2.7282408 	0.29307501 	-3.4974113e-05
0.50515464 	2.7188812 	0.28225632 	-0.00028049203
0.51546392 	2.7100762 	0.2722511 	-0.0001343731
0.5257732 	2.7005647 	0.26218956 	-0.00028835131
0.53608247 	2.6915244 	0.2529763 	-0.00012424919
0.54639175 	2.6817101 	0.24335064 	-0.00029096619
0.55670103 	2.6727125 	0.23508585 	-1.0324702e-05
0.56701031 	2.6624883 	0.22560028 	-0.00030632346
0.57731959 	2.6535362 	0.21803999 	-1.3193643e-05
0.58762887 	2.6435113 	0.20962503 	-0.00013289167
0.59793814 	2.633897 	0.20181802 	-0.00011145436
0.60824742 	2.6243555 	0.19461053 	-3.0889649e-05
0.6185567 	2.6141115 	0.1865413 	-0.00016958332
0.62886598 	2.6047297 	0.17991116 	-2.2486427e-05
0.63917526 	2.5948915 	0.17313939 	-1.5998074e-05
0.64948454 	2.5848756 	0.16599082 	-0.00013019647
0.65979381 	2.5750066 	0.15978294 	-3.528045e-05
0.67010309 	2.5649758 	0.15345968 	-2.9176177e-05
0.68041237 	2.5549288 	0.14710499 	-8.200405e-05
0.69072165 	2.544438 	0.14117086 	-0.00012425522
0.70103093 	2.5341402 	0.13512499 	-5.5957068e-05
0.71134021 	2.5235719 	0.12935621 	-2.6135146e-05
0.72164948 	2.5127583 	0.12374662 	-4.3230233e-07
0.73195876 	2.5022264 	0.11803838 	-6.6496042e-05
0.74226804 	2.4910076 	0.11276791 	-0.0001023026
0.75257732 	2.4800785 	0.10734702 	-5.8648811e-05
0.7628866 	2.4685053 	0.10231436 	-2.1119693e-05
0.77319588 	2.4569903 	0.097138399 	-3.860453e-05
0.78350515 	2.4449536 	0.092212276 	-4.0728297e-06
0.79381443 	2.4328459 	0.087202275 	-3.2725946e-05
0.80412371 	2.4201879 	0.08240422 	-2.4562632e-06
0.81443299 	2.4074945 	0.077535798 	-3.745559e-05
0.82474227 	2.3940347 	0.072938092 	-2.8309458e-05
0.83505155 	2.3806584 	0.068184959 	-4.2973284e-05
0.84536082 	2.3662369 	0.063724958 	-4.8056829e-06
0.8556701 	2.3516355 	0.059184313 	-1.5046662e-05
0.86597938 	2.3364788 	0.054683753 	-3.1461178e-05
0.87628866 	2.3202327 	0.050352461 	-3.5605576e-06
0.88659794 	2.303399 	0.045977522 	-8.304406e-06
0.89690722 	2.2856282 	0.041614864 	-2.5875826e-05
0.90721649 	2.2663334 	0.037341696 	-2.244871e-05
0.91752577 	2.2452112 	0.033113853 	-1.1778072e-05
0.92783505 	2.2217402 	0.028895708 	-5.7202911e-06
0.93814433 	2.1946667 	0.024646951 	-3.5025623e-06
0.94845361 	2.1622014 	0.020531253 	-4.4678072e-06
0.95876289 	2.1174654 	0.016185119 	-1.8110392e-05
0.96907216 	2.0502682 	0.01184307 	-1.31854e-05
0.97938144 	1.9306707 	0.0072720702 	-2.4058788e-06
0.98969072 	1.6175838 	0.0022863551 	-5.7371611e-06
