0.34020619 	0.0051991237 	-0.0074822034 	4.0888208e-06 	0.013219658 	-4.1141854e-06 	0.0063683627
0.35051546 	0.0054914429 	-0.0017768894 	-1.0690262e-05 	0.0076317672 	-8.6723393e-06 	0.00062841984
0.36082474 	0.0068586422 	0.00023098919 	-2.0843757e-06 	0.010262866 	-1.6706929e-05 	0.0012171357
0.37113402 	0.0069890536 	0.00050178761 	5.3823571e-11 	0.012593875 	-1.7565606e-09 	0.0031900431
0.3814433 	0.0069620849 	0.00054105448 	2.2468966e-07 	0.014263048 	-1.9268706e-06 	0.0020563064
0.39175258 	0.0068857727 	0.00053986395 	9.2254561e-07 	0.015307789 	-4.7595855e-06 	0.00050032822
0.40206186 	0.0068685885 	0.0005406983 	8.5938454e-07 	0.01587563 	-3.2598216e-06 	0.00012082303
0.41237113 	0.0068662882 	0.00054953803 	5.1130631e-07 	0.016314805 	-1.6156263e-06 	0.00012256645
0.42268041 	0.0068558427 	0.0005617894 	-3.7736956e-08 	0.016727922 	1.1871769e-07 	0.00029976931
0.43298969 	0.0068276081 	0.00057117932 	-1.5371325e-07 	0.017131083 	2.097689e-07 	0.00028455897
0.44329897 	0.0067834146 	0.00058113756 	-2.7838128e-07 	0.017540048 	3.2744559e-07 	0.00083115048
0.45360825 	0.0067239317 	0.00059291209 	-1.2848727e-07 	0.017953413 	2.0346402e-07 	0.0014023206
0.46391753 	0.0066477564 	0.00060401885 	1.3117736e-06 	0.018362317 	-2.1284562e-06 	0.00026013795
0.4742268 	0.0065626344 	0.00062071006 	-6.9444851e-08 	0.018792528 	1.8372247e-07 	0.0024974525
0.48453608 	0.0064620572 	0.00064111216 	-3.2880004e-08 	0.019222326 	1.6505524e-07 	0.0031257611
0.49484536 	0.0063520169 	0.00065760754 	2.3033605e-06 	0.019639532 	-2.6112415e-06 	0.00093367654
0.50515464 	0.0062419158 	0.00068498243 	-1.7243367e-08 	0.020082146 	3.4960411e-07 	0.0042476596
0.51546392 	0.0061227655 	0.00070659418 	3.254672e-06 	0.020496672 	-3.1731392e-06 	0.0011068045
0.5257732 	0.0060102969 	0.00073768558 	1.0135492e-08 	0.020937717 	8.0426228e-08 	0.0053681616
0.53608247 	0.0058922906 	0.00076224326 	3.6576566e-06 	0.021344259 	-3.1495554e-06 	0.001872217
0.54639175 	0.0057810432 	0.00079646532 	4.2641371e-09 	0.021777149 	5.0846914e-09 	0.0064824898
0.55670103 	0.0056647815 	0.00082108831 	5.0855861e-06 	0.022167963 	-3.9749788e-06 	0.0014195545
0.56701031 	0.0055555363 	0.0008613782 	3.5132443e-08 	0.022596424 	-1.5346287e-08 	0.0075884151
0.57731959 	0.0054364213 	0.00088620167 	6.975609e-06 	0.02297062 	-5.1025454e-06 	0.00034185375
0.58762887 	0.0053267201 	0.0009327767 	1.0604574e-06 	0.023390207 	-7.7570747e-07 	0.0074627764
0.59793814 	0.0052047366 	0.00096743523 	5.0742476e-06 	0.023765101 	-3.6055771e-06 	0.0033478134
0.60824742 	0.0050855664 	0.0010117845 	4.5169807e-06 	0.024151513 	-3.2096034e-06 	0.0044625832
0.6185567 	0.0049652779 	0.0010622761 	1.846787e-06 	0.024538802 	-1.3366552e-06 	0.0076996387
0.62886598 	0.0048308898 	0.0011047053 	8.1665863e-06 	0.024880848 	-5.9107574e-06 	0.00015127468
0.63917526 	0.0047090494 	0.0011675398 	1.9435089e-06 	0.025264053 	-1.40666e-06 	0.007740169
0.64948454 	0.0045763001 	0.0012257264 	3.4278553e-06 	0.0255935 	-2.6583984e-06 	0.0057552206
0.65979381 	0.004437939 	0.0012867903 	6.3394242e-06 	0.025907974 	-4.9164021e-06 	0.0021406567
0.67010309 	0.0043046518 	0.0013643339 	1.8555465e-07 	0.026268572 	-1.4390286e-07 	0.010199629
0.68041237 	0.0041642555 	0.0014318185 	4.5768073e-06 	0.026523241 	-3.9636709e-06 	0.0041321373
0.69072165 	0.0040218898 	0.0015113472 	4.3675707e-06 	0.026804855 	-3.7824649e-06 	0.0046061804
0.70103093 	0.0038799128 	0.0015999838 	5.851664e-07 	0.027096192 	-5.8140035e-07 	0.0099762752
0.71134021 	0.0037340208 	0.0016757441 	6.6308272e-06 	0.027273357 	-6.5881521e-06 	0.0007636213
0.72164948 	0.0035913974 	0.001774695 	1.2086674e-06 	0.027526555 	-1.2008886e-06 	0.0094229966
0.73195876 	0.0034396862 	0.0018725534 	3.6552503e-06 	0.027672592 	-4.2453468e-06 	0.0050401964
0.74226804 	0.0032869514 	0.0019816477 	3.3363254e-06 	0.027817052 	-3.8749353e-06 	0.0058322459
0.75257732 	0.0031705493 	0.0021018942 	1.7180617e-06 	0.027894882 	-2.4824388e-06 	0.0083941213
0.7628866 	0.0031000383 	0.0022307396 	4.2978304e-06 	0.027836081 	-6.2099641e-06 	0.0033188411
0.77319588 	0.0030854885 	0.0023705597 	7.6300244e-07 	0.02774533 	-1.4358885e-06 	0.010445819
0.78350515 	0.0033061978 	0.0025119467 	4.0755781e-06 	0.027274665 	-7.6697993e-06 	0.0022521016
0.79381443 	0.003508258 	0.002659225 	5.9532181e-07 	0.026864415 	-1.453763e-06 	0.010835486
0.80412371 	0.0037211319 	0.0027881662 	3.0070624e-06 	0.026304155 	-7.3431814e-06 	0.0029628411
0.81443299 	0.0039133079 	0.0029172979 	8.8532997e-07 	0.025780623 	-2.8142364e-06 	0.0092220401
0.82474227 	0.0041036161 	0.0030302574 	1.6766989e-06 	0.025151634 	-5.3297948e-06 	0.005725549
0.83505155 	0.0042693333 	0.0031315447 	1.2338244e-06 	0.024504994 	-5.2647044e-06 	0.0053629043
0.84536082 	0.0044095336 	0.0032199225 	3.177912e-07 	0.023842472 	-1.3560088e-06 	0.010722633
0.8556701 	0.0045311004 	0.003290649 	1.2670028e-06 	0.023067993 	-7.643845e-06 	0.0010228874
0.86597938 	0.0046183008 	0.0033533094 	3.1859498e-07 	0.02230769 	-2.9443726e-06 	0.0075182731
0.87628866 	0.0046817709 	0.0034003426 	1.0580278e-07 	0.02147515 	-9.7780203e-07 	0.010012518
0.88659794 	0.0047186178 	0.0034323199 	3.0891203e-07 	0.020547698 	-5.1906721e-06 	0.0031013276
0.89690722 	0.0047210894 	0.003453001 	9.6062636e-08 	0.019580774 	-5.170665e-06 	0.0025309335
0.90721649 	0.0046852806 	0.0034622286 	-3.3843972e-08 	0.018557554 	-2.083251e-06 	0.0066743165
0.91752577 	0.0046089915 	0.003462151 	-9.5087352e-09 	0.017458469 	-3.1040535e-07 	0.0092937345
0.92783505 	0.0044755383 	0.0034501587 	-1.2555091e-07 	0.016282106 	-3.7529601e-06 	0.0085702807
0.93814433 	0.0042763047 	0.003440039 	-6.8591499e-08 	0.015032894 	-2.3076378e-06 	0.0078354074
0.94845361 	0.0039642194 	0.0034335784 	-2.4878116e-07 	0.013761005 	-4.8944292e-06 	0.0070924482
0.95876289 	0.0036240205 	0.0033655532 	-4.6160232e-07 	0.012340506 	-2.5174525e-06 	0.0023503176
0.96907216 	0.0030949219 	0.0033193555 	-3.6578352e-07 	0.011052876 	-1.508046e-06 	0.0033661702
0.97938144 	0.0025101048 	0.0032423518 	-2.9413224e-07 	0.0099400036 	-1.1480423e-06 	0.0031479057
0.98969072 	0.0016549148 	0.0027271759 	-1.7451366e-07 	0.0077115333 	-7.7425795e-07 	0.0016195902
