0.4742268 	0.0014718534 	-0.0016955903 	5.3739974e-08 	0.0048726345 	-1.5055543e-07 	0.00091826236
0.48453608 	0.0049858686 	-0.0084162121 	9.8682003e-09 	0.02321577 	-2.8371247e-08 	0.0047686232
0.49484536 	0.0033899847 	-0.0056583881 	1.5270019e-05 	0.015481223 	-4.1399012e-05 	0.0032351997
0.50515464 	0.0033280371 	-0.0031151916 	7.477109e-07 	0.0090527561 	-1.7484519e-06 	0.0021795638
0.51546392 	0.0048156408 	-0.0018541703 	3.6494402e-06 	0.0070997219 	-2.9585215e-06 	0.0020358157
0.5257732 	0.006217159 	-0.00077298909 	1.0228205e-05 	0.0066713921 	-7.096181e-07 	0.0021712005
0.53608247 	0.0070088356 	7.709754e-05 	3.8350934e-06 	0.0070298411 	1.9336985e-06 	0.0023411257
0.54639175 	0.007414674 	0.00079449824 	1.1604706e-06 	0.0077577539 	1.0922277e-06 	0.0025133906
0.55670103 	0.007612034 	0.0014219458 	8.5125408e-07 	0.0086261999 	1.0565823e-06 	0.002690562
0.56701031 	0.0076894216 	0.0019806513 	2.166796e-06 	0.0095443751 	3.1912077e-06 	0.0028688905
0.57731959 	0.0076993861 	0.0024818356 	4.5353004e-06 	0.010461828 	7.488802e-06 	0.0030470681
0.58762887 	0.0076724517 	0.0029330983 	5.8656388e-06 	0.011352075 	1.0505237e-05 	0.0032233484
0.59793814 	0.0076265054 	0.0033408698 	1.4442792e-06 	0.012201949 	2.7422729e-06 	0.0033958973
0.60824742 	0.0075711661 	0.0037064672 	-5.1170106e-07 	0.012995263 	-1.1758534e-06 	0.00014324621
0.6185567 	0.0075169589 	0.0040270959 	1.8235002e-06 	0.013728585 	3.6080447e-06 	0.0035638934
0.62886598 	0.0074669916 	0.004312971 	2.8257481e-06 	0.014397246 	5.736119e-06 	0.003721876
0.63917526 	0.0074222534 	0.0045693879 	-3.8982961e-07 	0.015006933 	-9.3531284e-07 	0.0010432935
0.64948454 	0.0073877184 	0.0047872926 	1.6470701e-06 	0.015547972 	3.3645215e-06 	0.0038694673
0.65979381 	0.0073601832 	0.0049798007 	5.7519002e-07 	0.016031066 	1.136458e-06 	0.0040010785
0.67010309 	0.0073404942 	0.0051446416 	-2.1790171e-09 	0.016453439 	-5.4231457e-09 	0.0039851151
0.68041237 	0.0073295715 	0.0052776458 	6.576461e-07 	0.016803042 	1.0380542e-06 	0.0041145564
0.69072165 	0.0073230293 	0.0053924766 	-2.5019944e-07 	0.017106409 	-6.352842e-07 	0.002080974
0.70103093 	0.0073226444 	0.0054783675 	-1.394883e-07 	0.017345942 	-1.0507881e-06 	0.0042041924
0.71134021 	0.0073244746 	0.0055484712 	-2.6073686e-07 	0.017539325 	-6.7701601e-07 	0.0019563098
0.72164948 	0.0073282557 	0.0055928051 	-1.0042756e-06 	0.017673622 	-3.2288843e-06 	0.0042643201
0.73195876 	0.0073322783 	0.0056237032 	-8.5036097e-08 	0.01776807 	-2.2635516e-07 	0.0034851707
0.74226804 	0.0073336483 	0.0056316874 	-1.2372078e-06 	0.017803447 	-3.6935605e-06 	0.0042871511
0.75257732 	0.0073334586 	0.0056272394 	-2.5739967e-07 	0.017803819 	-7.6844104e-07 	0.0042871518
0.7628866 	0.0073264536 	0.005603122 	-1.114516e-06 	0.017748737 	-3.2763814e-06 	0.0042710322
0.77319588 	0.0073148668 	0.005565945 	-4.5484533e-07 	0.017656597 	-1.3371246e-06 	0.0042708565
0.78350515 	0.0072926713 	0.0055122643 	-1.5088966e-06 	0.01751498 	-4.4498564e-06 	0.0042220719
0.79381443 	0.0072634973 	0.005447133 	-2.3355644e-08 	0.017338947 	-6.707289e-08 	0.0039728053
0.80412371 	0.0072184077 	0.0053654123 	-2.8144601e-06 	0.017111251 	-8.3802337e-06 	0.0041458877
0.81443299 	0.0071642878 	0.0052734901 	-3.240874e-07 	0.016845788 	-9.5257935e-07 	0.00056395685
0.82474227 	0.007090784 	0.0051683431 	-2.9199751e-06 	0.016546265 	-8.8097562e-06 	0.0040471327
0.83505155 	0.0070034643 	0.0050532203 	-6.4195078e-07 	0.016207166 	-1.9681503e-06 	0.0039304654
0.84536082 	0.0068966496 	0.0049258949 	-9.730259e-08 	0.015823446 	-2.995031e-07 	0.002781492
0.8556701 	0.0067648153 	0.0047877221 	-3.0939888e-06 	0.015400425 	-9.6690092e-06 	0.0037979247
0.86597938 	0.0066119391 	0.0046415339 	-1.609663e-06 	0.01494211 	-5.1492189e-06 	0.0036540133
0.87628866 	0.0064329412 	0.0044870999 	-1.7603619e-07 	0.014442842 	-5.7364217e-07 	0.0013230554
0.88659794 	0.0062201709 	0.0043269533 	-6.2796066e-08 	0.013913205 	-2.1335756e-07 	0.0026242939
0.89690722 	0.0059684752 	0.0041646934 	-1.0477205e-06 	0.013351664 	-3.5935752e-06 	0.0033394102
0.90721649 	0.0056717843 	0.004006693 	-1.7856518e-06 	0.012769004 	-6.505401e-06 	0.003174972
0.91752577 	0.0053176383 	0.0038631773 	-1.7283548e-06 	0.012185324 	-6.895631e-06 	0.0030096932
0.92783505 	0.0048867935 	0.0037527804 	-1.000078e-06 	0.011638767 	-4.8703067e-06 	0.0028473361
0.93814433 	0.0043526948 	0.0037127646 	-1.4054875e-07 	0.011209293 	-1.2646636e-06 	0.0026967869
0.94845361 	0.0037208096 	0.0037989423 	1.8973861e-07 	0.011067092 	3.0871729e-07 	0.00047611061
0.95876289 	0.0031228542 	0.004158869 	1.9787652e-06 	0.011674274 	4.3695985e-06 	0.0025448332
0.96907216 	0.0030300527 	0.0049683348 	4.4141722e-07 	0.013679376 	1.1868988e-06 	0.0011270384
0.97938144 	0.0036312845 	0.0062429697 	1.595987e-06 	0.017180079 	4.5540068e-06 	0.0035430676
0.98969072 	0.0036100837 	0.0061978258 	-3.1360507e-06 	0.017144876 	-8.8620784e-06 	0.003657557
