4.1667976e-36 	0.020207666 	-1.3724018e-15 	-4.9883172e-22 	9.3206713e-29 	3.7819235e-35 	2.7983948e-34
0.010869565 	0.019867968 	-0.00081666948 	5.6872069e-08 	0.041331705 	-1.9807148e-05 	0.036702436
0.02173913 	0.019160724 	-0.0016941496 	-1.2420669e-07 	0.042972719 	-6.7404037e-06 	0.033825987
0.032608696 	0.018551356 	-0.0025323151 	1.829983e-07 	0.044960204 	1.815746e-05 	0.016387315
0.043478261 	0.017964479 	-0.0033677112 	-1.4080959e-08 	0.047534647 	-2.9445904e-05 	0.02858064
0.054347826 	0.017555474 	-0.004293926 	-1.2926281e-06 	0.050186034 	2.2587704e-05 	0.00058014471
0.065217391 	0.01741904 	-0.0051746487 	-1.0148391e-06 	0.052876042 	7.6382581e-06 	0.013253248
0.076086957 	0.017173159 	-0.0061404277 	-2.1181409e-06 	0.055774661 	8.0972086e-06 	0.0038888991
0.086956522 	0.017313992 	-0.0070645363 	-1.0758725e-06 	0.058262138 	-2.225251e-05 	0.018126958
0.097826087 	0.017265881 	-0.0082560399 	-6.1875054e-06 	0.061291856 	-6.3745551e-05 	0.015668609
0.10869565 	0.01708388 	-0.0096193902 	6.0314374e-09 	0.064715541 	-1.9194102e-07 	0.0128731
0.11956522 	0.016808496 	-0.010945692 	-2.4072911e-06 	0.068215886 	-2.265095e-05 	0.01026209
0.13043478 	0.016620628 	-0.012262624 	-1.8451613e-06 	0.071440782 	-8.2364827e-05 	0.0077736296
0.14130435 	0.016403792 	-0.013309049 	-5.9718355e-07 	0.074366274 	-3.916998e-06 	0.0012812801
0.15217391 	0.01651365 	-0.014038946 	8.7854771e-06 	0.076244869 	-0.00010924112 	0.0022348134
0.16304348 	0.016617516 	-0.01455553 	4.736079e-06 	0.077834102 	-4.2105828e-05 	0.00087748967
0.17391304 	0.016758177 	-0.014895827 	1.0761707e-05 	0.07887906 	-9.5676315e-05 	0.0035852221
0.18478261 	0.016882697 	-0.015334386 	1.6890825e-06 	0.079835972 	-3.9232808e-05 	0.0063708482
0.19565217 	0.016644736 	-0.01593367 	3.6340493e-06 	0.080604849 	-8.4409116e-05 	0.0089343263
0.20652174 	0.016145921 	-0.01701256 	2.1836732e-07 	0.081857083 	-1.4510045e-05 	0.011675391
0.2173913 	0.015182348 	-0.01780154 	1.7348415e-06 	0.081754795 	-0.00011527653 	0.014073585
0.22826087 	0.013492199 	-0.019379754 	1.8383372e-05 	0.082467538 	-5.0775769e-05 	0.0044832796
0.23913043 	0.012477835 	-0.019330794 	2.4053812e-05 	0.079950045 	-0.00020902628 	0.017765452
0.25 	0.011049855 	-0.019629205 	1.1061376e-05 	0.077298567 	-3.0690002e-05 	0.013120369
0.26086957 	0.0098656768 	-0.019181286 	1.6840059e-05 	0.072886659 	-8.7313151e-05 	0.018581094
0.27173913 	0.0088693752 	-0.018368138 	1.8852667e-05 	0.067530405 	-9.7748214e-05 	0.020163067
0.2826087 	0.0080876035 	-0.017459844 	2.4822158e-05 	0.061215509 	-6.9686556e-05 	0.0050807936
0.29347826 	0.0074800607 	-0.015956596 	4.7044399e-05 	0.054730519 	-0.0002000797 	0.017612602
0.30434783 	0.0068620587 	-0.014578243 	7.0137503e-06 	0.048275111 	-1.9350303e-05 	0.014540706
0.31521739 	0.0063840545 	-0.013016091 	1.41554e-05 	0.041498154 	-3.905347e-05 	0.0076769361
0.32608696 	0.0058592718 	-0.011477269 	4.8090545e-05 	0.035604671 	-0.00018040779 	0.013936227
0.33695652 	0.0053658156 	-0.010097483 	1.093473e-05 	0.030144103 	-2.9979725e-05 	0.0078998114
0.34782609 	0.0048789554 	-0.0086762656 	1.1317089e-05 	0.024964949 	-3.1028039e-05 	0.0049830125
0.35869565 	0.0044390126 	-0.0074159112 	3.0078675e-05 	0.020610313 	-0.00010302358 	0.0094546827
0.36956522 	0.0040806323 	-0.0064351726 	5.5620755e-06 	0.017095764 	-1.5724982e-05 	0.0057668629
0.38043478 	0.0037508018 	-0.0055321193 	9.2396086e-06 	0.013997805 	-2.6122026e-05 	0.0020001485
0.39130435 	0.0034755811 	-0.004656035 	6.0806999e-06 	0.011179117 	-2.0364077e-05 	0.0060324833
0.40217391 	0.0034324569 	-0.0041317761 	9.7140868e-07 	0.0092663767 	-3.4325886e-06 	0.0050262763
0.41304348 	0.0034975001 	-0.003781629 	5.1839126e-06 	0.0078224039 	-1.8317974e-05 	0.00010408811
0.42391304 	0.0035593074 	-0.0033545894 	1.4142965e-06 	0.0063972359 	-4.9975856e-06 	0.003511949
0.43478261 	0.00383355 	-0.0029816423 	3.6660086e-06 	0.0051970433 	-1.05598e-05 	0.0048501838
0.44565217 	0.004447686 	-0.0026881852 	2.039055e-06 	0.0043163091 	-5.9549844e-06 	0.0020728996
0.45652174 	0.0050906693 	-0.002378829 	2.6363504e-06 	0.0034778598 	-7.6993637e-06 	0.0014918527
0.4673913 	0.0056969306 	-0.0020296167 	4.3413306e-07 	0.0026320632 	-1.2678695e-06 	0.0050898332
0.47826087 	0.0062516008 	-0.001529461 	1.7659961e-07 	0.0021339093 	-3.2537759e-07 	0.0054225759
0.48913043 	0.0067496518 	-0.00082779236 	1.6769811e-06 	0.0019953822 	-3.0897694e-06 	0.0017147207
0.5 	0.0072199278 	-8.8032095e-05 	1.6175904e-06 	0.001847827 	-2.9803444e-06 	0.0022760189
0.51086957 	0.0076664041 	0.00068436827 	2.2165679e-07 	0.0016925356 	-4.083936e-07 	0.0064954839
0.52173913 	0.0079617555 	0.0011676329 	-5.587103e-07 	0.0017299435 	-2.9767884e-07 	0.0058055893
0.5326087 	0.0081609908 	0.0014683003 	-2.2869751e-06 	0.0018922189 	-1.2184921e-06 	0.0014698813
0.54347826 	0.0083364224 	0.0018263952 	-1.7155553e-06 	0.0020759755 	-9.1404174e-07 	0.0032353081
0.55434783 	0.0084986049 	0.0022108222 	1.3988425e-07 	0.0022710141 	1.3188662e-07 	0.0080329408
0.56521739 	0.0085652128 	0.0023412342 	-2.5063548e-06 	0.0025006711 	-8.8849892e-07 	0.0047993985
0.57608696 	0.0086131305 	0.0024268102 	-6.035018e-06 	0.0027403974 	-2.1394046e-06 	0.00021973958
0.58695652 	0.0086638063 	0.0025486771 	-2.0987478e-06 	0.0029957168 	-7.4400284e-07 	0.0054756913
0.59782609 	0.0086727136 	0.0026461352 	-8.581004e-07 	0.0032578 	-1.2301871e-07 	0.0071992527
0.60869565 	0.0086076043 	0.0026956537 	-5.0717009e-06 	0.0035259027 	-7.2708751e-07 	0.001835009
0.61956522 	0.0085674207 	0.0027552987 	-3.6380071e-06 	0.0037905574 	-5.2155077e-07 	0.0036245926
0.63043478 	0.0085316983 	0.0028236168 	4.8243521e-08 	0.0040512802 	2.2542797e-07 	0.0082172035
0.64130435 	0.0084096549 	0.0029132427 	-3.6145706e-06 	0.0042926739 	-8.3306695e-07 	0.0027937294
0.65217391 	0.0083161048 	0.0030102485 	-3.5276336e-06 	0.004525128 	-8.1303015e-07 	0.002880149
0.66304348 	0.008247195 	0.0031135667 	1.0891439e-07 	0.0047491058 	3.5971335e-07 	0.0080968094
0.67391304 	0.0080765261 	0.003190574 	-3.4351761e-06 	0.0049817974 	-1.1001598e-06 	0.0026099565
0.68478261 	0.0079444793 	0.0032786826 	-2.9555097e-06 	0.0052000644 	-9.4654042e-07 	0.0033025787
0.69565217 	0.0078264253 	0.0033693465 	-3.8190818e-07 	0.0054091283 	-1.5883076e-07 	0.0072566229
0.70652174 	0.007610987 	0.0034204633 	-3.8400137e-06 	0.0056336455 	-1.5970129e-06 	0.0012176628
0.7173913 	0.0074628339 	0.003497625 	-1.6242538e-06 	0.0058334042 	-6.7550651e-07 	0.0049465387
0.72826087 	0.0072709961 	0.0035520748 	-1.4181961e-06 	0.0060392401 	-7.0000481e-07 	0.0048234745
0.73913043 	0.0070405283 	0.0035871313 	-3.0410834e-06 	0.0062502918 	-1.5010427e-06 	0.0014766579
0.75 	0.0068722098 	0.0036554421 	-2.4271565e-09 	0.0064401473 	7.2694831e-08 	0.007460176
0.76086957 	0.0065910646 	0.0036641597 	-2.4987402e-06 	0.0066610602 	-1.3340706e-06 	0.0011084834
0.77173913 	0.006376371 	0.0037193984 	-7.0588001e-07 	0.0068647495 	-3.7686742e-07 	0.0054757854
0.7826087 	0.0060955915 	0.0037437507 	-1.2598304e-06 	0.0070985862 	-6.315683e-07 	0.0027438299
0.79347826 	0.0058237163 	0.0037896006 	-8.5952357e-07 	0.0073416087 	-4.3088962e-07 	0.0040331216
0.80434783 	0.0055284917 	0.0038371426 	-5.6060295e-07 	0.0076185551 	-1.3103712e-07 	0.0034729803
0.81521739 	0.0052175698 	0.0038987802 	-5.3310029e-07 	0.0079313754 	-1.2460857e-07 	0.0035641231
0.82608696 	0.004903922 	0.0039821934 	-9.9278036e-08 	0.0082999355 	3.6818387e-07 	0.0032932206
0.83695652 	0.0045846045 	0.004093848 	-7.4562519e-08 	0.008731569 	2.7652357e-07 	0.0041602513
0.84782609 	0.0042841732 	0.0042364174 	4.904551e-07 	0.0092639367 	1.3123831e-06 	0.0021579111
0.85869565 	0.004005901 	0.0044369684 	9.649497e-08 	0.0098853739 	2.5820583e-07 	0.0060593343
0.86956522 	0.0037982049 	0.0046731076 	1.5797567e-06 	0.010684574 	3.3219213e-06 	0.00019768883
0.88043478 	0.003651572 	0.0050083531 	6.6807457e-07 	0.011638855 	1.3709381e-06 	0.0055354702
0.89130435 	0.0036118184 	0.00541057 	1.0471193e-06 	0.012820096 	2.1487657e-06 	0.0049166894
0.90217391 	0.0036777657 	0.0059035897 	3.3145903e-06 	0.014240761 	6.9356361e-06 	0.0006588741
0.91304348 	0.0038426477 	0.0065174997 	1.6063157e-06 	0.015925863 	3.427509e-06 	0.0061997714
0.92391304 	0.0041286212 	0.0072107367 	5.385402e-07 	0.01785725 	1.1491212e-06 	0.0096304591
0.93478261 	0.0045411909 	0.0079176712 	1.8518206e-06 	0.019887616 	4.0231874e-06 	0.0077849662
0.94565217 	0.0049758978 	0.0086905232 	1.9371115e-07 	0.022109905 	4.1808355e-07 	0.012482245
0.95652174 	0.0053378328 	0.0089859759 	1.8682067e-06 	0.023282203 	3.6448702e-06 	0.0008272401
0.9673913 	0.0054158631 	0.0087036085 	-1.8343663e-07 	0.022944608 	-9.7218008e-07 	0.0075311369
0.97826087 	0.0048438167 	0.0074226605 	-1.0076959e-06 	0.019991595 	-3.4982227e-06 	0.00090277566
0.98913043 	0.0029012827 	0.0045034802 	-1.1351517e-06 	0.012247644 	-3.0493954e-06 	0.0010537138
