0.21649485 	0.00056185846 	-0.00043451141 	-1.827875e-05 	0.00071541879 	2.3357092e-05 	0.00016441808
0.22680412 	0.0067068995 	-0.00064987315 	7.2318667e-08 	0.010291462 	9.1378739e-08 	0.0032711172
0.2371134 	0.0064256852 	-0.00062634531 	-1.2944028e-06 	0.013907826 	5.1825725e-06 	0.0019886308
0.24742268 	0.0067806367 	-0.00071426442 	-7.07155e-08 	0.014305707 	-1.1905749e-07 	0.0013165233
0.25773196 	0.0069068553 	-0.00076282274 	-5.3587435e-07 	0.014327167 	-3.4727419e-06 	0.00071198
0.26804124 	0.0069548191 	-0.00082373465 	-1.2252714e-07 	0.014379752 	-7.1315045e-07 	0.0001392627
0.27835052 	0.0069750957 	-0.00087870612 	4.8632578e-07 	0.014468748 	-8.8278751e-07 	0.00032568202
0.28865979 	0.0070014481 	-0.00093623472 	1.8570162e-06 	0.014587146 	-2.7816187e-06 	0.00046693389
0.29896907 	0.0070354707 	-0.00098444001 	-6.8246089e-08 	0.014754925 	-3.3880998e-07 	0.001595133
0.30927835 	0.0070734876 	-0.0010369247 	-5.3870767e-07 	0.014944756 	-2.3970649e-06 	0.0021670112
0.31958763 	0.0071126912 	-0.0010867741 	-3.2347009e-07 	0.015159604 	-1.3206262e-06 	0.0027555441
0.32989691 	0.0071678534 	-0.0011583391 	8.115716e-06 	0.015348769 	-6.5852239e-06 	0.0010648136
0.34020619 	0.0072158907 	-0.0012079682 	6.7494423e-06 	0.015603849 	-4.307388e-06 	0.0020618522
0.35051546 	0.0072480147 	-0.001244313 	3.8046905e-07 	0.015906144 	-2.4280937e-07 	0.0044008301
0.36082474 	0.0073194921 	-0.0013317607 	1.5050479e-05 	0.016110471 	-7.2874152e-06 	0.00077037253
0.37113402 	0.0073434712 	-0.0013666202 	4.3488879e-06 	0.016449865 	-1.5070052e-06 	0.0035395653
0.3814433 	0.0073894303 	-0.0014342714 	6.625609e-06 	0.016730608 	-2.2959496e-06 	0.0025525587
0.39175258 	0.0074167233 	-0.0014916839 	6.1614541e-06 	0.017045092 	-1.3804794e-06 	0.0023455162
0.40206186 	0.0074321343 	-0.0015457855 	9.0465793e-07 	0.017389199 	-2.0268943e-07 	0.0035017022
0.41237113 	0.0074427355 	-0.001609801 	4.8482991e-06 	0.017710078 	-5.7370878e-07 	0.0020421131
0.42268041 	0.0074330517 	-0.0016652099 	-2.1593555e-07 	0.018078887 	-2.8064055e-07 	0.0030801847
0.43298969 	0.0074040942 	-0.0017179122 	3.508161e-07 	0.018444152 	-1.2570769e-08 	0.0025895909
0.44329897 	0.0073771649 	-0.0017808294 	-1.8889278e-07 	0.018815463 	-1.8744273e-07 	0.0024313692
0.45360825 	0.0073181548 	-0.001828783 	-5.9100324e-07 	0.019205133 	-5.8646638e-07 	0.0020623808
0.46391753 	0.0072632104 	-0.0018861556 	8.527654e-07 	0.019593543 	1.1510589e-08 	0.0015784641
0.4742268 	0.0071737457 	-0.0019252714 	-1.0521952e-06 	0.020005809 	-7.8295229e-07 	0.0014731487
0.48453608 	0.0070902635 	-0.0019686688 	1.360262e-06 	0.020408698 	3.0662713e-08 	0.00080150256
0.49484536 	0.0069776192 	-0.0020008159 	-3.6055404e-07 	0.020838148 	-1.3385967e-07 	0.00090593273
0.50515464 	0.0068617417 	-0.0020280563 	-3.1347994e-07 	0.02126336 	-1.1638289e-07 	0.00061067741
0.51546392 	0.0067384804 	-0.0020522519 	1.1101695e-07 	0.021693664 	9.7401848e-08 	0.00035146369
0.5257732 	0.0065920857 	-0.0020590442 	6.9288368e-07 	0.022134384 	6.0790852e-07 	0.00010053306
0.53608247 	0.0064469642 	-0.0020669856 	2.5953051e-07 	0.022576526 	2.2770172e-07 	0.00024698096
0.54639175 	0.0062862721 	-0.0020590153 	8.5863527e-07 	0.023023469 	4.3066704e-07 	0.00051495485
0.55670103 	0.0061051939 	-0.0020343617 	2.852184e-06 	0.023479694 	1.4305744e-06 	0.00072915021
0.56701031 	0.0059241157 	-0.0020097081 	7.2072472e-07 	0.023935918 	3.6149503e-07 	0.00094334556
0.57731959 	0.0057315042 	-0.0019628597 	1.3030288e-06 	0.024384063 	2.8123596e-07 	0.0012106465
0.58762887 	0.0055142518 	-0.0018917859 	5.4910827e-06 	0.02483792 	1.185154e-06 	0.0013670312
0.59793814 	0.0052969993 	-0.0018207122 	1.8084887e-06 	0.025291776 	3.9033063e-07 	0.0015234158
0.60824742 	0.005083718 	-0.0017382453 	2.7734659e-07 	0.025729072 	-1.5250756e-08 	0.0017904076
0.6185567 	0.0048449695 	-0.001605816 	7.1293537e-06 	0.026154951 	-3.9202946e-07 	0.0018858961
0.62886598 	0.0046062209 	-0.0014733868 	3.821801e-06 	0.02658083 	-2.1015349e-07 	0.0019813847
0.63917526 	0.0043725053 	-0.0013440577 	2.3734669e-06 	0.026985205 	-1.702276e-06 	0.00097774537
0.64948454 	0.0042010052 	-0.001127876 	8.8837103e-06 	0.027287854 	-5.7392016e-06 	0.0022586619
0.65979381 	0.0040412009 	-0.00090408865 	5.6320609e-06 	0.02756487 	-3.6385172e-06 	0.0022954088
0.67010309 	0.0038620725 	-0.00069772522 	1.4567022e-06 	0.02784569 	-1.0148812e-06 	0.0013396492
0.68041237 	0.0038248904 	-0.0004162018 	1.1768687e-05 	0.027937617 	-1.5057993e-05 	0.0024548176
0.69072165 	0.0038325962 	-0.00011822635 	4.4707808e-06 	0.027968812 	-5.7203483e-06 	0.0024381552
0.70103093 	0.0038984759 	0.00017816725 	1.6237128e-06 	0.027909633 	-2.8670129e-06 	0.0025483575
0.71134021 	0.0040164371 	0.00049194955 	1.2692443e-05 	0.027766608 	-2.2411229e-05 	0.0024842861
0.72164948 	0.0041372645 	0.00080565838 	9.8284288e-08 	0.027617784 	1.0042069e-07 	0.0021164061
0.73195876 	0.0042834224 	0.0010957389 	6.9207158e-06 	0.02739455 	-1.5342795e-05 	0.0024290714
0.74226804 	0.0044267264 	0.0013866212 	4.9606741e-06 	0.027165726 	-1.0997505e-05 	0.0023244532
0.75257732 	0.0045802162 	0.0016618023 	1.8840552e-06 	0.026892848 	-5.352869e-06 	0.0022725305
0.7628866 	0.0047219941 	0.0019180195 	7.1046809e-06 	0.026594807 	-2.0185409e-05 	0.002134746
0.77319588 	0.0048695857 	0.0021674569 	1.0824264e-08 	0.026272627 	4.0821961e-08 	0.0015038466
0.78350515 	0.0049955565 	0.0023877384 	6.9920858e-06 	0.025909206 	-2.6098241e-05 	0.0018619072
0.79381443 	0.0051279974 	0.002607187 	-1.0012793e-07 	0.025523665 	-7.7718469e-08 	9.0545957e-05
0.80412371 	0.0052304259 	0.0027924524 	5.5705496e-06 	0.025092148 	-2.8292134e-05 	0.0015234625
0.81443299 	0.0053367242 	0.0029765321 	-1.0234593e-07 	0.024638327 	-1.2195161e-07 	0.00053012199
0.82474227 	0.0054107327 	0.003128075 	3.5600057e-06 	0.024123224 	-2.6059969e-05 	0.001138174
0.83505155 	0.0054802717 	0.0032729014 	4.5598366e-07 	0.023583644 	-5.2878972e-06 	0.00092750925
0.84536082 	0.0055197295 	0.0033912998 	1.6024192e-06 	0.022981225 	-1.8582744e-05 	0.00072544921
0.8556701 	0.0055413945 	0.0034942991 	8.3826663e-07 	0.022334808 	-1.8670896e-05 	0.0005082063
0.86597938 	0.0055411416 	0.0035805694 	2.2276481e-07 	0.021644545 	-4.9616893e-06 	0.00030356466
0.87628866 	0.0055035881 	0.0036408919 	3.3897526e-07 	0.020874095 	-2.8279178e-05 	9.2351727e-05
0.88659794 	0.0054426658 	0.0036880122 	-2.1757841e-07 	0.020059375 	-1.7235589e-05 	0.0001843344
0.89690722 	0.005351424 	0.0037184857 	-1.2289831e-08 	0.019184761 	-9.7354547e-07 	0.00038205951
0.90721649 	0.005207394 	0.0037266387 	-5.0978515e-07 	0.018222308 	-1.6454105e-05 	0.00055527643
0.91752577 	0.0050202815 	0.0037237944 	-1.1827346e-06 	0.017197162 	-2.9285387e-05 	0.00070519316
0.92783505 	0.0047775298 	0.0037122244 	-9.7066608e-07 	0.016106537 	-2.1892398e-05 	0.00082910899
0.93814433 	0.0044780134 	0.0036884 	-8.5146382e-07 	0.014966202 	-1.31227e-05 	0.00092400138
0.94845361 	0.0041360007 	0.0036395637 	-6.7666043e-07 	0.013768432 	-1.1260498e-05 	0.0010016867
0.95876289 	0.0036290363 	0.0036114315 	-1.8036202e-07 	0.012531653 	-4.6498164e-06 	0.0010769859
0.96907216 	0.0030680295 	0.0035953819 	-2.9617687e-07 	0.011522756 	-6.0502715e-06 	0.0010854144
0.97938144 	0.002570564 	0.0035745374 	-2.3342933e-07 	0.010746849 	-5.6003369e-07 	0.0003302496
0.98969072 	0.0017718647 	0.0027847055 	-9.6164705e-06 	0.0079142498 	-2.8492656e-05 	0.00090063032
