4.0776948e-36 	0.012854459 	-8.7300943e-16 	-3.1731582e-22 	5.9290355e-29 	2.1550475e-35 	7.8330272e-42
0.010869565 	0.012745022 	-0.00097989727 	-4.0186091e-08 	0.014752953 	-4.1915225e-05 	0.0056900273
0.02173913 	0.012454304 	-0.0020374158 	-1.8379847e-07 	0.015587135 	-3.1468257e-05 	0.0065204918
0.032608696 	0.012049691 	-0.0030923352 	-2.9727275e-08 	0.016923533 	-6.7095303e-06 	0.0074191376
0.043478261 	0.011611029 	-0.0041347062 	1.2426656e-08 	0.018639973 	-1.277893e-05 	0.0085000854
0.054347826 	0.011198981 	-0.0051682196 	4.42618e-07 	0.020619471 	-1.9710645e-06 	0.0047875872
0.065217391 	0.010833172 	-0.0062502288 	9.1575617e-07 	0.022909797 	-3.7816603e-06 	0.0020783175
0.076086957 	0.010596296 	-0.0071488923 	7.8218894e-07 	0.024922833 	-3.0043837e-06 	0.0053880555
0.086956522 	0.010407475 	-0.0080849691 	2.1769014e-07 	0.027089771 	-3.292746e-06 	0.013608191
0.097826087 	0.010284401 	-0.0089988615 	2.2532249e-07 	0.029239634 	-8.1306011e-07 	0.013531944
0.10869565 	0.010205706 	-0.0098750498 	2.0988133e-06 	0.031292072 	-7.1831392e-06 	0.0011114799
0.11956522 	0.010146086 	-0.010675988 	4.3782707e-07 	0.033204859 	-1.4295338e-06 	0.015065803
0.13043478 	0.010098055 	-0.011432232 	8.6760297e-07 	0.03496476 	-2.83278e-06 	0.013652144
0.14130435 	0.010030892 	-0.012110031 	2.3309161e-06 	0.036485921 	-7.2840036e-06 	0.0050388461
0.15217391 	0.0099558308 	-0.012725177 	1.1430006e-08 	0.037886377 	-3.5718233e-08 	0.022478365
0.16304348 	0.0098039675 	-0.013205173 	3.2274758e-06 	0.038810667 	-9.6644573e-06 	0.0012292622
0.17391304 	0.0096482008 	-0.013635225 	1.6217296e-07 	0.039692085 	-4.6480945e-07 	0.023497898
0.18478261 	0.0093606966 	-0.013854058 	2.9771851e-06 	0.039880224 	-8.533012e-06 	0.0031822043
0.19565217 	0.0090808588 	-0.014046556 	1.3557779e-07 	0.040089318 	-3.6928599e-07 	0.023158565
0.20652174 	0.0086237537 	-0.013928644 	2.4313867e-06 	0.039349954 	-6.622597e-06 	0.0016402229
0.2173913 	0.0082031512 	-0.013833354 	2.1715071e-06 	0.038773597 	-6.774697e-06 	0.021905295
0.22826087 	0.0075876613 	-0.01330971 	1.1597697e-06 	0.036975673 	-2.9413973e-06 	0.002999333
0.23913043 	0.0070106226 	-0.012821433 	2.2017114e-07 	0.035352431 	-5.5839602e-07 	0.015268556
0.25 	0.0063458392 	-0.01197356 	-8.7300772e-08 	0.032801615 	2.9673039e-07 	0.009151799
0.26086957 	0.0056682523 	-0.011004953 	-9.1908375e-08 	0.029974249 	3.1239137e-07 	0.0065251396
0.27173913 	0.0050303958 	-0.010007454 	2.7086847e-06 	0.02712943 	-7.5467618e-06 	0.013416917
0.2826087 	0.004412969 	-0.0087422725 	-1.059344e-06 	0.023641431 	2.7413387e-06 	0.0005924927
0.29347826 	0.003850067 	-0.0075976525 	-9.5195926e-08 	0.020517445 	2.4634516e-07 	0.0080223141
0.30434783 	0.0034155338 	-0.0065122987 	-2.3021772e-07 	0.017587293 	5.6627989e-07 	0.0066266625
0.31521739 	0.0030773496 	-0.0054902773 	-7.7090121e-07 	0.014854418 	1.8962304e-06 	0.0011743645
0.32608696 	0.0027928363 	-0.0045786788 	7.8371182e-06 	0.012437921 	-2.0624194e-05 	0.0051704561
0.33695652 	0.0026986572 	-0.0038571612 	-1.4598356e-07 	0.010566388 	3.0931808e-07 	0.0035135119
0.34782609 	0.002714737 	-0.003263361 	-3.3237191e-07 	0.0090590818 	7.0424807e-07 	0.0010065278
0.35869565 	0.0027673428 	-0.0027342123 	6.4399141e-06 	0.0077562259 	-1.5135386e-05 	0.0033634857
0.36956522 	0.0029591607 	-0.0022906837 	-2.7293796e-08 	0.0067862132 	1.2719291e-08 	0.0027217341
0.38043478 	0.0032667774 	-0.0019243913 	-1.2897684e-07 	0.0061095737 	6.0105011e-08 	0.00047583846
0.39130435 	0.0035509303 	-0.0015895999 	1.8934208e-06 	0.005519559 	-2.9357024e-06 	0.0028058214
0.40217391 	0.0038333498 	-0.0012756595 	2.6232941e-06 	0.0051269375 	-4.0673529e-06 	0.002751241
0.41304348 	0.0041134623 	-0.00097937731 	-5.914472e-08 	0.0049076887 	-2.6336865e-07 	0.00051248428
0.42391304 	0.0043730917 	-0.00070835579 	-1.7180913e-08 	0.0047475333 	-7.6505796e-08 	0.0020979242
0.43478261 	0.0045750724 	-0.00046480431 	7.9377857e-06 	0.0046802455 	-5.1010582e-06 	0.0027121125
0.44565217 	0.0047431137 	-0.00023573373 	-1.9948259e-08 	0.004668104 	-1.0591506e-07 	0.0020876951
0.45652174 	0.004853524 	-3.4126679e-05 	-7.2593111e-08 	0.0047445882 	-3.8543231e-07 	0.00055530436
0.4673913 	0.0049511152 	0.00015041494 	9.7598267e-07 	0.0048265508 	-5.6773443e-08 	0.0027758309
0.47826087 	0.005015434 	0.0003134498 	4.0705695e-06 	0.0049308993 	-2.3678724e-07 	0.0027363546
0.48913043 	0.0050652511 	0.00046710273 	-3.7134424e-08 	0.0050442511 	-1.9392303e-07 	0.0017233395
0.5 	0.0050904336 	0.00060387979 	-6.6614206e-08 	0.0051748957 	-3.4787206e-07 	0.00096594261
0.51086957 	0.0051086333 	0.0007327362 	1.522495e-06 	0.005306535 	1.8479364e-07 	0.0027800219
0.52173913 	0.0051138145 	0.00084974236 	2.2372421e-06 	0.0054318953 	2.7154645e-07 	0.0027475869
0.5326087 	0.0051098079 	0.00095860641 	-4.353205e-08 	0.0055528018 	-2.4564416e-07 	0.0014350134
0.54347826 	0.0050948063 	0.0010602726 	-4.2485123e-08 	0.0056761753 	-2.3973652e-07 	0.0014866329
0.55434783 	0.0050727283 	0.0011573478 	1.8132897e-06 	0.00579769 	1.8243791e-08 	0.0027536517
0.56521739 	0.005045715 	0.001249329 	6.9121933e-07 	0.0059119618 	6.9544656e-09 	0.0027278971
0.57608696 	0.0050096212 	0.0013323691 	-6.6943099e-08 	0.0060136573 	-4.1133612e-07 	0.00037400008
0.58695652 	0.0049685742 	0.0014162733 	1.2719006e-07 	0.0061256569 	-3.6951575e-08 	0.0027306519
0.59782609 	0.0049196088 	0.0014931264 	1.4455965e-06 	0.0062242834 	-4.1997833e-07 	0.0027106339
0.60869565 	0.0048680277 	0.0015675306 	-2.5526175e-08 	0.006318073 	-1.6770096e-07 	0.0016438912
0.61956522 	0.0048092535 	0.0016391019 	-2.0632455e-08 	0.0064109059 	-1.3555038e-07 	0.001840846
0.63043478 	0.0047440319 	0.0017091127 	1.3491817e-06 	0.0065022301 	-8.2591198e-07 	0.0026780439
0.64130435 	0.004676542 	0.0017773852 	-7.4593943e-09 	0.0065889291 	-5.2474995e-08 	0.0022962931
0.65217391 	0.0046016293 	0.0018432015 	-2.5010976e-08 	0.0066717052 	-1.7594603e-07 	0.0014215151
0.66304348 	0.004519871 	0.0019106913 	1.075862e-06 	0.0067607033 	-7.6107754e-07 	0.0026399159
0.67391304 	0.0044353249 	0.0019771704 	-6.4414636e-09 	0.0068456589 	-5.1295037e-08 	0.0022124584
0.68478261 	0.0043429601 	0.0020443821 	-1.2933841e-08 	0.0069331079 	-1.0299551e-07 	0.0017789065
0.69565217 	0.0042423678 	0.0021155467 	1.1177182e-06 	0.007030725 	-3.8071685e-07 	0.0026036462
0.70652174 	0.0041383512 	0.0021873184 	-1.094922e-08 	0.007127377 	-1.2619315e-07 	0.0012926602
0.7173913 	0.0040250781 	0.0022653545 	2.263122e-07 	0.0072420052 	8.5343866e-08 	0.002583955
0.72826087 	0.0039041265 	0.0023498555 	6.1535107e-07 	0.0073708049 	2.3205306e-07 	0.0025777493
0.73913043 	0.0037782844 	0.0024397112 	4.4826446e-09 	0.0075113063 	-1.1519055e-07 	0.00063080632
0.75 	0.0036423673 	0.0025448438 	1.8846551e-06 	0.0076951406 	2.119852e-06 	0.0025793117
0.76086957 	0.0035044446 	0.0026577647 	2.4273565e-08 	0.0078965815 	-6.9218455e-09 	0.0012461708
0.77173913 	0.0033600491 	0.0027921359 	1.1557125e-06 	0.0081586519 	1.9888359e-06 	0.002621536
0.7826087 	0.0032168008 	0.0029438805 	2.3651019e-09 	0.0084673852 	4.0210224e-09 	0.002560831
0.79347826 	0.0030775052 	0.0031257099 	2.8732066e-07 	0.0088610401 	6.1481208e-07 	0.0027370061
0.80434783 	0.0029534462 	0.003343294 	7.929218e-07 	0.0093565208 	1.6967032e-06 	0.0027353053
0.81521739 	0.0028497817 	0.0036001144 	5.8493307e-09 	0.0099656759 	1.3701788e-08 	0.0028790279
0.82608696 	0.0027881815 	0.0039131103 	9.4096811e-07 	0.010738126 	2.2714537e-06 	0.0029696851
0.83695652 	0.0027791208 	0.0042868079 	1.1811528e-06 	0.011689676 	3.055218e-06 	0.00336849
0.84782609 	0.0028378211 	0.0047238422 	6.2965953e-08 	0.012829027 	1.7587248e-07 	0.0027777111
0.85869565 	0.0029874498 	0.0052377113 	5.9105351e-06 	0.014204516 	1.5972722e-05 	0.0039474362
0.86956522 	0.0032089243 	0.0057843449 	2.8591975e-07 	0.015686017 	8.6284498e-07 	0.00034287127
0.88043478 	0.003513899 	0.0063642607 	5.4625234e-06 	0.017306815 	1.5398496e-05 	0.0046416342
0.89130435 	0.0038686479 	0.0069015728 	8.676826e-07 	0.018846433 	2.6224784e-06 	0.0052976454
0.90217391 	0.0042360131 	0.0073209831 	-2.0043458e-07 	0.020099823 	-3.944898e-07 	0.0014897978
0.91304348 	0.0045799671 	0.0075897521 	8.7226166e-07 	0.020990768 	3.4525514e-06 	0.0057598244
0.92391304 	0.0048309798 	0.0076365738 	-1.7760859e-06 	0.021283979 	-3.2148754e-06 	0.0059309725
0.93478261 	0.0049602911 	0.0074448874 	-1.031914e-06 	0.020925216 	-2.482851e-06 	0.005807311
0.94565217 	0.0049075082 	0.0069805032 	-5.5556761e-06 	0.019785597 	-1.446717e-05 	0.0055731995
0.95652174 	0.00463239 	0.0063003046 	-6.8519419e-07 	0.017965024 	-1.9392988e-06 	0.0012320303
0.9673913 	0.0040744974 	0.0054110588 	-1.3909669e-06 	0.015474973 	-3.968052e-06 	0.0044857815
0.97826087 	0.0031741103 	0.0043569764 	-2.7200807e-07 	0.012413832 	-8.5414675e-07 	0.00088118676
0.98913043 	0.0016715241 	0.0025300999 	-4.7847756e-08 	0.007036648 	-1.6126523e-07 	0.0004304735
