0.26666667 	3.4872781e-05 	2.6703869e-06 	7.0260526e-08 	3.0971139e-05 	7.8942377e-07 	5.9590561e-08
0.27777778 	0.0044629812 	-0.00036388782 	-1.7278492e-06 	0.0048242576 	3.523841e-05 	0.00044161295
0.28888889 	0.0049650445 	-0.001922922 	-5.9181309e-06 	0.01164527 	2.9376517e-05 	0.001921144
0.3 	0.0039723733 	-0.0030944966 	1.2206331e-07 	0.016992557 	-1.0611705e-07 	0.0085469769
0.31111111 	0.0037664902 	-0.005594511 	1.4557382e-05 	0.028625019 	-4.5301569e-05 	0.0074214785
0.32222222 	0.00336183 	-0.0079381366 	1.5800023e-06 	0.038414099 	-3.0087201e-06 	0.0190376
0.33333333 	0.0039264553 	-0.010804131 	1.0137786e-07 	0.048122086 	8.3887077e-07 	0.023884151
0.34444444 	0.0047676297 	-0.012683878 	5.8986433e-07 	0.051873293 	-1.0014446e-05 	0.025371403
0.35555556 	0.0053490604 	-0.013037231 	-1.7990012e-06 	0.049298227 	1.4973118e-05 	0.021496975
0.36666667 	0.0052632142 	-0.01198564 	-2.0724738e-05 	0.042743532 	0.00011632071 	0.011149775
0.37777778 	0.004875946 	-0.010571912 	-5.959778e-05 	0.036236702 	0.00027562548 	0.0011007411
0.38888889 	0.0047274789 	-0.0093252226 	-2.3597117e-05 	0.029839103 	9.5228208e-05 	0.0089844319
0.4 	0.0042119537 	-0.007669612 	1.5305102e-05 	0.023106512 	-5.4328712e-05 	0.0099490895
0.41111111 	0.0036595668 	-0.0062783097 	-2.0170232e-05 	0.018349862 	7.3621411e-05 	0.0041774766
0.42222222 	0.0033189477 	-0.005207083 	-1.8731536e-05 	0.014648272 	6.3877387e-05 	0.0032188341
0.43333333 	0.0029552476 	-0.0041189502 	1.0779188e-05 	0.011005656 	-3.4241681e-05 	0.0043623913
0.44444444 	0.0029440619 	-0.0035549434 	-1.374427e-05 	0.0092580049 	4.5523091e-05 	0.0011812478
0.45555556 	0.0030070131 	-0.0029457005 	2.5353088e-06 	0.007313803 	-7.6078545e-06 	0.0030368064
0.46666667 	0.0032482626 	-0.002547842 	1.0048793e-07 	0.0061106103 	-2.3624752e-07 	0.0025980502
0.47777778 	0.0037643392 	-0.0022184913 	-4.7108679e-07 	0.0053428119 	1.5189876e-06 	0.0022956553
0.48888889 	0.0043141141 	-0.0018935505 	2.9727662e-06 	0.0046772256 	-4.1332011e-06 	0.0025045086
0.5 	0.0048790944 	-0.0015593972 	-6.5975495e-07 	0.0042700106 	1.7778246e-06 	0.00201205
0.51111111 	0.0054239947 	-0.0012131195 	3.4023791e-06 	0.0039586077 	-2.1855353e-06 	0.0026162567
0.52222222 	0.0058824316 	-0.00090297952 	3.1665128e-07 	0.0038251488 	-2.0340254e-07 	0.0025315576
0.53333333 	0.0062870835 	-0.00060714247 	1.7412256e-06 	0.0037797911 	-2.2093997e-07 	0.0027264906
0.54444444 	0.0066166451 	-0.00034089848 	2.8865042e-06 	0.0038197361 	-3.6626164e-07 	0.0026609193
0.55555556 	0.0069202774 	-8.9111164e-05 	-1.575727e-07 	0.0038855799 	8.7660041e-07 	0.0021905595
0.56666667 	0.0071594088 	0.000156211 	6.496521e-06 	0.0040003818 	1.1551407e-06 	0.0027470389
0.57777778 	0.0073517844 	0.00042479881 	-5.805224e-07 	0.0041312372 	3.2307593e-06 	0.00024788536
0.58888889 	0.0075453366 	0.00064994891 	5.4140903e-06 	0.0042711297 	1.919648e-06 	0.0028100579
0.6 	0.0076798307 	0.00089981496 	1.4072573e-06 	0.0044342289 	4.9896444e-07 	0.0027964158
0.61111111 	0.0077921957 	0.0011453152 	-1.1294507e-07 	0.0046018155 	3.4317751e-07 	0.0025385384
0.62222222 	0.0078506398 	0.0013762346 	7.2914296e-06 	0.0047858191 	3.5615002e-06 	0.0028766262
0.63333333 	0.0078949046 	0.0016064485 	-4.0535055e-07 	0.0049710631 	9.3887107e-07 	0.0018158074
0.64444444 	0.0079231835 	0.0018250605 	1.7072372e-06 	0.0051617628 	1.0494829e-06 	0.0029450476
0.65555556 	0.0079090598 	0.0020306694 	3.877426e-06 	0.0053575406 	2.3835541e-06 	0.0029843943
0.66666667 	0.0078806187 	0.0022261405 	-9.2256114e-07 	0.0055409115 	2.1392069e-06 	6.4543441e-05
0.67777778 	0.0078365652 	0.0024148854 	3.1801114e-06 	0.0057457688 	2.3541145e-06 	0.0030664579
0.68888889 	0.0077661997 	0.0025917149 	4.0152758e-07 	0.0059417585 	2.9723546e-07 	0.0031260895
0.7 	0.0076868788 	0.0027525017 	2.3421464e-08 	0.0061258868 	2.0497208e-08 	0.0031451482
0.71111111 	0.0075717431 	0.0028942918 	1.8476086e-06 	0.0063094795 	1.6169278e-06 	0.0032197034
0.72222222 	0.007455223 	0.0030255475 	-3.8714305e-07 	0.0064718156 	1.4601002e-06 	0.00071175963
0.73333333 	0.0073132888 	0.0031410691 	1.737623e-06 	0.0066525518 	1.9191112e-06 	0.0033082801
0.74444444 	0.0071632438 	0.0032450263 	-2.396503e-07 	0.0068039671 	1.3193703e-06 	0.00082475183
0.75555556 	0.0069917359 	0.0033340971 	6.5329636e-07 	0.0069721783 	1.1123729e-06 	0.0033932313
0.76666667 	0.0068084576 	0.003414222 	-1.2217763e-07 	0.0071187249 	9.641135e-07 	0.001335619
0.77777778 	0.0066045496 	0.0034824999 	2.5821947e-07 	0.0072815671 	1.0057301e-06 	0.0034759118
0.78888889 	0.0063881738 	0.0035464615 	-1.1524123e-07 	0.0074301052 	1.0015348e-06 	0.0008058201
0.8 	0.0061436421 	0.003603369 	1.6899635e-07 	0.0076120214 	1.6273783e-06 	0.0035590347
0.81111111 	0.0058891668 	0.0036623984 	-1.2905331e-07 	0.0077868761 	6.8263413e-07 	0.00087050521
0.82222222 	0.0055973641 	0.0037235209 	1.0435666e-07 	0.0080193974 	8.899662e-07 	0.0036485479
0.83333333 	0.005295985 	0.0037927511 	1.7330885e-08 	0.008267297 	9.5523222e-08 	0.003656843
0.84444444 	0.0049703607 	0.0038850473 	-2.5250483e-07 	0.0085858607 	-1.5972759e-07 	0.0014112498
0.85555556 	0.0046289304 	0.0040007879 	8.1071213e-07 	0.0089930202 	3.2936525e-06 	0.0038046946
0.86666667 	0.0042946859 	0.0041526252 	-1.2580905e-08 	0.0094834874 	-2.0080756e-08 	0.0038437734
0.87777778 	0.0040023206 	0.004364482 	-8.1676307e-07 	0.010120247 	-1.660488e-06 	4.3307694e-05
0.88888889 	0.0037532427 	0.0046385668 	-2.4635023e-07 	0.010950593 	-5.5388309e-07 	0.0032060903
0.9 	0.003603571 	0.0049872583 	1.7158732e-06 	0.011973269 	5.1635578e-06 	0.0046299193
0.91111111 	0.003573897 	0.0054186645 	3.2005374e-06 	0.013216073 	9.4290137e-06 	0.0051490775
0.92222222 	0.0036633618 	0.0059358692 	1.5401962e-06 	0.014696933 	4.4870689e-06 	0.0058022366
0.93333333 	0.0038643038 	0.0065390724 	9.5307759e-07 	0.016414442 	2.7787225e-06 	0.0065660844
0.94444444 	0.0041555585 	0.0072138183 	1.8438142e-06 	0.018357764 	5.4798471e-06 	0.0074160932
0.95555556 	0.0045200693 	0.0079453776 	2.6788592e-07 	0.020495418 	7.5233345e-07 	0.0059415448
0.96666667 	0.0049132635 	0.0085975608 	4.7328999e-08 	0.022524025 	1.3795449e-07 	0.0089843954
0.97777778 	0.0050901085 	0.0084179248 	3.9359476e-07 	0.022545055 	1.3486514e-06 	0.0043434423
0.98888889 	0.003711935 	0.0058127312 	2.9623911e-07 	0.015959059 	8.7968847e-07 	0.0050382768
