0.36082474 	0.0042909604 	-0.0061729525 	6.9164097e-07 	0.011753233 	-1.0622852e-06 	0.0072056687
0.37113402 	0.0062019569 	-0.00082566052 	-1.3280597e-06 	0.0080045492 	-2.9889766e-06 	0.0042528818
0.3814433 	0.0069452895 	0.0003785521 	-8.1546004e-07 	0.010710643 	-7.0398339e-06 	0.0030274849
0.39175258 	0.007012308 	0.00060989785 	2.1411611e-07 	0.01287016 	-8.0588349e-06 	0.0020819036
0.40206186 	0.0069160027 	0.00067731485 	1.5493914e-07 	0.014433221 	6.6020633e-06 	0.0028354577
0.41237113 	0.0067682075 	0.00069496243 	-6.3491165e-08 	0.015565904 	5.0344748e-06 	0.0022495992
0.42268041 	0.0067111899 	0.00070522285 	-1.0744693e-07 	0.016190949 	2.0620104e-06 	0.001812839
0.43298969 	0.0066775856 	0.00072322447 	-4.7720593e-08 	0.016681048 	1.3908515e-06 	0.0013531558
0.44329897 	0.0066425367 	0.00074421777 	-4.0715519e-08 	0.017128066 	1.3879748e-06 	0.00087847075
0.45360825 	0.0065930908 	0.00076572766 	-4.4163914e-08 	0.017564591 	8.5979371e-07 	0.00039089609
0.46391753 	0.0065278514 	0.00078830074 	-3.6689123e-09 	0.018001153 	2.7469527e-07 	0.00018838645
0.4742268 	0.0064450615 	0.00081265964 	-4.2776107e-09 	0.018441741 	3.2026915e-07 	0.00069616854
0.48453608 	0.0063472848 	0.00084084058 	6.038884e-08 	0.018886133 	1.1820231e-06 	0.0012299705
0.49484536 	0.006241022 	0.00087216238 	3.2188719e-08 	0.01933251 	2.585292e-07 	0.0017968331
0.50515464 	0.0061283331 	0.00090323914 	4.075662e-09 	0.019775326 	3.2734376e-08 	0.0022635484
0.51546392 	0.0060101799 	0.00094035202 	1.5680243e-07 	0.020219873 	7.3074557e-07 	0.0028457147
0.5257732 	0.005890092 	0.00097527638 	2.3200876e-06 	0.02064771 	-2.3720133e-06 	0.00021951041
0.53608247 	0.0057755934 	0.001014972 	1.6840948e-07 	0.021093691 	4.810262e-07 	0.0038802691
0.54639175 	0.00565958 	0.0010523554 	2.2280806e-06 	0.021512134 	-2.0175858e-06 	0.0014553235
0.55670103 	0.0055488213 	0.0010925961 	1.2719878e-07 	0.021944174 	1.6766053e-07 	0.0048939987
0.56701031 	0.0054367196 	0.0011302538 	3.0326587e-06 	0.022345597 	-2.4894897e-06 	0.0014067832
0.57731959 	0.0053288159 	0.0011733967 	1.7606037e-07 	0.022768685 	1.3119681e-08 	0.0058826134
0.58762887 	0.0052154735 	0.0012114214 	4.7090728e-06 	0.023149924 	-3.5981346e-06 	9.0145147e-05
0.59793814 	0.0051088158 	0.0012600968 	1.4220734e-07 	0.023567042 	-1.0614533e-07 	0.0068449872
0.60824742 	0.0049921065 	0.0013028461 	3.3408045e-06 	0.023939873 	-2.4567353e-06 	0.002694805
0.6185567 	0.0048799487 	0.0013534579 	1.6127295e-06 	0.024328469 	-1.1859567e-06 	0.005516641
0.62886598 	0.004761789 	0.0014048571 	8.8576135e-07 	0.024703987 	-6.5407882e-07 	0.0067728954
0.63917526 	0.0046373735 	0.0014570401 	4.9717294e-06 	0.025045044 	-3.6713082e-06 	0.0014559648
0.64948454 	0.0045213481 	0.0015180135 	1.1773545e-07 	0.025420418 	-2.2115404e-07 	0.0088277825
0.65979381 	0.0043921919 	0.0015775274 	3.2958973e-06 	0.025727741 	-2.5546782e-06 	0.0041905331
0.67010309 	0.0042636039 	0.0016435655 	3.5473744e-06 	0.026046192 	-2.7496003e-06 	0.0041618705
0.68041237 	0.0041350703 	0.0017156031 	1.5550027e-07 	0.026378803 	-3.5754169e-07 	0.0096818809
0.69072165 	0.0040018857 	0.0017828882 	5.0522441e-06 	0.026608813 	-4.287668e-06 	0.0018132731
0.70103093 	0.0038671621 	0.001863835 	1.6317346e-06 	0.026902843 	-1.3847978e-06 	0.0075746475
0.71134021 	0.0037299368 	0.0019438247 	1.9094707e-06 	0.027136014 	-1.8130509e-06 	0.0070020919
0.72164948 	0.0035933164 	0.0020232736 	4.3263833e-06 	0.027317969 	-4.1079203e-06 	0.0029591224
0.73195876 	0.0034541618 	0.0021157559 	2.4172407e-07 	0.027544416 	-7.8240416e-07 	0.010640548
0.74226804 	0.003305819 	0.0022080554 	5.1560206e-06 	0.027633103 	-5.5147637e-06 	0.00087341448
0.75257732 	0.0031584816 	0.0023138994 	2.4466979e-08 	0.027797509 	-2.6169331e-08 	0.01078669
0.7628866 	0.0031121882 	0.0024278214 	3.5032968e-06 	0.0277109 	-5.2413282e-06 	0.0032765603
0.77319588 	0.0030903503 	0.0025516565 	7.2948541e-07 	0.027629662 	-1.0913927e-06 	0.0092786821
0.78350515 	0.0032383701 	0.0026737767 	2.5265223e-06 	0.027265861 	-5.3782947e-06 	0.0042475348
0.79381443 	0.0034636907 	0.0027980557 	5.4286304e-07 	0.026822106 	-1.1556112e-06 	0.0093280411
0.80412371 	0.0036785037 	0.0029134704 	2.182624e-06 	0.02628202 	-5.8394441e-06 	0.0034425315
0.81443299 	0.0038802513 	0.0030258461 	1.7547396e-07 	0.025757632 	-2.1007056e-06 	0.010461665
0.82474227 	0.0040738336 	0.0031224607 	2.2991978e-06 	0.02510867 	-7.6542729e-06 	0.00056686685
0.83505155 	0.0042447536 	0.003217517 	1.7544e-07 	0.024499836 	-3.1859107e-06 	0.010047416
0.84536082 	0.0043906741 	0.003286745 	8.7704529e-07 	0.02378832 	-3.6808137e-06 	0.0049022596
0.8556701 	0.0045127151 	0.0033503528 	6.6697955e-07 	0.023054634 	-3.6196335e-06 	0.0045493695
0.86597938 	0.0046070056 	0.0034014961 	9.0870943e-08 	0.022284215 	-9.7754763e-06 	0.0091078855
0.87628866 	0.0046756242 	0.003436563 	3.7094308e-07 	0.021426169 	-2.7162554e-06 	0.0049196859
0.88659794 	0.0047158281 	0.0034613015 	4.3957929e-07 	0.020515867 	-4.6521519e-06 	0.0017132645
0.89690722 	0.0047213861 	0.003474924 	4.1645355e-08 	0.019564103 	-7.2759356e-07 	0.0068585265
0.90721649 	0.0046916247 	0.0034744679 	-2.8602567e-07 	0.018525265 	-9.386944e-06 	0.0073933687
0.91752577 	0.0046200145 	0.0034657092 	-2.0079633e-07 	0.017412857 	-5.4044704e-06 	0.0068324001
0.92783505 	0.0044925335 	0.0034469261 	-3.006564e-08 	0.016235607 	-7.6854679e-07 	0.0062564639
0.93814433 	0.0042981317 	0.0034278688 	-8.7834034e-09 	0.014983601 	-2.5172802e-07 	0.0056782038
0.94845361 	0.0039905472 	0.0034128404 	-2.168061e-07 	0.013700082 	-3.842618e-06 	0.0050999834
0.95876289 	0.0036514483 	0.003337915 	-3.9091529e-08 	0.012271082 	-6.0315485e-07 	0.0045819574
0.96907216 	0.0031090817 	0.0032809179 	-2.3737665e-07 	0.010946155 	-2.994264e-06 	0.0039117489
0.97938144 	0.002493675 	0.0032042888 	-2.6098005e-07 	0.0098115009 	-1.2149096e-06 	0.0014180555
0.98969072 	0.0016492875 	0.0027655794 	8.492901e-10 	0.0077998341 	-1.0968862e-09 	0.0025570531
