0.31958763 	0.0010066287 	-0.00079708185 	3.9991759e-06 	0.0016131681 	-6.0128491e-06 	0.00059996736
0.32989691 	0.0051929415 	-0.0024134974 	-1.2863769e-05 	0.0076843018 	-7.4162343e-06 	0.00021226421
0.34020619 	0.0068171576 	0.00021347051 	-5.3153682e-07 	0.010295942 	-4.2486508e-06 	0.0030075623
0.35051546 	0.0069593427 	0.00040480053 	8.8651408e-08 	0.012757243 	3.5631425e-06 	0.0027366563
0.36082474 	0.0069632554 	0.00038812596 	-1.2413114e-07 	0.014405607 	3.1205982e-06 	0.0018381958
0.37113402 	0.0069749373 	0.00037587244 	-4.021431e-07 	0.015160592 	3.5002206e-06 	0.0013432782
0.3814433 	0.0069941384 	0.00036982604 	-3.6453823e-07 	0.015639255 	4.7255408e-07 	0.00083116476
0.39175258 	0.0070115879 	0.00036902623 	-3.9717642e-07 	0.016020664 	-2.1457994e-07 	0.00030705282
0.40206186 	0.0070154047 	0.00036853338 	-4.4940772e-07 	0.016391371 	-5.3723709e-07 	0.00029658636
0.41237113 	0.0070055231 	0.00036703915 	-2.811036e-07 	0.016763304 	-3.4374055e-07 	0.00086336634
0.42268041 	0.0069810546 	0.00036504239 	2.0745257e-07 	0.017136649 	-4.441211e-07 	0.0012094533
0.43298969 	0.0069445 	0.00036131655 	3.1798457e-07 	0.017514006 	-5.6493999e-07 	0.001635403
0.44329897 	0.0068930618 	0.00036207611 	-3.0248868e-07 	0.017906494 	-2.1637806e-07 	0.0025803483
0.45360825 	0.0068272369 	0.00036508189 	1.231389e-07 	0.018305089 	-1.8095338e-07 	0.0030946177
0.46391753 	0.0067467304 	0.00036174271 	2.4144338e-06 	0.018697276 	-2.9379496e-06 	0.0013879418
0.4742268 	0.0066612482 	0.00037288987 	-2.0440932e-07 	0.019120979 	1.071458e-08 	0.0043903908
0.48453608 	0.0065554586 	0.000374253 	4.0073974e-06 	0.019520548 	-4.0760454e-06 	0.0012279769
0.49484536 	0.0064559159 	0.00039054456 	4.9488811e-07 	0.019953814 	-4.2972122e-07 	0.0051312805
0.50515464 	0.0063400781 	0.00039969912 	3.9689976e-06 	0.020360717 	-3.4463599e-06 	0.002621518
0.51546392 	0.0062297438 	0.00041795235 	2.3742039e-06 	0.020786249 	-1.8133988e-06 	0.004710869
0.5257732 	0.0061136684 	0.00043139994 	5.0948054e-06 	0.021192301 	-3.8913734e-06 	0.0029149918
0.53608247 	0.0060013988 	0.00045582528 	2.7433394e-06 	0.021614198 	-1.9055413e-06 	0.0054870361
0.54639175 	0.0058843107 	0.00046875025 	6.4243397e-06 	0.022007174 	-4.462388e-06 	0.0020606685
0.55670103 	0.0057724408 	0.00050503733 	2.8474724e-07 	0.022433053 	-1.8663046e-07 	0.0074768493
0.56701031 	0.0056496544 	0.00051385433 	8.4481628e-06 	0.022805322 	-5.537137e-06 	4.8692904e-05
0.57731959 	0.0055352787 	0.00055895272 	3.6387041e-07 	0.023228394 	-2.3848976e-07 	0.0073121118
0.58762887 	0.0054091815 	0.00058540521 	4.5633674e-06 	0.023606076 	-2.948341e-06 	0.003346748
0.59793814 	0.0052834255 	0.0006233202 	3.8272318e-06 	0.023996081 	-2.472732e-06 	0.0040358052
0.60824742 	0.0051584927 	0.00067317056 	8.0259526e-08 	0.024388635 	-9.1717707e-08 	0.0074610811
0.6185567 	0.0050165319 	0.0007073542 	7.1724349e-06 	0.024741889 	-4.8271317e-06 	0.00062823144
0.62886598 	0.0048850515 	0.00077075439 	9.5105125e-07 	0.025129662 	-6.400685e-07 	0.0066758959
0.63917526 	0.0047486864 	0.00082971544 	8.1431184e-07 	0.025476859 	-6.0446619e-07 	0.0066656328
0.64948454 	0.0045987117 	0.00088443642 	6.6270809e-06 	0.025795578 	-4.9193026e-06 	0.00078203766
0.65979381 	0.0044555846 	0.00096834338 	2.2077826e-07 	0.026161259 	-3.9611029e-07 	0.0077557103
0.67010309 	0.0043106287 	0.0010398841 	1.726332e-06 	0.026456016 	-1.4718713e-06 	0.0057673025
0.68041237 	0.0041580953 	0.001115989 	4.8521168e-06 	0.026735351 	-4.1369164e-06 	0.0023690786
0.69072165 	0.0040079818 	0.0012139299 	1.0345479e-06 	0.027044234 	-2.2007854e-06 	0.0080385911
0.70103093 	0.0038541912 	0.0012980199 	3.6600681e-06 	0.027271583 	-3.7080701e-06 	0.0033724202
0.71134021 	0.0037004072 	0.0014010003 	1.7094607e-06 	0.027518179 	-1.7318804e-06 	0.0061313357
0.72164948 	0.0035475762 	0.0015080841 	2.9288876e-08 	0.027728273 	-3.6423262e-08 	0.0083942178
0.73195876 	0.0033815766 	0.0016222565 	4.5051673e-06 	0.027866226 	-5.602567e-06 	0.0017284354
0.74226804 	0.0032409195 	0.0017577172 	1.540643e-06 	0.028018439 	-4.8079226e-06 	0.0088627918
0.75257732 	0.0031592553 	0.0018947621 	3.8313608e-06 	0.027990292 	-5.2720377e-06 	0.0017040086
0.7628866 	0.0030943578 	0.0020521022 	3.9980362e-07 	0.027984169 	-1.9381209e-06 	0.0092937612
0.77319588 	0.003228186 	0.0022099037 	2.274247e-06 	0.027651445 	-3.5573616e-06 	0.0037118879
0.78350515 	0.0034162525 	0.0023840426 	2.3993611e-07 	0.027277875 	-3.7530643e-07 	0.009107613
0.79381443 	0.0036276357 	0.0025379941 	1.6207281e-06 	0.026775994 	-3.4381345e-06 	0.0041884704
0.80412371 	0.0038200453 	0.0026961413 	1.2164461e-07 	0.026299265 	-2.5805101e-07 	0.0096714087
0.81443299 	0.0040209464 	0.0028308498 	1.4793783e-06 	0.025697686 	-4.4365829e-06 	0.002794139
0.82474227 	0.0041912309 	0.0029635054 	3.8058439e-07 	0.025136871 	-4.8255742e-06 	0.010423785
0.83505155 	0.004357008 	0.003072148 	1.2727662e-06 	0.024450268 	-5.7617749e-06 	0.00086137608
0.84536082 	0.0044815437 	0.0031719736 	9.2815151e-08 	0.023806797 	-7.1720697e-07 	0.0094569411
0.8556701 	0.0045922342 	0.0032568243 	2.9060557e-07 	0.023066232 	-2.2455853e-06 	0.0069166706
0.86597938 	0.0046799828 	0.0033258583 	2.9781997e-07 	0.022265887 	-5.1792178e-06 	0.0020505202
0.87628866 	0.0047297146 	0.0033822119 	2.5652691e-10 	0.02145889 	-6.406421e-07 	0.0096502311
0.88659794 	0.0047564478 	0.0034236762 	5.9830618e-10 	0.020556051 	-1.4941907e-06 	0.0081011156
0.89690722 	0.004754693 	0.0034505312 	-2.2333742e-07 	0.019573911 	-5.0399792e-06 	0.0021127023
0.90721649 	0.0047107374 	0.0034659037 	-3.7077576e-07 	0.018545808 	-4.6824769e-06 	0.0025388133
0.91752577 	0.0046207216 	0.0034703659 	-2.7850867e-07 	0.017455289 	-2.597975e-06 	0.0056979809
0.92783505 	0.0044773902 	0.003465286 	-1.7480192e-07 	0.016294177 	-1.3171912e-06 	0.0074317625
0.93814433 	0.0042662277 	0.0034619948 	-1.3090844e-07 	0.015059306 	-8.3083406e-07 	0.0077618299
0.94845361 	0.003956957 	0.0034563845 	-2.0136995e-07 	0.013804005 	-1.0912053e-06 	0.006762068
0.95876289 	0.0036039573 	0.0033998531 	-1.00141e-06 	0.012400289 	-4.6540773e-06 	0.00030385744
0.96907216 	0.0030830743 	0.0033626322 	-1.0994263e-06 	0.01115634 	-4.0675723e-06 	0.0012135372
0.97938144 	0.002526936 	0.0032914928 	-2.693672e-07 	0.010088308 	-9.2606003e-07 	0.0050006432
0.98969072 	0.0016698282 	0.002711169 	-8.6836612e-07 	0.0076819623 	-3.0175751e-06 	0.00064626787
