1.4101108e-19 	0.81374687 	-5.5265662e-14 	-2.3368393e-20
0.010869565 	0.81654321 	-0.0018804987 	1.4500187e-07
0.02173913 	0.82358878 	-0.0037440539 	8.1148918e-08
0.032608696 	0.83554252 	-0.0056069775 	1.1332631e-06
0.043478261 	0.85232896 	-0.0074231633 	4.4367392e-07
0.054347826 	0.87368038 	-0.0092582174 	6.8468657e-06
0.065217391 	0.90122524 	-0.011124656 	5.9997171e-06
0.076086957 	0.92948406 	-0.01273708 	5.3667476e-06
0.086956522 	0.96361657 	-0.014367844 	1.9321939e-06
0.097826087 	1.0017743 	-0.015951658 	4.1561226e-06
0.10869565 	1.0435588 	-0.017503494 	3.7812708e-06
0.11956522 	1.0901402 	-0.018946841 	3.8997732e-06
0.13043478 	1.1405026 	-0.020300884 	9.0892607e-06
0.14130435 	1.1939365 	-0.021607021 	9.2152542e-08
0.15217391 	1.2534985 	-0.022720976 	1.8944891e-05
0.16304348 	1.3148051 	-0.023789055 	3.923957e-06
0.17391304 	1.3823371 	-0.024634874 	2.3596756e-05
0.18478261 	1.4511941 	-0.025419431 	7.8581117e-06
0.19565217 	1.5255633 	-0.025940352 	2.9974839e-05
0.20652174 	1.6012288 	-0.026413054 	2.1032919e-06
0.2173913 	1.6813194 	-0.026574721 	4.3431865e-05
0.22826087 	1.7626001 	-0.026744599 	1.2807564e-05
0.23913043 	1.8441069 	-0.026629831 	4.4427135e-05
0.25 	1.9259605 	-0.026505502 	6.1927123e-06
0.26086957 	2.00655 	-0.02629069 	1.5836615e-05
0.27173913 	2.0833358 	-0.026000426 	3.2017691e-05
0.2826087 	2.1593992 	-0.025747218 	2.4821008e-05
0.29347826 	2.2254489 	-0.025329286 	3.5372532e-05
0.30434783 	2.2891319 	-0.024941302 	8.841143e-06
0.31521739 	2.3464571 	-0.024548275 	1.5188063e-05
0.32608696 	2.3933222 	-0.024049741 	4.2368304e-05
0.33695652 	2.4375789 	-0.023573222 	2.7455547e-06
0.34782609 	2.4723393 	-0.023056437 	1.749116e-05
0.35869565 	2.4996765 	-0.02245359 	3.7764118e-05
0.36956522 	2.5239421 	-0.021875209 	2.1297523e-06
0.38043478 	2.5396268 	-0.021262898 	2.9324663e-05
0.39130435 	2.5523506 	-0.020570369 	1.9994676e-05
0.40217391 	2.5618662 	-0.019967586 	9.2780303e-06
0.41304348 	2.5670638 	-0.019426655 	3.9186309e-05
0.42391304 	2.5709807 	-0.018753365 	5.6159036e-06
0.43478261 	2.5731171 	-0.018189302 	2.7627902e-05
0.44565217 	2.5742569 	-0.017669319 	1.4480489e-05
0.45652174 	2.574076 	-0.01715351 	3.2275006e-05
0.4673913 	2.5738411 	-0.016554659 	3.677129e-06
0.47826087 	2.5729091 	-0.016067861 	1.3203347e-05
0.48913043 	2.5714894 	-0.015617323 	2.2221796e-05
0.5 	2.5698092 	-0.015122493 	2.7567769e-05
0.51086957 	2.5680819 	-0.014565573 	5.236218e-06
0.52173913 	2.5659829 	-0.014123771 	5.2831898e-06
0.5326087 	2.5635447 	-0.013743317 	2.6254544e-05
0.54347826 	2.5609749 	-0.013279303 	2.1656107e-05
0.55434783 	2.5582493 	-0.012783143 	9.4937811e-06
0.56521739 	2.5552493 	-0.012382974 	5.5079757e-06
0.57608696 	2.5520163 	-0.01203472 	3.6133877e-05
0.58695652 	2.5486224 	-0.011527451 	7.4673434e-06
0.59782609 	2.5450021 	-0.011106391 	6.1463764e-06
0.60869565 	2.5411349 	-0.010761355 	2.2492041e-05
0.61956522 	2.5370773 	-0.010336149 	1.7083273e-05
0.63043478 	2.5328059 	-0.0098943838 	1.0429548e-05
0.64130435 	2.5282718 	-0.0095489961 	1.5875474e-05
0.65217391 	2.5235161 	-0.00915978 	1.9437215e-05
0.66304348 	2.5184954 	-0.0087187387 	8.0023187e-06
0.67391304 	2.5131749 	-0.0083814156 	1.5413698e-05
0.68478261 	2.5075767 	-0.007990711 	1.5462782e-05
0.69565217 	2.5016308 	-0.0075707434 	5.3259613e-06
0.70652174 	2.4952974 	-0.007247904 	2.0321481e-05
0.7173913 	2.4885619 	-0.0068204899 	6.0050562e-06
0.72826087 	2.481281 	-0.0064431431 	3.0319403e-06
0.73913043 	2.4734338 	-0.0061046745 	2.0164415e-05
0.75 	2.4649201 	-0.0056652735 	5.6226356e-06
0.76086957 	2.4554306 	-0.0053312936 	1.7243043e-05
0.77173913 	2.4451769 	-0.0048892412 	1.3777303e-06
0.7826087 	2.4332119 	-0.004523413 	9.3590748e-06
0.79347826 	2.4200055 	-0.0041026624 	6.2141132e-06
0.80434783 	2.4044738 	-0.0036906091 	5.6215478e-06
0.81521739 	2.386555 	-0.0032550304 	6.9666268e-06
0.82608696 	2.3650949 	-0.002803499 	5.4455039e-06
0.83695652 	2.3397997 	-0.0023148258 	4.231447e-06
0.84782609 	2.3084896 	-0.0018221002 	8.2176966e-06
0.85869565 	2.2718605 	-0.0012482342 	1.3878352e-06
0.86956522 	2.2257152 	-0.00071747212 	1.3223628e-05
0.88043478 	2.1717192 	-6.8098373e-05 	1.5738446e-07
0.89130435 	2.1060353 	0.00057625995 	3.0675621e-06
0.90217391 	2.0300066 	0.001190917 	8.3381847e-06
0.91304348 	1.9429742 	0.0018464703 	8.2612577e-07
0.92391304 	1.8453156 	0.0024363006 	1.0821366e-06
0.93478261 	1.7405576 	0.0028359953 	1.1601943e-06
0.94565217 	1.6187739 	0.0030197119 	-1.2852769e-07
0.95652174 	1.4913951 	0.0028733134 	1.3813758e-06
0.9673913 	1.3461606 	0.0024426136 	2.8439331e-08
0.97826087 	1.1726996 	0.0016441927 	-5.2051895e-07
0.98913043 	0.88488474 	0.00070689947 	-4.2872955e-07
