0.4742268 	0.0013918624 	-0.0015801521 	8.0246284e-08 	0.004549592 	-2.2547058e-07 	0.00086207831
0.48453608 	0.0050616565 	-0.0084469696 	1.0811469e-08 	0.023346763 	-1.6549871e-08 	0.0048373293
0.49484536 	0.0037255073 	-0.006295602 	1.0843017e-05 	0.01725321 	-2.9954626e-05 	0.0047439882
0.50515464 	0.0030362292 	-0.0037714391 	-1.5218321e-07 	0.010575624 	3.6766775e-07 	0.0027205004
0.51546392 	0.0040509167 	-0.0023722508 	1.43897e-06 	0.0076646622 	-1.909351e-06 	0.0026073094
0.5257732 	0.0055591028 	-0.0012573094 	8.8844449e-06 	0.0066547952 	-4.722394e-06 	0.0027159885
0.53608247 	0.0065571251 	-0.00036610599 	2.3139217e-06 	0.0066558004 	3.1265702e-07 	0.0029093375
0.54639175 	0.0070995025 	0.00037091166 	-3.6760251e-08 	0.0071787085 	-4.7647571e-08 	0.0029518107
0.55670103 	0.0073833454 	0.0010051838 	-6.2013813e-08 	0.0079220794 	-1.0170823e-07 	0.0030324942
0.56701031 	0.007521747 	0.0015658663 	8.8754635e-07 	0.008753828 	1.1739676e-06 	0.0035746538
0.57731959 	0.0075754322 	0.0020664653 	3.3901049e-06 	0.0096091085 	5.2038954e-06 	0.0038039416
0.58762887 	0.0075821678 	0.002516425 	4.8222326e-06 	0.010452608 	8.1924698e-06 	0.0040321788
0.59793814 	0.0075630202 	0.0029228807 	4.5967242e-07 	0.011266629 	8.3823545e-07 	0.0042567168
0.60824742 	0.0075288612 	0.0032862666 	-6.4114875e-07 	0.012030099 	-1.4693439e-06 	0.00013579403
0.6185567 	0.0074913766 	0.0036078513 	1.0194883e-06 	0.012745989 	1.9516108e-06 	0.0044757585
0.62886598 	0.0074537245 	0.003894443 	2.2046655e-06 	0.013400259 	4.3451994e-06 	0.004682804
0.63917526 	0.0074184153 	0.0041506417 	-5.2228132e-07 	0.013994576 	-1.2695244e-06 	0.00099665843
0.64948454 	0.007388616 	0.0043726857 	1.1967872e-06 	0.014534005 	2.3741853e-06 	0.0048761079
0.65979381 	0.0073629502 	0.0045686873 	2.3588218e-07 	0.015014179 	4.5187009e-07 	0.0050486605
0.67010309 	0.0073421738 	0.0047356826 	-1.5603475e-07 	0.01542928 	-3.9566339e-07 	0.0038139581
0.68041237 	0.0073258648 	0.0048761639 	6.3279821e-07 	0.015788435 	1.0035993e-06 	0.0051967065
0.69072165 	0.0073121431 	0.0049946915 	-3.8308823e-07 	0.016088802 	-9.9111614e-07 	0.0019932554
0.70103093 	0.0073011377 	0.0050896582 	1.1105413e-07 	0.016342558 	-4.4009919e-07 	0.0053128227
0.71134021 	0.0072905828 	0.0051646086 	-3.8831283e-07 	0.016535847 	-1.0260778e-06 	0.0018748964
0.72164948 	0.0072800779 	0.0052192902 	-5.4652794e-07 	0.016688325 	-2.0526241e-06 	0.0053894554
0.73195876 	0.0072680356 	0.0052555524 	-2.1819962e-07 	0.016784007 	-5.8984112e-07 	0.0033409901
0.74226804 	0.0072525826 	0.0052746356 	-6.767407e-07 	0.016840119 	-2.1666498e-06 	0.0054165751
0.75257732 	0.0072341676 	0.0052778731 	-4.9216677e-08 	0.01684933 	-1.3624488e-07 	0.0049276313
0.7628866 	0.0072086486 	0.0052633322 	-5.0114521e-07 	0.016810076 	-1.5427595e-06 	0.0053926093
0.77319588 	0.0071777608 	0.0052350727 	-1.6579358e-08 	0.016730929 	-4.6997336e-08 	0.0052191179
0.78350515 	0.0071366999 	0.005190749 	-8.0246811e-07 	0.016604497 	-2.4508116e-06 	0.0053261535
0.79381443 	0.0070877503 	0.0051335707 	-1.3923545e-07 	0.016437341 	-4.0404937e-07 	0.0038015052
0.80412371 	0.0070256094 	0.0050630335 	-1.9644307e-06 	0.016232497 	-6.0216998e-06 	0.005224987
0.81443299 	0.0069532748 	0.0049799501 	-4.0982001e-07 	0.01597925 	-1.2177598e-06 	0.00053890997
0.82474227 	0.0068643022 	0.0048865276 	-2.07021e-06 	0.015704201 	-6.4104175e-06 	0.0050955642
0.83505155 	0.006761578 	0.0047824947 	-6.9445513e-09 	0.015385695 	-2.115372e-08 	0.0048635415
0.84536082 	0.0066398817 	0.00466672 	-1.8239091e-07 	0.015021976 	-5.7103533e-07 	0.0026538732
0.8556701 	0.0064963348 	0.0045430085 	-2.2188421e-06 	0.014631068 	-7.1195344e-06 	0.004773923
0.86597938 	0.0063319719 	0.0044123767 	-8.5599636e-07 	0.014205164 	-2.8230917e-06 	0.0045908918
0.87628866 	0.0061419025 	0.0042758848 	-2.2541464e-07 	0.013741998 	-7.6074718e-07 	0.0012608677
0.88659794 	0.0059198775 	0.0041381706 	-1.1497521e-07 	0.01326137 	-4.1247449e-07 	0.002501032
0.89690722 	0.0056606688 	0.0040039427 	-4.0238635e-07 	0.012764536 	-1.4581006e-06 	0.004199
0.90721649 	0.0053552568 	0.0038823471 	-1.0132163e-06 	0.012264564 	-4.0250496e-06 	0.0039995134
0.91752577 	0.0049908549 	0.0037874959 	-8.988209e-07 	0.011794701 	-4.2243335e-06 	0.0038044713
0.92783505 	0.0045489684 	0.0037445686 	-3.0149672e-07 	0.011411044 	-2.4271934e-06 	0.0036218141
0.93814433 	0.0040189401 	0.0037963557 	1.8052426e-08 	0.011218419 	-1.0670789e-07 	0.0034681378
0.94845361 	0.0034702506 	0.0040035091 	3.1618857e-07 	0.01144643 	6.6514517e-07 	0.00047419042
0.95876289 	0.0030825874 	0.0045378354 	1.5073065e-06 	0.012614079 	3.7072871e-06 	0.0035950318
0.96907216 	0.0032646477 	0.0054659643 	4.7664478e-07 	0.015040652 	1.3236723e-06 	0.0012304319
0.97938144 	0.0038798034 	0.0065172007 	5.0835987e-07 	0.017992559 	1.4767672e-06 	0.0049143084
0.98969072 	0.0036333364 	0.006189342 	-2.0480391e-06 	0.017139358 	-5.812871e-06 	0.0048183411
