0.47777778 	1.6922009 	0.00026162249 	-3.822379e-07
0.48888889 	2.3555972 	0.00025333181 	2.5742237e-07
0.5 	2.6448613 	0.00052605584 	5.3882301e-07
0.51111111 	2.8323432 	0.00085257858 	1.450848e-06
0.52222222 	2.9583115 	0.0011393887 	-8.0611169e-07
0.53333333 	3.0338104 	0.0013474478 	7.9059462e-07
0.54444444 	3.0733423 	0.0014158504 	1.5830481e-07
0.55555556 	3.0914732 	0.001430212 	-2.3900038e-07
0.56666667 	3.0993334 	0.0013736402 	-4.8871805e-07
0.57777778 	3.102366 	0.0013118252 	-6.9229706e-07
0.58888889 	3.1028082 	0.0012441156 	-1.280695e-06
0.6 	3.1016585 	0.0011675553 	-1.2951914e-06
0.61111111 	3.099424 	0.0010847496 	-2.5040797e-07
0.62222222 	3.0962634 	0.00097049082 	-2.8082231e-06
0.63333333 	3.0924046 	0.00090894435 	-1.0707181e-06
0.64444444 	3.0880045 	0.00081483229 	-1.4304747e-06
0.65555556 	3.0831221 	0.00069148397 	-3.2351025e-06
0.66666667 	3.077784 	0.00062279011 	-1.5160637e-06
0.67777778 	3.0720949 	0.00052331867 	-6.7802838e-07
0.68888889 	3.0660261 	0.00042366423 	-1.7388758e-07
0.7 	3.0595761 	0.0003214321 	-1.8707115e-06
0.71111111 	3.0528591 	0.00020753944 	-1.5678785e-06
0.72222222 	3.0458842 	0.00011602917 	-2.4089808e-06
0.73333333 	3.0387224 	1.0906292e-06 	-1.8096465e-06
0.74444444 	3.0311567 	-9.0760616e-05 	-2.4389961e-06
0.75555556 	3.0234815 	-0.00020636734 	-1.891118e-06
0.76666667 	3.0152204 	-0.00030014853 	-2.5922577e-06
0.77777778 	3.006859 	-0.00042359372 	-3.0212044e-06
0.78888889 	2.9979158 	-0.00051108064 	-1.9198726e-06
0.8 	2.98877 	-0.00061440176 	-9.6267682e-08
0.81111111 	2.9791064 	-0.0007192433 	-3.2327722e-07
0.82222222 	2.9688753 	-0.00081904454 	-1.704709e-06
0.83333333 	2.9581571 	-0.00092179015 	-7.933185e-07
0.84444444 	2.9464886 	-0.0010130516 	-9.8252512e-08
0.85555556 	2.9336449 	-0.0011000802 	-1.1472261e-06
0.86666667 	2.9194316 	-0.0011799264 	-6.4498384e-07
0.87777778 	2.9032572 	-0.0012499056 	-4.3764207e-08
0.88888889 	2.8838682 	-0.0013108483 	-1.2611856e-06
0.9 	2.8596146 	-0.0013389941 	-1.6977137e-06
0.91111111 	2.8277267 	-0.0013305892 	-1.5537574e-06
0.92222222 	2.7841246 	-0.0012722936 	-8.5238384e-07
0.93333333 	2.723434 	-0.0011567875 	4.5604197e-07
0.94444444 	2.6398065 	-0.00097790087 	1.9463577e-06
0.95555556 	2.5281367 	-0.00080517083 	-1.6721178e-07
0.96666667 	2.3753329 	-0.00055609641 	1.0489376e-06
0.97777778 	2.1474502 	-0.0003618969 	2.539198e-07
0.98888889 	1.7178279 	-0.00049197485 	-3.8456833e-07
