0.37113402 	1.8421582 	0.25810316 	0.00017763738
0.3814433 	2.8906002 	0.3991084 	-0.00057111446
0.39175258 	2.9261854 	0.39097872 	-0.00028231479
0.40206186 	2.9246856 	0.37788374 	-0.00012261119
0.41237113 	2.9186101 	0.36486683 	-0.0006074116
0.42268041 	2.9123222 	0.35208433 	-0.00012608854
0.43298969 	2.9052421 	0.33987076 	-5.7414096e-05
0.44329897 	2.8974568 	0.32798586 	-0.00010686323
0.45360825 	2.8892522 	0.3164749 	-9.7308645e-05
0.46391753 	2.8807736 	0.30537521 	-2.918126e-05
0.4742268 	2.8719297 	0.29469912 	-8.9697698e-05
0.48453608 	2.8629996 	0.28447176 	-0.00018787412
0.49484536 	2.8537334 	0.27452189 	-0.00040651971
0.50515464 	2.8442666 	0.26489708 	-0.00011027488
0.51546392 	2.8345544 	0.25560249 	-0.00014326868
0.5257732 	2.8246125 	0.24667704 	-0.00030548243
0.53608247 	2.8143862 	0.23781325 	-0.00011089011
0.54639175 	2.8042852 	0.22952567 	-0.00029907123
0.55670103 	2.7938322 	0.22128954 	-5.8928843e-05
0.56701031 	2.7835187 	0.21340495 	-0.00020664537
0.57731959 	2.7728722 	0.20564876 	-7.499698e-05
0.58762887 	2.7625017 	0.19823882 	-0.00019597948
0.59793814 	2.7516407 	0.190806 	-0.00013234955
0.60824742 	2.7413464 	0.18394379 	-0.00024958083
0.6185567 	2.7304347 	0.17684323 	-0.00012549658
0.62886598 	2.7200883 	0.17042438 	-7.6802143e-05
0.63917526 	2.7094185 	0.16377814 	-1.8888813e-05
0.64948454 	2.6985094 	0.15742349 	-7.7152741e-05
0.65979381 	2.688133 	0.15140553 	-0.00016757703
0.67010309 	2.6772778 	0.14529335 	-0.00010572508
0.68041237 	2.6665576 	0.13954528 	-5.3956138e-06
0.69072165 	2.6558969 	0.13379806 	-2.0372268e-05
0.70103093 	2.6449521 	0.12824141 	-0.00010884826
0.71134021 	2.633837 	0.12274737 	-0.00012209292
0.72164948 	2.6227397 	0.11732503 	-6.68053e-05
0.73195876 	2.6114177 	0.11208316 	-5.8976681e-06
0.74226804 	2.6000779 	0.10684759 	-1.1156196e-05
0.75257732 	2.5885308 	0.10182802 	-4.3182045e-05
0.7628866 	2.5768485 	0.096839247 	-3.5586372e-05
0.77319588 	2.5649921 	0.092033449 	-5.3982543e-05
0.78350515 	2.5529035 	0.087265001 	-5.0529794e-05
0.79381443 	2.5406489 	0.082580361 	-4.462168e-05
0.80412371 	2.5280911 	0.077928053 	-3.154057e-05
0.81443299 	2.5152645 	0.073376539 	-1.9009665e-05
0.82474227 	2.5021144 	0.068847957 	-7.6990728e-06
0.83505155 	2.4885564 	0.064454424 	-3.6020961e-05
0.84536082 	2.4746593 	0.060068119 	-4.1926718e-05
0.8556701 	2.4601744 	0.05574977 	-4.1351382e-05
0.86597938 	2.4451869 	0.051498722 	-1.6592611e-05
0.87628866 	2.4295718 	0.047266837 	-3.4011724e-05
0.88659794 	2.4130981 	0.043076717 	-5.6872329e-06
0.89690722 	2.3956205 	0.038946712 	-6.0769412e-05
0.90721649 	2.3769806 	0.034844358 	-3.4158024e-05
0.91752577 	2.3567646 	0.030766324 	-6.5303601e-06
0.92783505 	2.3342462 	0.026717196 	-2.585348e-06
0.93814433 	2.3083218 	0.022649901 	-1.9165433e-06
0.94845361 	2.2769266 	0.01863926 	-8.33693e-06
0.95876289 	2.2358023 	0.014628985 	-3.2806429e-05
0.96907216 	2.1725395 	0.010427452 	-2.7017019e-05
0.97938144 	2.0597103 	0.0061669905 	-4.3234185e-06
0.98969072 	1.7337022 	0.0016215981 	-6.7994223e-06
