0 	0.002747857549 	-1.122547483e-16 	-6.446871434e-24 	4.585801226e-30 	2.633658832e-37 	1.512529327e-44
0.0003137191626 	0.00274774186 	1.16548467e-05 	-2.106505538e-10 	0.003731921302 	1.2006207e-08 	7.114079236e-06
0.0006274377305 	0.002748162043 	-1.661917624e-05 	-2.247025727e-11 	0.003774371746 	3.337267633e-09 	7.19500158e-06
0.0007529268723 	0.002748487686 	-2.093453631e-05 	-4.33149454e-08 	0.003776299366 	-3.286995719e-05 	7.198676159e-06
0.000941155703 	0.002748964072 	-2.740702772e-05 	-5.033122851e-11 	0.003779179162 	5.510431955e-09 	7.204165851e-06
0.001254873079 	0.002749745298 	-3.729711146e-05 	-1.689139974e-10 	0.003785108411 	1.462346913e-08 	7.215468647e-06
0.001568589859 	0.002750886275 	-4.692251287e-05 	-3.35507613e-10 	0.00378702419 	2.370080587e-08 	7.219120656e-06
0.001882306041 	0.002752276024 	-5.645267566e-05 	-5.51239331e-10 	0.00378927264 	3.27164204e-08 	7.223406826e-06
0.002196021624 	0.002753921473 	-6.59408233e-05 	-8.161304417e-10 	0.00379173489 	4.166186742e-08 	7.228100559e-06
0.00250973661 	0.002755820995 	-7.540792469e-05 	-1.129922688e-09 	0.003794488769 	5.052518624e-08 	7.233350217e-06
0.002823450996 	0.002757974414 	-8.486362724e-05 	-1.492247164e-09 	0.003797537076 	5.92958183e-08 	7.239161138e-06
0.003137164783 	0.002760380486 	-9.431286437e-05 	-1.902678343e-09 	0.003800902926 	6.79623397e-08 	7.245577382e-06
0.003450877969 	0.002763038019 	-0.0001037583952 	-2.360750478e-09 	0.003804597107 	7.651356133e-08 	7.25261952e-06
0.003764590556 	0.002765945753 	-0.0001132018781 	-2.865964108e-09 	0.003808625772 	8.493848562e-08 	7.260299274e-06
0.004078302543 	0.002769102349 	-0.0001226443785 	-3.417788613e-09 	0.003812992402 	9.32263496e-08 	7.268623284e-06
0.004392013928 	0.00277250637 	-0.0001320866252 	-4.015663413e-09 	0.003817699152 	1.013666328e-07 	7.277595659e-06
0.004705724713 	0.002776156281 	-0.0001415291484 	-4.658998608e-09 	0.003822747312 	1.093490815e-07 	7.287218855e-06
0.005019434897 	0.002780050439 	-0.0001509723579 	-5.347175633e-09 	0.003828137592 	1.171637352e-07 	7.297494225e-06
0.00533314448 	0.0027841871 	-0.0001604165888 	-6.079547657e-09 	0.003833870297 	1.248009461e-07 	7.308422356e-06
0.005646853463 	0.002788564411 	-0.0001698621296 	-6.855440228e-09 	0.00383994544 	1.322514012e-07 	7.320003266e-06
0.005960561844 	0.002793180412 	-0.0001793092399 	-7.674151971e-09 	0.003846362801 	1.395061425e-07 	7.33223654e-06
0.006274269624 	0.002798033027 	-0.0001887581622 	-8.534955397e-09 	0.003853121977 	1.465565862e-07 	7.345121408e-06
0.006587976804 	0.002803120058 	-0.0001982091286 	-9.437097755e-09 	0.003860222408 	1.533945383e-07 	7.358656803e-06
0.006901683384 	0.002808439168 	-0.0002076623662 	-1.037980211e-08 	0.003867663404 	1.600122083e-07 	7.37284141e-06
0.007215389363 	0.002813987835 	-0.0002171180995 	-1.136226843e-08 	0.003875444169 	1.664022203e-07 	7.387673711e-06
0.007529094743 	0.002819763274 	-0.0002265765509 	-1.238367457e-08 	0.003883563843 	1.72557629e-07 	7.403152066e-06
0.007842799523 	0.002825762248 	-0.000236037938 	-1.34431769e-08 	0.003892021605 	1.784718581e-07 	7.41927491e-06
0.008156503703 	0.002831980679 	-0.0002455024673 	-1.453991086e-08 	0.003900816857 	1.841382235e-07 	7.436041106e-06
0.008470207286 	0.002838412833 	-0.0002549703235 	-1.567299445e-08 	0.003909949873 	1.895489836e-07 	7.453451172e-06
0.00878391027 	0.002845049788 	-0.0002644416926 	-1.684152795e-08 	0.003919420523 	1.947006497e-07 	7.471504863e-06
0.009097612657 	0.002851876584 	-0.0002739158579 	-1.804418896e-08 	0.003929233541 	1.996134251e-07 	7.490211203e-06
0.009411314447 	0.002859880806 	-0.0002847143786 	-1.937347106e-08 	0.003940830227 	2.039204666e-07 	7.512317709e-06
0.009898733563 	0.002870315435 	-0.0002982208798 	-2.126965613e-08 	0.003955977574 	2.111059835e-07 	7.541192762e-06
0.01039531224 	0.002882544708 	-0.000313253803 	-2.336666848e-08 	0.003973669655 	2.174730694e-07 	7.574918786e-06
0.01090122258 	0.002895663126 	-0.0003285781499 	-2.558163843e-08 	0.003992600354 	2.233951777e-07 	7.611005961e-06
0.01141663991 	0.002909680779 	-0.0003442051742 	-2.791490339e-08 	0.004012818856 	2.288808423e-07 	7.649548045e-06
0.01194174287 	0.002924616618 	-0.0003601416744 	-3.036750021e-08 	0.004034367018 	2.339071056e-07 	7.69062483e-06
0.01247671344 	0.002940493433 	-0.0003763949037 	-3.29401369e-08 	0.004057286592 	2.384484822e-07 	7.73431591e-06
0.01302173702 	0.002957335875 	-0.0003929724157 	-3.563316529e-08 	0.004081617679 	2.424818059e-07 	7.780697723e-06
0.0135770025 	0.002975169387 	-0.0004098820624 	-3.844653603e-08 	0.004107399698 	2.45985247e-07 	7.829845416e-06
0.01414270231 	0.002994019665 	-0.0004271319958 	-4.137976141e-08 	0.0041346715 	2.489376923e-07 	7.881833051e-06
0.0147190325 	0.00301391237 	-0.0004447306754 	-4.443187501e-08 	0.004163471409 	2.513187315e-07 	7.936733683e-06
0.01530619282 	0.003034872953 	-0.0004626868793 	-4.76013875e-08 	0.00419383719 	2.531087184e-07 	7.994619301e-06
0.01590438673 	0.003056926535 	-0.0004810097171 	-5.088623918e-08 	0.004225805997 	2.542888127e-07 	8.055560732e-06
0.01651382157 	0.003080097808 	-0.0004997086451 	-5.428374954e-08 	0.004259414322 	2.548410137e-07 	8.119627541e-06
0.01713470852 	0.003104410945 	-0.0005187934811 	-5.779056419e-08 	0.004294697931 	2.547481571e-07 	8.186887907e-06
0.01776726278 	0.003129889486 	-0.0005382744233 	-6.140260109e-08 	0.004331691869 	2.539938527e-07 	8.257408634e-06
0.01841170354 	0.003156556205 	-0.0005581619609 	-6.511492243e-08 	0.00437043062 	2.525623079e-07 	8.331255459e-06
0.01906825416 	0.003184432657 	-0.000578473502 	-6.892201005e-08 	0.004410948023 	2.504406375e-07 	8.408492892e-06
0.01973714216 	0.003213571994 	-0.0005992557192 	-7.280535641e-08 	0.004453324973 	2.476053025e-07 	8.489275137e-06
0.02042153748 	0.003244058298 	-0.0006205169795 	-7.679152447e-08 	0.004497677209 	2.440838197e-07 	8.573822825e-06
0.02112091823 	0.003275912251 	-0.0006422725332 	-8.088077231e-08 	0.004544030895 	2.398475565e-07 	8.662185833e-06
0.02183344139 	0.003309100225 	-0.0006645335753 	-8.503019732e-08 	0.004592341417 	2.348616223e-07 	8.754279116e-06
0.02255935386 	0.003343617979 	-0.0006872775493 	-8.923376352e-08 	0.004642603555 	2.291294767e-07 	8.85009272e-06
0.02329890722 	0.003379482913 	-0.0007105193265 	-9.137173238e-08 	0.004694844752 	2.176143325e-07 	8.949678962e-06
0.02405235775 	0.003416711878 	-0.0007342734687 	-8.951244364e-08 	0.004749091437 	1.972085664e-07 	9.053088222e-06
0.02481996657 	0.003455320995 	-0.0007585551273 	-8.742677204e-08 	0.004805369217 	1.776201872e-07 	9.160369312e-06
0.02560199967 	0.003495325591 	-0.0007833800417 	-8.511612755e-08 	0.004863702582 	1.588745426e-07 	9.271568918e-06
0.02639872806 	0.003536740162 	-0.0008087645555 	-8.258297871e-08 	0.004924114993 	1.409957553e-07 	9.386731763e-06
0.02721042784 	0.003579578354 	-0.0008347256312 	-7.983095222e-08 	0.004986628899 	1.240067586e-07 	9.505900643e-06
0.02803738028 	0.003623852946 	-0.0008612808659 	-7.686493685e-08 	0.005051265754 	1.079293734e-07 	9.629116453e-06
0.02887987195 	0.003669575849 	-0.0008884485052 	-7.369119165e-08 	0.005118046021 	9.278440631e-08 	9.756418204e-06
0.0297381948 	0.003716758097 	-0.0009162474566 	-7.031745805e-08 	0.005186989181 	7.859176117e-08 	9.887843029e-06
0.03061264626 	0.00376540984 	-0.0009446973029 	-6.675307596e-08 	0.005258113734 	6.537056235e-08 	1.002342619e-05
0.03150352933 	0.00381554033 	-0.0009738183127 	-6.300910333e-08 	0.005331437202 	5.313928704e-08 	1.01632011e-05
0.03241115274 	0.003867157908 	-0.001003631451 	-5.909843902e-08 	0.005406976125 	4.191590512e-08 	1.030719929e-05
0.03333583098 	0.003920269972 	-0.001034158388 	-5.503594829e-08 	0.005484746059 	3.171802475e-08 	1.04554504e-05
0.03427788447 	0.003974882927 	-0.001065421505 	-5.083859006e-08 	0.005564761568 	2.256303755e-08 	1.060798219e-05
0.03523763963 	0.004031002112 	-0.001097443905 	-4.652554476e-08 	0.005647036224 	1.446823382e-08 	1.076482056e-05
0.03621542904 	0.00408863166 	-0.001130249415 	-4.211834339e-08 	0.005731582644 	7.450893381e-09 	1.092598953e-05
0.03721159148 	0.004147774309 	-0.001163862604 	-3.764098467e-08 	0.005818412425 	1.528633155e-09 	1.109151123e-05
0.03822647215 	0.00420843112 	-0.001198309308 	-3.31207117e-08 	0.005907536085 	-3.279267629e-09 	1.126140569e-05
0.03926042268 	0.004270630694 	-0.001233626936 	-2.858740506e-08 	0.00599900484 	-6.954081554e-09 	1.143577056e-05
0.04031569926 	0.00433448426 	-0.001269907826 	-2.406041095e-08 	0.006092989083 	-9.479033163e-09 	1.161493065e-05
0.04139611951 	0.004400052328 	-0.001307226297 	-1.956555068e-08 	0.006189577614 	-1.082424635e-08 	1.179905524e-05
0.0424968417 	0.004467231992 	-0.001345540071 	-1.516786351e-08 	0.006288618623 	-1.097235344e-08 	1.198785493e-05
0.04361824725 	0.004535940393 	-0.001384824757 	-1.090769808e-08 	0.006389999533 	-9.895471651e-09 	1.218111512e-05
0.04476072477 	0.004606169535 	-0.001425118102 	-6.830801736e-09 	0.006493722744 	-7.571220148e-09 	1.237884039e-05
0.04592467013 	0.004677910562 	-0.001466450475 	-2.986099036e-09 	0.006599788825 	-3.977294214e-09 	1.258103182e-05
0.04691067477 	0.004738812365 	-0.00150170764 	-3.313994248e-08 	0.006689927302 	-4.455060255e-07 	1.275286081e-05
0.04711048667 	0.004751133795 	-0.001508853081 	-5.768879591e-10 	0.006708168378 	2.992431569e-10 	1.278763337e-05
0.04831858527 	0.004825746721 	-0.001552357266 	-3.830322593e-09 	0.006818743789 	1.477560804e-09 	1.299842083e-05
0.04954938458 	0.004901823817 	-0.001596995754 	-6.713922201e-09 	0.006931644001 	1.599528496e-09 	1.321364002e-05
0.05080331105 	0.004979344479 	-0.001642801914 	-9.16651893e-09 	0.007046860989 	6.445128534e-10 	1.343327562e-05
0.0520807992 	0.005058282559 	-0.001689809817 	-1.112293847e-08 	0.007164384935 	-1.410444341e-09 	1.365730892e-05
0.05338229166 	0.005138603815 	-0.001738054254 	-1.25136364e-08 	0.007284204746 	-4.591504618e-09 	1.388571879e-05
0.05470823941 	0.005220261472 	-0.001787570849 	-1.326406981e-08 	0.007406309163 	-8.929797641e-09 	1.411848374e-05
0.05605910188 	0.005303188775 	-0.001838396485 	-1.329362147e-08 	0.007530688556 	-1.446298023e-08 	1.435558543e-05
0.05743534714 	0.00538728727 	-0.001890570947 	-1.251422895e-08 	0.007657338084 	-2.12296913e-08 	1.459701464e-05
0.05883745205 	0.005472432655 	-0.001944146657 	-1.082758611e-08 	0.007786294175 	-2.926149802e-08 	1.484284079e-05
0.06026729956 	0.005558551303 	-0.001999267927 	-8.098349384e-09 	0.007917790509 	-3.877955418e-08 	1.509350935e-05
0.06173156424 	0.005645461349 	-0.002056103834 	-4.202133682e-09 	0.008051981884 	-5.087892617e-08 	1.53493154e-05
0.06322334345 	0.005744053773 	-0.002122640827 	2.174347719e-09 	0.008206201784 	-6.752405329e-08 	1.56433014e-05
0.06551344073 	0.00586643238 	-0.002206450192 	1.129970043e-08 	0.008397054784 	-9.133990748e-08 	1.600712026e-05
0.06782907795 	0.00600162337 	-0.002299261537 	2.437678386e-08 	0.008604986874 	-1.156744362e-07 	1.640349661e-05
0.07017053993 	0.006138237334 	-0.002393933468 	4.059889901e-08 	0.008812697001 	-1.404919086e-07 	1.679944985e-05
0.07253811468 	0.006275869241 	-0.002490505125 	6.009769871e-08 	0.009020194135 	-1.668892871e-07 	1.719499705e-05
0.07493209339 	0.006414248664 	-0.002588888653 	7.002862257e-08 	0.009227409245 	-1.645463275e-07 	1.759000665e-05
0.07735277052 	0.006553180324 	-0.002689004341 	7.687197961e-08 	0.009434186548 	-1.580336684e-07 	1.798418166e-05
0.07980044382 	0.006692692107 	-0.002790906574 	8.104400763e-08 	0.009640589555 	-1.491264652e-07 	1.837764316e-05
0.08228795177 	0.006832875038 	-0.002894702865 	8.232275384e-08 	0.00984668172 	-1.378291748e-07 	1.87705121e-05
0.0848045662 	0.006973465644 	-0.003000172286 	8.060203793e-08 	0.01005195883 	-1.243699194e-07 	1.916182733e-05
0.08734924993 	0.007114164416 	-0.003107056888 	7.575170799e-08 	0.01025588906 	-1.088718478e-07 	1.955057503e-05
0.08992231604 	0.007254837022 	-0.003215264052 	6.767090208e-08 	0.01045819158 	-9.141039216e-08 	1.993621986e-05
0.09252408108 	0.007395368843 	-0.003324685471 	5.626966104e-08 	0.01065860265 	-7.200234311e-08 	2.031825905e-05
0.09515486517 	0.007535643908 	-0.003435202297 	4.147139597e-08 	0.0108568454 	-5.062310055e-08 	2.069616484e-05
0.09781499197 	0.007675577003 	-0.003546694597 	2.321459862e-08 	0.01105267374 	-2.720914569e-08 	2.106946809e-05
0.100507166 	0.007815229209 	-0.003659181197 	1.436086431e-09 	0.01124602797 	-1.625683553e-09 	2.143805498e-05
0.1006723289 	0.007823650041 	-0.003666032796 	-3.517055325e-08 	0.01125754865 	-3.055024652e-07 	2.146001661e-05
0.1032407961 	0.007954133205 	-0.003772442879 	1.622624076e-08 	0.01143611687 	5.398878059e-10 	2.180041726e-05
0.1060049194 	0.008092437573 	-0.003886279638 	3.696642098e-08 	0.01162290508 	-1.295554724e-09 	2.215648751e-05
0.108799876 	0.008229908591 	-0.0040003859 	6.12503364e-08 	0.01180589989 	-5.954797783e-09 	2.250532647e-05
0.11162601 	0.008366415871 	-0.004114565069 	8.901925167e-08 	0.01198475477 	-1.383213718e-08 	2.284627358e-05
0.114483669 	0.008501827133 	-0.004228585691 	1.201909865e-07 	0.01215911086 	-2.538070169e-08 	2.317864476e-05
0.1173732048 	0.008636018775 	-0.004342195464 	1.54660972e-07 	0.01232861495 	-4.111633126e-08 	2.350176666e-05
0.1202961886 	0.008768991741 	-0.004455269016 	1.923641342e-07 	0.01249307221 	-6.166196119e-08 	2.381526791e-05
0.1232641206 	0.008900706319 	-0.004567649254 	2.333331871e-07 	0.01265222806 	-8.78160369e-08 	2.411866319e-05
0.1262651629 	0.009030802774 	-0.00467884518 	2.77345549e-07 	0.01280546542 	-1.203737316e-07 	2.441077618e-05
0.1292996849 	0.009158903897 	-0.004788411555 	3.244157746e-07 	0.01295224181 	-1.602884147e-07 	2.469057278e-05
0.1323680601 	0.00928470524 	-0.004896047091 	3.551662263e-07 	0.01309219331 	-1.97784749e-07 	2.495735924e-05
0.1354706662 	0.009407839216 	-0.005001435246 	3.35618581e-07 	0.01322497239 	-2.088885896e-07 	2.521047306e-05
0.138607885 	0.00952793473 	-0.005104320988 	3.132752e-07 	0.01335031724 	-2.16224586e-07 	2.544941519e-05
0.1417873791 	0.009644595098 	-0.005204573744 	2.881566265e-07 	0.01346801664 	-2.188120222e-07 	2.567378295e-05
0.1450082501 	0.009757217316 	-0.005301916446 	2.601890542e-07 	0.01357769328 	-2.155260652e-07 	2.588285711e-05
0.1482650567 	0.009865060494 	-0.005395972449 	2.291482028e-07 	0.01367886387 	-2.051706947e-07 	2.607571639e-05
0.1515582 	0.00996744357 	-0.005486515448 	1.946012684e-07 	0.01377109796 	-1.865397572e-07 	2.625154019e-05
0.1548880853 	0.01006376153 	-0.005573346471 	1.560263089e-07 	0.0138539536 	-1.586165388e-07 	2.640948608e-05
0.1582551226 	0.01015350524 	-0.005656253105 	1.129596137e-07 	0.01392693353 	-1.207347236e-07 	2.65486061e-05
0.1616658524 	0.01023626472 	-0.005735051746 	6.507502718e-08 	0.01398944855 	-7.259129392e-08 	2.66677771e-05
0.1651212069 	0.01031161621 	-0.005809344219 	1.253866822e-08 	0.01404071806 	-1.451650948e-08 	2.676551104e-05
0.1659171165 	0.01032697001 	-0.00582509352 	5.475605343e-07 	0.01404961154 	-2.581192593e-06 	2.678246447e-05
0.1686151167 	0.01037889001 	-0.005878358838 	3.716556792e-08 	0.01407950947 	-3.829768071e-08 	2.683945826e-05
0.1721480121 	0.01043794708 	-0.005941577712 	8.708933041e-08 	0.01410518879 	-9.649152102e-08 	2.688841017e-05
0.175720328 	0.01048852264 	-0.005998358801 	1.37840844e-07 	0.01411698024 	-1.635547731e-07 	2.691088795e-05
0.1793325041 	0.0105302363 	-0.006047983252 	1.881336106e-07 	0.01411403482 	-2.387082373e-07 	2.690527315e-05
0.182994898 	0.01056259202 	-0.006089737717 	2.370400046e-07 	0.01409552681 	-3.215402958e-07 	2.686999175e-05
0.1867003698 	0.01058493111 	-0.00612280004 	2.837854328e-07 	0.01406074007 	-4.114889192e-07 	2.680367856e-05
0.1904471912 	0.01059651772 	-0.006146419299 	3.282470772e-07 	0.01400913009 	-5.082324584e-07 	2.670529559e-05
0.1942358234 	0.01059657725 	-0.00616003741 	3.708747691e-07 	0.01394029175 	-6.11466685e-07 	2.657407059e-05
0.1980667329 	0.01058431796 	-0.006163203999 	4.125314454e-07 	0.01385393376 	-7.207018659e-07 	2.640944825e-05
0.201946184 	0.01055894459 	-0.006155649594 	4.544016563e-07 	0.01374982733 	-8.352129407e-07 	2.621099245e-05
0.205874617 	0.01051974506 	-0.006137213855 	4.79934228e-07 	0.01362792907 	-9.198233543e-07 	2.597862049e-05
0.2098468907 	0.01046618552 	-0.006107873174 	4.341233189e-07 	0.01348843687 	-8.588750606e-07 	2.57127096e-05
0.2138634941 	0.01039790275 	-0.006067801167 	3.904611144e-07 	0.01333165839 	-7.892243051e-07 	2.541384623e-05
0.2179249219 	0.01031468619 	-0.006017249462 	3.479333872e-07 	0.01315795469 	-7.115132173e-07 	2.50827187e-05
0.2220370961 	0.01021646777 	-0.005956573921 	3.055188126e-07 	0.01296772747 	-6.266533136e-07 	2.472009274e-05
0.226200533 	0.01010343576 	-0.005886209994 	2.62483148e-07 	0.01276162957 	-5.361451205e-07 	2.432721287e-05
0.2304104359 	0.00997607457 	-0.005806678254 	2.184024194e-07 	0.01254061041 	-4.418288973e-07 	2.390588893e-05
0.2346673231 	0.009835032782 	-0.005718573692 	1.731471044e-07 	0.01230570424 	-3.455860582e-07 	2.345809247e-05
0.238971719 	0.009681029804 	-0.005622464098 	1.269352278e-07 	0.01205792553 	-2.493493239e-07 	2.298575739e-05
0.2433319693 	0.009514880469 	-0.005518942403 	8.02032501e-08 	0.0117983295 	-1.548532717e-07 	2.24908952e-05
0.2477431375 	0.009337695234 	-0.005408687541 	3.375296168e-08 	0.01152833774 	-6.402798303e-08 	2.197621588e-05
0.2510499412 	0.009199086527 	-0.005322489541 	2.381569884e-06 	0.0113216452 	-5.417060378e-06 	2.158220245e-05
0.2522035389 	0.009150751913 	-0.005292429668 	1.224084896e-08 	0.01124954481 	-2.256365742e-08 	2.144475905e-05
0.2567137226 	0.008955319428 	-0.005170895958 	5.828017053e-08 	0.01096348107 	-1.055808188e-07 	2.089944206e-05
0.2612769989 	0.008752558999 	-0.005044712931 	1.018810205e-07 	0.01067147304 	-1.81693018e-07 	2.034279361e-05
0.2658977798 	0.008543734839 	-0.004914573127 	1.424442394e-07 	0.01037498252 	-2.504718753e-07 	1.977760026e-05
0.2705701354 	0.008330288782 	-0.004781241746 	1.796105447e-07 	0.01007568849 	-3.118436653e-07 	1.920706265e-05
0.275294641 	0.008113584813 	-0.004645459392 	2.133517589e-07 	0.00977514266 	-3.662216966e-07 	1.863413877e-05
0.2800721922 	0.007894770706 	-0.004507872705 	2.438245419e-07 	0.009474610439 	-4.142289495e-07 	1.806124083e-05
0.2849113354 	0.007674897329 	-0.004369099411 	2.713251317e-07 	0.009175236296 	-4.566383075e-07 	1.74905505e-05
0.2898044922 	0.007455148614 	-0.004229842581 	2.961148717e-07 	0.00887836059 	-4.941572052e-07 	1.69246229e-05
0.2947522652 	0.007236558512 	-0.004090752869 	3.186161767e-07 	0.008585140466 	-5.277164898e-07 	1.636566384e-05
0.2997552636 	0.007019870531 	-0.003952366747 	3.392920719e-07 	0.008296375487 	-5.581932357e-07 	1.581519754e-05
0.3048217599 	0.006805673669 	-0.003815160881 	3.586035587e-07 	0.008012684644 	-5.863624984e-07 	1.527440394e-05
0.3099449938 	0.006594626304 	-0.003679656356 	3.467472801e-07 	0.007734794557 	-5.637805326e-07 	1.47446682e-05
0.3151254131 	0.006387215145 	-0.003546284328 	3.089829211e-07 	0.00746322645 	-4.997501839e-07 	1.422698391e-05
0.3203643454 	0.006183658497 	-0.003415349684 	2.740854931e-07 	0.007198173196 	-4.411431396e-07 	1.372171874e-05
0.3256681805 	0.005984047958 	-0.003287079046 	2.416701061e-07 	0.006939683663 	-3.872057605e-07 	1.322896585e-05
0.3310312183 	0.00578851078 	-0.003161699137 	2.114586791e-07 	0.006687862776 	-3.373949155e-07 	1.274892525e-05
0.3364541189 	0.005597010397 	-0.003039335789 	1.831882017e-07 	0.006442624526 	-2.910901106e-07 	1.228143298e-05
0.3419400009 	0.005409316373 	-0.002920006032 	1.568668962e-07 	0.006203656483 	-2.477013723e-07 	1.182589347e-05
0.3474910806 	0.005225151462 	-0.002803680151 	1.321373459e-07 	0.005970601582 	-2.06837975e-07 	1.138162606e-05
0.3531041231 	0.005044246813 	-0.002690313063 	1.079798265e-07 	0.005743105609 	-1.681313152e-07 	1.09479555e-05
0.3587798191 	0.004866214078 	-0.002579760085 	8.44976307e-08 	0.005520644921 	-1.313141093e-07 	1.05238836e-05
0.3645235755 	0.004690556815 	-0.002471791183 	6.20238745e-08 	0.005302572659 	-9.610725054e-08 	1.010817726e-05
0.3703324803 	0.004516818394 	-0.002366170365 	4.033899282e-08 	0.00508831903 	-6.228900025e-08 	9.699750297e-06
0.3762062255 	0.004344489877 	-0.002262564552 	1.927616165e-08 	0.004877281962 	-2.973863351e-08 	9.297454991e-06
0.3818349366 	0.00418196825 	-0.002166049608 	3.122823342e-07 	0.00467972901 	-6.47450828e-07 	8.920864156e-06
0.3821475528 	0.004172943202 	-0.002160689664 	1.089924748e-09 	0.004668757835 	-1.686869088e-09 	8.899950047e-06
0.3881582854 	0.004001557324 	-0.002060550178 	2.099841361e-08 	0.004462094151 	-3.284079388e-08 	8.505991627e-06
0.3942361112 	0.003829839518 	-0.001961830279 	3.972228595e-08 	0.004256609342 	-6.289597581e-08 	8.114280468e-06
0.4003822316 	0.003657305526 	-0.001863974578 	5.797067271e-08 	0.004051585255 	-9.202530712e-08 	7.723447575e-06
0.4066010098 	0.003483416091 	-0.001766587454 	7.562056652e-08 	0.003846367985 	-1.200768911e-07 	7.332246421e-06
0.4128892032 	0.003307765137 	-0.001669317729 	9.254493891e-08 	0.003640459724 	-1.469182767e-07 	6.939728048e-06
0.4192475857 	0.003129984053 	-0.001571827199 	1.086073086e-07 	0.003433394356 	-1.724920274e-07 	6.545003906e-06
0.4256805892 	0.002949767825 	-0.001473795032 	1.236859105e-07 	0.003224759963 	-1.96643285e-07 	6.147288764e-06
0.4321857004 	0.002767011752 	-0.001374973438 	1.376526929e-07 	0.003014369043 	-2.191063606e-07 	5.746225196e-06
0.4387634212 	0.002581750741 	-0.001275168384 	1.503815868e-07 	0.002802190759 	-2.396470018e-07 	5.341754415e-06
0.4454175046 	0.002394188678 	-0.001174259906 	1.616912052e-07 	0.002588369792 	-2.579306325e-07 	4.934152223e-06
0.4521463543 	0.002204845679 	-0.001072261805 	1.713315638e-07 	0.002373394845 	-2.734837218e-07 	4.524350225e-06
0.4589503101 	0.002014554943 	-0.0009693242379 	1.790700818e-07 	0.002158089216 	-2.858127728e-07 	4.113917856e-06
0.4658328557 	0.001824532947 	-0.0008657714914 	1.846010567e-07 	0.001943676393 	-2.942352651e-07 	3.705187423e-06
0.4727925432 	0.001636577313 	-0.0007621980441 	1.87508768e-07 	0.001732008108 	-2.978185356e-07 	3.301688841e-06
0.479829972 	0.001453142276 	-0.0006595348789 	1.873074028e-07 	0.001525654035 	-2.95447924e-07 	2.908320624e-06
0.486948429 	0.00127745567 	-0.000559192344 	1.833724154e-07 	0.001328055961 	-2.857467465e-07 	2.531643776e-06
0.4941463394 	0.001113964956 	-0.0004633684023 	1.751170977e-07 	0.001144057416 	-2.674366913e-07 	2.180891409e-06
0.5013447716 	0.0009684462451 	-0.0003751084985 	1.619830168e-07 	0.0009800065973 	-2.394349938e-07 	1.868164953e-06
0.508465376 	0.0008460165594 	-0.000297211839 	1.339013998e-07 	0.0008415150346 	-1.876882821e-07 	1.604161543e-06
0.5155074155 	0.0007494904988 	-0.0002312524615 	1.077944805e-07 	0.0007315935497 	-1.383895524e-07 	1.394620642e-06
0.5224724405 	0.0006794258495 	-0.0001774825233 	8.509975266e-08 	0.0006506586292 	-9.445253825e-08 	1.240336188e-06
0.5293615891 	0.0006341327045 	-0.0001349148648 	6.668794766e-08 	0.0005966001809 	-5.836258654e-08 	1.137285761e-06
0.5361747244 	0.0006099548126 	-0.000101758283 	5.254409491e-08 	0.000565235072 	-3.131161862e-08 	1.077495146e-06
0.5429133278 	0.0006021033663 	-7.603389645e-05 	4.202664222e-08 	0.0005513113511 	-1.295517965e-08 	1.050952664e-06
0.5495782327 	0.0006056692214 	-5.600172291e-05 	3.433363618e-08 	0.0005496051879 	-1.810611158e-09 	1.047700243e-06
0.5561695966 	0.0006163893567 	-4.027592985e-05 	2.877155941e-08 	0.0005556791474 	4.049136476e-09 	1.059278898e-06
0.5626887148 	0.0006310002741 	-2.776449919e-05 	2.482894828e-08 	0.000566174305 	6.440827358e-09 	1.079285585e-06
0.5691364214 	0.0006472272826 	-1.758575973e-05 	2.21029315e-08 	0.0005787734279 	6.810134436e-09 	1.103303015e-06
0.5755129821 	0.0006635809772 	-9.026330977e-06 	2.018861335e-08 	0.0005920220277 	6.040621427e-09 	1.128558529e-06
0.5818194612 	0.0006791538214 	-1.537519252e-06 	1.87625437e-08 	0.0006050629345 	4.625565122e-09 	1.153418122e-06
0.5880568427 	0.0006934443386 	5.283064505e-06 	1.763266316e-08 	0.0006174086372 	2.891605175e-09 	1.176952462e-06
0.5942253977 	0.0007062088652 	1.17274849e-05 	1.667524834e-08 	0.0006288131724 	1.010181193e-09 	1.198692676e-06
0.6003259628 	0.0007173746057 	1.800797877e-05 	1.582518832e-08 	0.0006391730908 	-9.099849718e-10 	1.21844156e-06
0.6063597157 	0.0007269827047 	2.428453821e-05 	1.506058706e-08 	0.0006484715978 	-2.783838967e-09 	1.236167099e-06
0.612326888 	0.00073515333 	3.06870644e-05 	1.438278371e-08 	0.000656756209 	-4.538985743e-09 	1.25195987e-06
0.6182282137 	0.0007420687941 	3.733388963e-05 	1.380344172e-08 	0.0006641307351 	-6.107271897e-09 	1.266017767e-06
0.6240647607 	0.0007479657115 	4.43433433e-05 	1.334204468e-08 	0.0006707515494 	-7.4208371e-09 	1.278638879e-06
0.6298369959 	0.0007531346323 	5.184052263e-05 	1.302359384e-08 	0.0006768317968 	-8.411857414e-09 	1.29022952e-06
0.6355455349 	0.0007579248336 	5.996456114e-05 	1.287228763e-08 	0.0006826519907 	-9.010390421e-09 	1.301324428e-06
0.6411911782 	0.0007627506919 	6.887544977e-05 	1.291242186e-08 	0.0006885641452 	-9.143351285e-09 	1.312594637e-06
0.6467747435 	0.000768097889 	7.875741308e-05 	1.317112343e-08 	0.0006949997683 	-8.737711392e-09 	1.324862724e-06
0.6522966938 	0.000774529109 	8.982324373e-05 	1.36746474e-08 	0.0007024804565 	-7.720577899e-09 	1.339122995e-06
0.6577577088 	0.0007826888921 	0.0001023193226 	1.444899727e-08 	0.0007116236747 	-6.021449423e-09 	1.35655251e-06
0.6631586198 	0.0007933054899 	0.0001165280719 	1.552151876e-08 	0.0007231427848 	-3.575524838e-09 	1.378511135e-06
0.6685000027 	0.0008071865653 	0.000132767313 	1.69211067e-08 	0.0007378430302 	-3.282869364e-10 	1.406533888e-06
0.6737824424 	0.0008252060048 	0.0001513878418 	1.866989181e-08 	0.0007566109205 	3.75791872e-09 	1.442310704e-06
0.679006589 	0.0008482791627 	0.0001727662861 	2.077957062e-08 	0.0007803875522 	8.692830665e-09 	1.487635572e-06
0.6841732363 	0.0008773241386 	0.0001972886825 	2.324752821e-08 	0.0008101274765 	1.444835511e-08 	1.544328134e-06
0.6892828813 	0.0009132092753 	0.0002253257246 	2.605038333e-08 	0.0008467451192 	2.094994496e-08 	1.614131538e-06
0.6943361397 	0.000956693234 	0.0002572035232 	2.913566609e-08 	0.0008910528025 	2.806851499e-08 	1.698594297e-06
0.6993336336 	0.001008365431 	0.0002931723892 	3.242574181e-08 	0.0009436949848 	3.562556091e-08 	1.798944927e-06
0.7042760903 	0.001068596636 	0.0003333780617 	3.582960324e-08 	0.001005092108 	4.341320571e-08 	1.915984909e-06
0.7091640066 	0.001137509466 	0.0003778436402 	3.92530639e-08 	0.001075407768 	5.12162726e-08 	2.050026101e-06
0.7139979828 	0.001214977488 	0.0004264695774 	4.260663074e-08 	0.001154545975 	5.883082677e-08 	2.200885518e-06
0.7187786138 	0.001300650749 	0.0004790490047 	4.581966954e-08 	0.001242175868 	6.608953946e-08 	2.367932449e-06
0.7235065557 	0.001394000385 	0.0005352931437 	4.885004866e-08 	0.001337776754 	7.288090978e-08 	2.550174309e-06
0.7281823321 	0.001494372824 	0.0005948606949 	5.168398423e-08 	0.001440696324 	7.915212202e-08 	2.746367615e-06
0.7328065091 	0.001601046032 	0.0006573890616 	5.432267445e-08 	0.001550211292 	8.488900297e-08 	2.955133582e-06
0.737379656 	0.001713279022 	0.0007225200629 	5.678206071e-08 	0.001665579442 	9.011319372e-08 	3.175057341e-06
0.7419023644 	0.00183034985 	0.000789917694 	5.908951252e-08 	0.001786077769 	9.487405173e-08 	3.404760641e-06
0.7463751843 	0.001951581731 	0.0008592771335 	6.128554956e-08 	0.001911028958 	9.924764679e-08 	3.642952336e-06
0.7507986441 	0.002076359219 	0.0009303305261 	6.340722022e-08 	0.002039819603 	1.033063213e-07 	3.888463102e-06
0.7551732887 	0.002204136713 	0.001002850436 	6.549184051e-08 	0.002171907869 	1.071221262e-07 	4.140260048e-06
0.7594996577 	0.002334440736 	0.001076648931 	6.757720999e-08 	0.002306824918 	1.107655371e-07 	4.397449443e-06
0.7637783137 	0.002466867851 	0.001151575123 	6.970733073e-08 	0.002444171256 	1.143144103e-07 	4.659269736e-06
0.7680097523 	0.002601079951 	0.001227510628 	7.192556737e-08 	0.002583612985 	1.178426478e-07 	4.925084427e-06
0.7721944944 	0.002736799306 	0.001304368554 	7.426856342e-08 	0.002724877178 	1.214115034e-07 	5.194373241e-06
0.7763330552 	0.002873802896 	0.001382090052 	7.677028031e-08 	0.002867746168 	1.250776992e-07 	5.466721246e-06
0.7804259499 	0.003011916096 	0.001460641514 	7.946112035e-08 	0.00301205087 	1.288938658e-07 	5.741806114e-06
0.7844736913 	0.003151006604 	0.001540009418 	8.23742415e-08 	0.003157663528 	1.329202899e-07 	6.019384311e-06
0.7884767633 	0.003290978278 	0.001620195506 	8.55322277e-08 	0.003304493872 	1.372041001e-07 	6.299283756e-06
0.7924356588 	0.003431765456 	0.001701215238 	8.894670452e-08 	0.003452482953 	1.417805179e-07 	6.581392076e-06
0.7963508653 	0.003573327423 	0.00178309199 	9.262008858e-08 	0.003601597822 	1.466762975e-07 	6.865646461e-06
0.8002228677 	0.003715642394 	0.001865853912 	9.654460419e-08 	0.003751825524 	1.519088547e-07 	7.152022215e-06
0.8040521488 	0.003858701767 	0.001949527693 	1.007090925e-07 	0.003903165796 	1.574970239e-07 	7.440518836e-06
0.8078391712 	0.004002504069 	0.002034132678 	1.050865573e-07 	0.004055626821 	1.634408799e-07 	7.731151923e-06
0.8115844012 	0.004147048939 	0.002119678648 	1.096333796e-07 	0.004209218906 	1.69721389e-07 	8.023941126e-06
0.8152883001 	0.004292331257 	0.002206159728 	1.142913025e-07 	0.00436394784 	1.76304228e-07 	8.318897479e-06
0.8189513238 	0.004438334864 	0.002293549972 	1.189854434e-07 	0.004519809387 	1.831385383e-07 	8.616012907e-06
0.8225739295 	0.004585026286 	0.002381798911 	1.236260287e-07 	0.004676781646 	1.901625455e-07 	8.915245661e-06
0.8261565578 	0.004732348537 	0.002470824021 	1.281019642e-07 	0.004834819121 	1.973010919e-07 	9.216509013e-06
0.8296996493 	0.004880214721 	0.002560506656 	1.322629502e-07 	0.004993848253 	2.044501909e-07 	9.519662738e-06
0.8332036402 	0.005028501639 	0.002650686932 	1.359421148e-07 	0.005153765455 	2.115872415e-07 	9.824509373e-06