0.2478607252 	2.921371811e-07 	-1.052452213e-09 	-1.016253856e-12 	2.90276558e-07 	2.475235972e-10 	5.533477977e-10
0.2480966905 	4.867639968e-06 	-7.642651087e-08 	-5.261951207e-11 	4.764450363e-06 	3.117403513e-09 	9.082366602e-09
0.248332665 	3.053063914e-05 	-1.160807156e-06 	-7.009311046e-10 	2.906696258e-05 	1.772037273e-08 	5.540970942e-08
0.248568647 	0.0001097890496 	-7.785409882e-06 	-4.421019704e-09 	0.000100358141 	6.007908266e-08 	1.913105098e-07
0.2488046349 	0.0002866161874 	-3.244280215e-05 	-1.801057585e-08 	0.0002487157995 	1.509057064e-07 	4.741214408e-07
0.2490406268 	0.0006094255865 	-9.820987267e-05 	-5.452179746e-08 	0.0004988650305 	3.121479463e-07 	9.509754004e-07
0.2492766213 	0.001118978124 	-0.0002348915134 	-1.313499451e-07 	0.0008642138496 	5.619589061e-07 	1.647431793e-06
0.2495126165 	0.001831320054 	-0.000467124681 	-2.611396345e-07 	0.001342262462 	9.091281773e-07 	2.558725316e-06
0.2497486107 	0.002724961289 	-0.0008006267252 	-4.397566947e-07 	0.001912673277 	1.350832949e-06 	3.646086867e-06
0.2499846024 	0.003742766627 	-0.001217043369 	-6.441952454e-07 	0.00254026633 	1.876115443e-06 	4.842453656e-06
0.2502205898 	0.004808893272 	-0.001681369308 	-8.471099651e-07 	0.003183111379 	2.47533951e-06 	6.067894988e-06
0.2504565713 	0.005850316695 	-0.002155843496 	-1.009940242e-06 	0.003801502558 	3.155384953e-06 	7.246720449e-06
0.2506925451 	0.006810135347 	-0.002607226888 	-1.384894436e-06 	0.004365685688 	3.749793293e-06 	8.322210301e-06
0.2509285096 	0.007638590289 	-0.002975480955 	-2.11891051e-06 	0.004868414783 	4.16001809e-06 	9.280551682e-06
0.2511644632 	0.008324849795 	-0.003249443348 	-2.666939798e-06 	0.005305101769 	4.57188399e-06 	1.011299845e-05
0.2514004042 	0.00888828597 	-0.003469508315 	-2.938186325e-06 	0.005665985946 	5.029834638e-06 	1.080094399e-05
0.2516363308 	0.009335451814 	-0.003643804543 	-3.210634843e-06 	0.005952123218 	5.48335356e-06 	1.134640116e-05
0.2518722415 	0.009672134193 	-0.003774683762 	-3.487995715e-06 	0.006167549596 	5.9409064e-06 	1.175706371e-05
0.2521081347 	0.009905425732 	-0.003864864459 	-3.770768536e-06 	0.006316565368 	6.405219041e-06 	1.204112919e-05
0.2523440085 	0.01004296412 	-0.003917325908 	-4.056356509e-06 	0.006403945642 	6.871451569e-06 	1.220770028e-05
0.2525798615 	0.01009240967 	-0.003935095925 	-4.341103032e-06 	0.006434585248 	7.33377841e-06 	1.226610788e-05
0.2528156919 	0.01006115075 	-0.00392111907 	-4.620302221e-06 	0.006413255792 	7.78472116e-06 	1.222544801e-05
0.2530514981 	0.009956176412 	-0.00387820219 	-4.888305776e-06 	0.006344515452 	8.215191036e-06 	1.209440982e-05
0.2532872785 	0.009784299205 	-0.003809098427 	-5.134806865e-06 	0.006232850823 	8.608445575e-06 	1.1881546e-05
0.2535230314 	0.009552945395 	-0.003716808599 	-5.341354579e-06 	0.006083169297 	8.9345884e-06 	1.159621141e-05
0.2537587551 	0.009270597092 	-0.00360474575 	-5.494276049e-06 	0.005901063025 	9.17167928e-06 	1.124906624e-05
0.2539944482 	0.008945656432 	-0.003476285755 	-5.598945331e-06 	0.005692069878 	9.328910656e-06 	1.085066722e-05
0.2542301088 	0.008584796153 	-0.003334115821 	-5.667481384e-06 	0.005460606121 	9.426536433e-06 	1.040943296e-05
0.2544657354 	0.008192863404 	-0.003180192029 	-5.701417301e-06 	0.005209899206 	9.46760722e-06 	9.931515904e-06
0.2547013264 	0.007774062591 	-0.003016173488 	-5.694014923e-06 	0.004942630824 	9.44144928e-06 	9.422028083e-06
0.2549368801 	0.007270178893 	-0.002819336547 	-5.654874313e-06 	0.004621724062 	9.36237484e-06 	8.810290604e-06
0.2553027985 	0.006615661527 	-0.002564446691 	-5.450589757e-06 	0.004206085068 	9.009122691e-06 	8.017967161e-06
0.2556754916 	0.005870723632 	-0.00227523374 	-5.12995873e-06 	0.003734441815 	8.465993505e-06 	7.118884034e-06
0.2560550761 	0.005116283125 	-0.001983181732 	-4.681926836e-06 	0.0032581339 	7.7162721e-06 	6.210908764e-06
0.2564416703 	0.004374534346 	-0.001696762958 	-4.125428333e-06 	0.002791016679 	6.791419376e-06 	5.320453513e-06
0.2568353939 	0.003667787163 	-0.001424466687 	-3.494152941e-06 	0.002347041004 	5.746504348e-06 	4.47411248e-06
0.2572363681 	0.003016541451 	-0.001174055161 	-2.832147749e-06 	0.001938964243 	4.652647225e-06 	3.696204755e-06
0.2576447153 	0.002437506286 	-0.0009518247945 	-2.187591052e-06 	0.001577231568 	3.589085785e-06 	3.006641737e-06
0.2580605592 	0.001941760981 	-0.0007617191774 	-1.612717224e-06 	0.0012687057 	2.627502582e-06 	2.418505683e-06
0.2584840249 	0.001532793342 	-0.0006035449057 	-1.211980933e-06 	0.001015937404 	1.811881529e-06 	1.936659058e-06
0.2589152389 	0.001201637234 	-0.0004643787858 	-9.369128876e-07 	0.0008177880666 	1.174232651e-06 	1.558931347e-06
0.2593543286 	0.0009362995181 	-0.0003359787798 	-6.367361797e-07 	0.000668106988 	7.155793243e-07 	1.27359761e-06
0.2598014228 	0.0007328410305 	-0.0002296413666 	-3.602268181e-07 	0.0005579630789 	3.947297545e-07 	1.063632706e-06
0.2602566512 	0.0005869176337 	-0.0001525111546 	-1.776249052e-07 	0.0004812395492 	1.825662454e-07 	9.173763343e-07
0.260720145 	0.0004894483925 	-0.0001006672018 	-7.581023129e-08 	0.0004332963977 	6.187695005e-08 	8.259833625e-07
0.2611920358 	0.0004289485045 	-6.660405996e-05 	-2.410355155e-08 	0.0004084604372 	9.100587755e-09 	7.78639119e-07
0.2616714541 	0.0003947882061 	-4.434980335e-05 	2.090278666e-09 	0.0004006020059 	-8.037628698e-10 	7.636587648e-07
0.261672451 	0.0003947173417 	-4.430350503e-05 	-6.148177163e-11 	0.000400585991 	3.79101898e-11 	7.63628236e-07
0.2621588784 	0.0003786433186 	-2.965588378e-05 	-1.892511834e-08 	0.0004047154949 	-9.180299194e-11 	7.715002181e-07
0.2626540653 	0.0003735846169 	-1.957983151e-05 	-2.446543477e-08 	0.0004160553913 	-2.445544492e-08 	7.931172125e-07
0.2631581466 	0.0003753960293 	-1.250407081e-05 	-2.416694955e-08 	0.0004316542927 	-5.925526247e-08 	8.228530539e-07
0.2636712583 	0.0003813534546 	-7.459059384e-06 	-2.141579143e-08 	0.0004495315002 	-9.66779476e-08 	8.569319803e-07
0.2641935365 	0.0003897504362 	-3.826422128e-06 	-1.770899818e-08 	0.0004684897294 	-1.335147505e-07 	8.930716342e-07
0.2647251181 	0.000399533298 	-1.190721021e-06 	-1.375865866e-08 	0.0004878489854 	-1.690111631e-07 	9.299757567e-07
0.2652661398 	0.000410057791 	7.359722645e-07 	-9.897137301e-09 	0.0005072548912 	-2.033966336e-07 	9.669688068e-07
0.265816739 	0.0004209401727 	2.161773564e-06 	-6.266384559e-09 	0.0005265517708 	-2.371918381e-07 	1.003754023e-06
0.2663787789 	0.0004320363977 	3.240065105e-06 	-2.891484355e-09 	0.0005458344157 	-2.710180133e-07 	1.040512103e-06
0.2669678609 	0.0004432770355 	4.079216149e-06 	2.60313891e-10 	0.0005651908033 	-3.061341652e-07 	1.077410758e-06
0.2675675323 	0.0004544917457 	4.752396355e-06 	3.206317789e-09 	0.0005844553722 	-3.418061056e-07 	1.11413438e-06
0.2681779758 	0.0004655602744 	5.31408352e-06 	5.942273479e-09 	0.000603518321 	-3.780796537e-07 	1.150473659e-06
0.2687993775 	0.0004764740734 	5.807613054e-06 	8.49727079e-09 	0.0006224125899 	-4.14812719e-07 	1.186491387e-06
0.269431926 	0.0004872486982 	6.256397207e-06 	1.099382602e-08 	0.0006411680954 	-4.517587997e-07 	1.222244593e-06
0.2700758133 	0.0004978896825 	6.670381925e-06 	1.360490988e-08 	0.0006598891993 	-4.907028596e-07 	1.257932221e-06
0.2707312343 	0.0005083838826 	7.060968523e-06 	1.645264453e-08 	0.0006787152157 	-5.33931552e-07 	1.29381984e-06
0.2713983871 	0.0005187607434 	7.438486815e-06 	1.956112735e-08 	0.0006975947528 	-5.796625672e-07 	1.329809485e-06
0.2720774729 	0.000529028321 	7.816539898e-06 	2.266934999e-08 	0.0007165545324 	-6.263331509e-07 	1.365952095e-06
0.2727686961 	0.0005391637611 	8.209059009e-06 	2.574612713e-08 	0.000735730743 	-6.709691824e-07 	1.402507282e-06
0.2734722645 	0.0005492045415 	8.61761513e-06 	2.636416769e-08 	0.0007550442371 	-6.478267307e-07 	1.43932417e-06
0.274188389 	0.0005591955573 	9.042431469e-06 	2.613885565e-08 	0.0007744102948 	-6.067557252e-07 	1.476241258e-06
0.274917284 	0.0005691530661 	9.483987725e-06 	2.584377432e-08 	0.0007938657466 	-5.663945004e-07 	1.513328757e-06
0.2756591673 	0.0005790904163 	9.937919901e-06 	2.541924528e-08 	0.0008134631961 	-5.258288163e-07 	1.550686942e-06
0.27641426 	0.0005890228407 	1.040052239e-05 	2.475088478e-08 	0.0008332394896 	-4.843690262e-07 	1.588386054e-06
0.277182787 	0.0005989662015 	1.087044247e-05 	2.379660273e-08 	0.0008532168824 	-4.417457194e-07 	1.626468517e-06
0.2779649765 	0.0006089355034 	1.134671451e-05 	2.255324334e-08 	0.0008734130762 	-3.979619039e-07 	1.664968076e-06
0.2787610603 	0.0006189438149 	1.182795843e-05 	2.101981514e-08 	0.0008938485326 	-3.530348494e-07 	1.703923736e-06
0.2795712742 	0.0006290030849 	1.231229445e-05 	1.918266621e-08 	0.0009145449044 	-3.069557741e-07 	1.743376772e-06
0.2803958572 	0.0006391248159 	1.279766022e-05 	1.701884414e-08 	0.0009355230271 	-2.597030263e-07 	1.783366905e-06
0.2812350526 	0.0006493205951 	1.328184811e-05 	1.450357498e-08 	0.0009568020539 	-2.11257468e-07 	1.823930644e-06
0.2820891073 	0.0006596021395 	1.376129269e-05 	1.161296671e-08 	0.0009784031339 	-1.616134187e-07 	1.865108306e-06
0.2829582719 	0.0006699795904 	1.423312219e-05 	8.323585213e-09 	0.001000347754 	-1.107723701e-07 	1.906940852e-06
0.2838428013 	0.0006804979796 	1.469440362e-05 	4.609991663e-09 	0.001022746265 	-5.871544122e-08 	1.949638638e-06
0.2847556243 	0.0006912534323 	1.514525153e-05 	3.785802578e-10 	0.001045789791 	-4.618271319e-09 	1.993566004e-06
0.2848333523 	0.0006921588085 	1.518140176e-05 	1.019170661e-09 	0.001047737042 	7.717475204e-08 	1.997278005e-06
0.2856962892 	0.0007022397917 	1.557366855e-05 	3.745303177e-09 	0.001069469226 	-5.096418523e-08 	2.038705588e-06
0.2866531183 	0.0007134233237 	1.598648492e-05 	8.268154265e-09 	0.001093599276 	-1.078763043e-07 	2.08470417e-06
0.2876267427 	0.0007247727282 	1.637254202e-05 	1.327041051e-08 	0.00111811832 	-1.662264452e-07 	2.131444282e-06
0.2886174419 	0.0007362985918 	1.672079073e-05 	1.878164454e-08 	0.001143055943 	-2.260545544e-07 	2.178982324e-06
0.2896255 	0.0007480091007 	1.701834593e-05 	2.484604751e-08 	0.001168440996 	-2.874154395e-07 	2.22737329e-06
0.2906512055 	0.0007599082842 	1.7246156e-05 	3.153189867e-08 	0.001194329436 	-3.504680369e-07 	2.276723852e-06
0.2916948513 	0.0007719908536 	1.737632572e-05 	3.893476526e-08 	0.001220843405 	-4.155023553e-07 	2.327266846e-06
0.292756735 	0.0007842182769 	1.737737808e-05 	4.716894773e-08 	0.00124815854 	-4.827022572e-07 	2.379337085e-06
0.2938371588 	0.0007965008864 	1.720144054e-05 	5.638869176e-08 	0.001276498602 	-5.522189364e-07 	2.43336112e-06
0.2949364296 	0.0008102402489 	1.686615803e-05 	6.709305333e-08 	0.001309849575 	-6.251799511e-07 	2.496937344e-06
0.2966211408 	0.0008272194444 	1.655625714e-05 	8.366043076e-08 	0.001350318152 	-7.349006024e-07 	2.574081698e-06
0.2983211975 	0.0008460084662 	1.638769173e-05 	8.298534252e-08 	0.001392874229 	-6.868144302e-07 	2.655205409e-06
0.3000367404 	0.0008649339674 	1.632244719e-05 	7.543165849e-08 	0.001434435955 	-5.877811142e-07 	2.734433612e-06
0.3017679123 	0.0008840793293 	1.623311486e-05 	6.656567119e-08 	0.001475838227 	-4.870466951e-07 	2.81335785e-06
0.3035615948 	0.0009035855389 	1.61198274e-05 	5.567593886e-08 	0.001517529351 	-3.817867479e-07 	2.892832719e-06
0.3053762146 	0.000923326887 	1.604452872e-05 	4.270236689e-08 	0.001559255101 	-2.745390259e-07 	2.972373595e-06
0.3072070693 	0.0009431243497 	1.605737712e-05 	2.740213728e-08 	0.001600828056 	-1.654879023e-07 	3.051623203e-06
0.309054309 	0.0009629043988 	1.621932474e-05 	9.582682871e-09 	0.001642281294 	-5.451619247e-08 	3.130644596e-06
0.3099572036 	0.0009724413006 	1.639235901e-05 	-4.12468503e-09 	0.001662296119 	7.19061402e-07 	3.168798414e-06
0.3109144486 	0.0009825569771 	1.656535843e-05 	9.725922481e-09 	0.001683603293 	-5.793190485e-08 	3.20941581e-06
0.3127878846 	0.00100203113 	1.714064005e-05 	3.044750568e-08 	0.001724793899 	-1.719813357e-07 	3.287936552e-06
0.3146782044 	0.001021328146 	1.799513679e-05 	5.357398109e-08 	0.001765877293 	-2.881620627e-07 	3.36625292e-06
0.3165855688 	0.001040408613 	1.914477227e-05 	7.904452961e-08 	0.001806867671 	-4.06404368e-07 	3.444391975e-06
0.318510141 	0.001059328007 	2.057475225e-05 	1.068240391e-07 	0.001848036105 	-5.266517168e-07 	3.522870452e-06
0.3204874336 	0.001078202994 	2.22763112e-05 	1.374062116e-07 	0.001889753346 	-6.509950378e-07 	3.602395106e-06
0.3225010989 	0.001096977352 	2.422129001e-05 	1.706575182e-07 	0.001932008383 	-7.782622741e-07 	3.682944951e-06
0.324532613 	0.001115484861 	2.631191341e-05 	1.745402986e-07 	0.001974820488 	-7.669902503e-07 	3.764556722e-06
0.3265821488 	0.001133604047 	2.84390614e-05 	1.53481914e-07 	0.002018575508 	-6.500903575e-07 	3.847965952e-06
0.3286498823 	0.001151210332 	3.0499118e-05 	1.302771629e-07 	0.002063832989 	-5.316283103e-07 	3.93423929e-06
0.3307359925 	0.001168116916 	3.238540513e-05 	1.047766762e-07 	0.002111248794 	-4.114502616e-07 	4.024626992e-06
0.3328406618 	0.001184063962 	3.400341919e-05 	7.667137742e-08 	0.00216152126 	-2.892020396e-07 	4.120460286e-06
0.334964076 	0.001198763082 	3.525905315e-05 	4.548475257e-08 	0.002215541835 	-1.643986357e-07 	4.223438516e-06
0.3371320833 	0.001211906052 	3.608917476e-05 	1.018821084e-08 	0.002274366162 	-3.517895164e-08 	4.335574033e-06
0.3377175152 	0.001214825928 	3.61520166e-05 	-1.019835913e-08 	0.002291389808 	6.060717561e-07 	4.368025833e-06
0.3393444052 	0.001222971814 	3.630608354e-05 	2.754217556e-08 	0.002338780731 	-1.017217771e-07 	4.458366103e-06
0.3415743451 	0.001231392176 	3.5690411e-05 	7.006571694e-08 	0.002409319475 	-2.451285956e-07 	4.592832555e-06
0.3438239536 	0.001236270939 	3.491808572e-05 	1.126236025e-07 	0.002485781815 	-3.916238637e-07 	4.738591026e-06
0.346093434 	0.001237349216 	3.594481742e-05 	1.454305726e-07 	0.002565485083 	-4.787768037e-07 	4.890527607e-06
0.3483829935 	0.001242398596 	3.949376834e-05 	1.785007709e-07 	0.002627962148 	-3.804271531e-07 	5.009626259e-06
0.3506928437 	0.00125383719 	4.441096974e-05 	2.287947186e-07 	0.002668863547 	-2.965624464e-07 	5.087595692e-06
0.3530295839 	0.001266148184 	4.898167479e-05 	2.922837863e-07 	0.002704064592 	-3.208403151e-07 	5.154698669e-06
0.3554374975 	0.001278201346 	5.221131484e-05 	2.749962139e-07 	0.002737092828 	-2.637891294e-07 	5.217659666e-06
0.3578664156 	0.001289548327 	5.447558639e-05 	2.381898416e-07 	0.002767750836 	-2.113417187e-07 	5.27610235e-06
0.3603165657 	0.001299746712 	5.641451514e-05 	1.913292973e-07 	0.002795669091 	-1.601319579e-07 	5.329322304e-06
0.3627881801 	0.001308666216 	5.830198873e-05 	1.397907244e-07 	0.002820809716 	-1.114463248e-07 	5.377247323e-06
0.3652814963 	0.001316299957 	6.024166273e-05 	8.507959433e-08 	0.002843258648 	-6.496485468e-08 	5.420041225e-06
0.3677967568 	0.001322727292 	6.225836695e-05 	2.789266824e-08 	0.002863221727 	-2.04564222e-08 	5.458096403e-06
0.3690001284 	0.00132523569 	6.32419729e-05 	6.067530949e-09 	0.002871561086 	-2.438801806e-08 	5.473993539e-06
0.3703570904 	0.001328060554 	6.433478754e-05 	3.071411824e-08 	0.002880955413 	-2.337586579e-08 	5.491901737e-06
0.3729676944 	0.001332377998 	6.651351457e-05 	9.074674515e-08 	0.002896634856 	-6.637238579e-08 	5.521791113e-06
0.3756010887 	0.001335774414 	6.879137698e-05 	1.525382904e-07 	0.002910413809 	-1.074496315e-07 	5.548057627e-06
0.3782575372 	0.001338381311 	7.113303952e-05 	2.159398491e-07 	0.002922528114 	-1.468185192e-07 	5.57115086e-06
0.3809373097 	0.001340312381 	7.355470658e-05 	2.808161616e-07 	0.002933221706 	-1.846944417e-07 	5.591535819e-06
0.3836406821 	0.00134168142 	7.604904711e-05 	3.470505894e-07 	0.002942738448 	-2.212862984e-07 	5.609677374e-06
0.3863896793 	0.001342606405 	7.861509071e-05 	4.13232856e-07 	0.002951352905 	-2.559258177e-07 	5.626098924e-06
0.389197645 	0.001343151638 	8.130235043e-05 	3.544793733e-07 	0.002959229175 	-2.136079692e-07 	5.641113283e-06
0.3920300409 	0.00134337656 	8.408875133e-05 	2.943261777e-07 	0.002966454498 	-1.729089235e-07 	5.654886757e-06
0.3948871681 	0.001343366814 	8.693336342e-05 	2.328802034e-07 	0.00297317285 	-1.336141899e-07 	5.667693802e-06
0.397769335 	0.001343160659 	8.987160653e-05 	1.702728671e-07 	0.002979484615 	-9.556917545e-08 	5.679725781e-06
0.4006768572 	0.001342818035 	9.287290081e-05 	1.066062628e-07 	0.002985524075 	-5.862047849e-08 	5.69123867e-06
0.4036541291 	0.001342381286 	9.598243867e-05 	4.091900762e-08 	0.002991423238 	-2.206501482e-08 	5.702484114e-06
0.4055087421 	0.001342053945 	9.79798231e-05 	1.6685643e-08 	0.002994966282 	-2.630469797e-07 	5.709238142e-06
0.4066666498 	0.001341846082 	9.92094061e-05 	2.47361837e-08 	0.002997157609 	-1.391315659e-08 	5.713415419e-06
0.4097021532 	0.001341260541 	0.000102467251 	8.930539113e-08 	0.003002756223 	-4.939559091e-08 	5.724087934e-06
0.4127643706 	0.001340643161 	0.0001058140334 	1.544354535e-07 	0.003008292319 	-8.4095002e-08 	5.734641272e-06
0.4158536567 	0.001340016428 	0.0001092337666 	2.200572715e-07 	0.00301382246 	-1.18093318e-07 	5.745183258e-06
0.4190035533 	0.001339402393 	0.0001127568626 	2.86851218e-07 	0.003019423831 	-1.518247341e-07 	5.755861028e-06
0.4222017372 	0.001338785456 	0.0001164261079 	3.543695059e-07 	0.00302507756 	-1.851544307e-07 	5.766638607e-06
0.4254279802 	0.001338185978 	0.0001201821886 	4.220489697e-07 	0.003030779763 	-2.178873373e-07 	5.77750859e-06
0.428682672 	0.001337608785 	0.0001240309748 	4.086856541e-07 	0.003036533981 	-2.086698327e-07 	5.788477729e-06
0.4319662123 	0.001337073125 	0.0001279500098 	3.469502762e-07 	0.003042388437 	-1.753641963e-07 	5.799637949e-06
0.4353200549 	0.001336589199 	0.0001319914836 	2.840923347e-07 	0.003048395642 	-1.422423657e-07 	5.811089351e-06
0.4387139945 	0.001336129872 	0.0001361858612 	2.209487762e-07 	0.003054501432 	-1.096967361e-07 	5.822728683e-06
0.4421378657 	0.001335708523 	0.0001404694949 	1.578168048e-07 	0.003060690385 	-7.77642023e-08 	5.834526548e-06
0.445592109 	0.001335335121 	0.0001448412628 	9.475896527e-08 	0.003066980386 	-4.638670018e-08 	5.846517039e-06
0.4490909705 	0.001335022111 	0.0001493117959 	3.154749805e-08 	0.003073413812 	-1.53561994e-08 	5.858780937e-06
0.4508620033 	0.00133489275 	0.000151609443 	4.293686634e-08 	0.003076683411 	-3.710131362e-07 	5.865013701e-06
0.4526540059 	0.00133476276 	0.0001539095784 	3.074749849e-08 	0.003079967956 	-1.57602357e-08 	5.871274958e-06
0.4562464102 	0.001334543911 	0.000158611415 	9.130188246e-08 	0.003086591643 	-4.663071739e-08 	5.883901545e-06
0.4598709613 	0.001334365433 	0.0001634182146 	1.513707682e-07 	0.003093289309 	-7.710577053e-08 	5.896669158e-06
0.4635297771 	0.001334250044 	0.0001683167837 	2.109199741e-07 	0.003100112435 	-1.072628633e-07 	5.909675933e-06
0.4672662354 	0.001334196908 	0.0001733822483 	2.706011714e-07 	0.003107080051 	-1.375008867e-07 	5.922958146e-06
0.4710361103 	0.001334171842 	0.0001786233942 	3.29412196e-07 	0.003114112674 	-1.674445964e-07 	5.93636428e-06
0.4748399356 	0.001334179562 	0.0001839805416 	3.872968881e-07 	0.003121188981 	-1.971315539e-07 	5.949853688e-06
0.4786793613 	0.001334247877 	0.0001894450091 	4.441922106e-07 	0.003128363472 	-2.266353548e-07 	5.96353026e-06
0.4825957524 	0.001334374882 	0.0001950944901 	4.015263531e-07 	0.003135645503 	-2.055500757e-07 	5.977411837e-06
0.486547475 	0.001334519595 	0.0002009444154 	3.468048301e-07 	0.003142945628 	-1.78351613e-07 	5.991327904e-06
0.4905351173 	0.001334695342 	0.000206916821 	2.930116419e-07 	0.003150261158 	-1.515309262e-07 	6.005273338e-06
0.4945682564 	0.001334928715 	0.0002130320735 	2.400394057e-07 	0.003157637569 	-1.249689165e-07 	6.019334826e-06
0.4986692407 	0.001335205012 	0.0002193587944 	1.87726339e-07 	0.003165049791 	-9.849478528e-08 	6.033464582e-06
0.5028076531 	0.00133549115 	0.0002258903726 	1.367076994e-07 	0.00317242115 	-7.237358528e-08 	6.047516441e-06
0.5069841407 	0.001335812481 	0.0002325558607 	8.703151578e-08 	0.003179777449 	-4.653902844e-08 	6.061539591e-06
0.5112216396 	0.001336188252 	0.0002394137941 	3.845173865e-08 	0.003187141457 	-2.079180927e-08 	6.075577438e-06
0.5147184832 	0.001336509566 	0.0002452011062 	3.209755418e-08 	0.003193091112 	-1.512079739e-07 	6.086919132e-06
0.5155119101 	0.001336583306 	0.0002465055385 	8.303101055e-09 	0.003194435264 	-4.774497215e-09 	6.089481461e-06
0.5198395751 	0.001336997635 	0.0002537422214 	5.17093245e-08 	0.003201620114 	-3.01113727e-08 	6.103177782e-06
0.5242131926 	0.001337456483 	0.000261154934 	9.350672832e-08 	0.003208748215 	-5.520039445e-08 	6.116765924e-06
0.5286556948 	0.001337953646 	0.0002688171527 	1.337955368e-07 	0.003215790877 	-8.015824313e-08 	6.130191195e-06
0.5331398208 	0.001338452627 	0.0002767278239 	1.721114744e-07 	0.003222667133 	-1.047699851e-07 	6.143299249e-06
0.5376663255 	0.001338982443 	0.0002848150022 	2.084252414e-07 	0.003229410052 	-1.290448096e-07 	6.156153128e-06
0.5422617001 	0.001339562433 	0.0002931526741 	2.429035691e-07 	0.003236017627 	-1.531302584e-07 	6.168749002e-06
0.5469046699 	0.001340145959 	0.0003017767642 	2.751425465e-07 	0.003242390021 	-1.768281746e-07 	6.180896555e-06
0.5515919481 	0.001340753875 	0.0003105998231 	3.050869795e-07 	0.003248549973 	-2.000900244e-07 	6.192639137e-06
0.556343005 	0.001341415455 	0.0003196793513 	3.328337928e-07 	0.003254499112 	-2.230088547e-07 	6.203979848e-06
0.5611476171 	0.001342089189 	0.0003290642071 	3.581157191e-07 	0.00326014042 	-2.454359515e-07 	6.21473375e-06
0.5659985932 	0.001342789597 	0.0003386742333 	3.751021197e-07 	0.003265486857 	-2.632324501e-07 	6.224925545e-06
0.5709123736 	0.00134354825 	0.0003485542105 	3.421750478e-07 	0.003270534511 	-2.461532224e-07 	6.234547775e-06
0.5758818988 	0.001344329694 	0.0003587523637 	3.110011574e-07 	0.003275188723 	-2.296240384e-07 	6.243419998e-06
0.5808999763 	0.001345148064 	0.0003691934156 	2.816347065e-07 	0.003279461293 	-2.136515032e-07 	6.251564704e-06
0.585982671 	0.001346034275 	0.0003799231673 	2.539480403e-07 	0.003283336195 	-1.981684379e-07 	6.258951343e-06
0.5911208992 	0.001346956893 	0.0003909769664 	2.281164763e-07 	0.003286721439 	-1.833385108e-07 	6.265404561e-06
0.5963100062 	0.001347935585 	0.0004022840831 	2.041266882e-07 	0.00328963456 	-1.691547241e-07 	6.270957779e-06
0.6015672442 	0.001348995064 	0.0004139028747 	1.818668093e-07 	0.003292036689 	-1.555851761e-07 	6.275536904e-06
0.6068785218 	0.00135011147 	0.0004258371379 	1.614756404e-07 	0.003293856263 	-1.427857101e-07 	6.279005517e-06
0.6122458951 	0.001351314296 	0.0004380395128 	1.428535484e-07 	0.003295108276 	-1.307220827e-07 	6.281392202e-06
0.6176802584 	0.001352609395 	0.0004505384158 	1.259697594e-07 	0.003295725256 	-1.194398974e-07 	6.282568337e-06
0.6231089688 	0.001353973316 	0.0004631860667 	1.109876434e-07 	0.003295685738 	-1.09139896e-07 	6.282493005e-06
0.628479262 	0.001355435388 	0.0004758610979 	9.7840271e-08 	0.00329500982 	-9.983931192e-08 	6.281204518e-06
0.6337917032 	0.001357001932 	0.0004885604911 	8.643230067e-08 	0.003293649157 	-9.156194242e-08 	6.278610717e-06
0.6390410869 	0.0013586769 	0.00050122529 	7.658699623e-08 	0.003291666004 	-8.425998454e-08 	6.274830274e-06
0.644236594 	0.001360477642 	0.0005138773151 	6.810525997e-08 	0.003289095759 	-7.785496954e-08 	6.269930673e-06
0.6493731342 	0.001362384817 	0.0005265202492 	6.089782006e-08 	0.003285914249 	-7.236723182e-08 	6.263865831e-06
0.6544495689 	0.001364413268 	0.0005391004091 	5.478609845e-08 	0.003282182556 	-6.769907828e-08 	6.256752187e-06
0.6594747915 	0.001366585859 	0.0005516522856 	4.962390078e-08 	0.003277898345 	-6.378669235e-08 	6.24858529e-06
0.6644417602 	0.001368886659 	0.0005641660176 	4.532490346e-08 	0.003273059535 	-6.062234396e-08 	6.239361173e-06
0.6693518272 	0.001371337472 	0.000576605107 	4.17387429e-08 	0.003267729496 	-5.809996457e-08 	6.229200638e-06
0.6742111561 	0.001373956261 	0.0005890048797 	3.876507621e-08 	0.003261902405 	-5.617109408e-08 	6.218092583e-06
0.6790145641 	0.001376732713 	0.0006013489504 	3.63243306e-08 	0.00325559604 	-5.479773957e-08 	6.206070898e-06
0.6837634788 	0.001379692295 	0.0006136146885 	3.430267055e-08 	0.003248872774 	-5.387686438e-08 	6.193254486e-06
0.6884626381 	0.00138285264 	0.0006258346714 	3.262988566e-08 	0.003241731192 	-5.335894151e-08 	6.179640645e-06
0.6931082167 	0.001386207267 	0.0006379961804 	3.124838855e-08 	0.003234196902 	-5.319605208e-08 	6.165278193e-06
0.6977011208 	0.001389780917 	0.0006500796786 	3.008162431e-08 	0.003226337066 	-5.329149872e-08 	6.150295162e-06
0.7022457724 	0.001393596914 	0.0006621148556 	2.908594106e-08 	0.003218161795 	-5.359078826e-08 	6.134710823e-06
0.7067390029 	0.001397651614 	0.0006741000909 	2.823090449e-08 	0.003209694104 	-5.404930307e-08 	6.118569051e-06
0.7111815988 	0.0014019664 	0.0006860142224 	2.747164274e-08 	0.00320100964 	-5.457187942e-08 	6.102014048e-06
0.7155766245 	0.001406574015 	0.0006978845613 	2.679304811e-08 	0.003192134413 	-5.511868161e-08 	6.0850954e-06
0.7199227611 	0.0014114734 	0.000709722599 	2.621767816e-08 	0.003183084907 	-5.56631029e-08 	6.067844526e-06
0.7242202053 	0.001416679744 	0.0007215038619 	2.575380061e-08 	0.003173947081 	-5.614608357e-08 	6.050425289e-06
0.7284707509 	0.001422226657 	0.0007332343402 	2.550631924e-08 	0.003164786662 	-5.668695571e-08 	6.032962985e-06
0.7326748377 	0.001428096115 	0.000744913293 	2.564579361e-08 	0.003155635908 	-5.723132525e-08 	6.015519104e-06
0.7368320496 	0.001434315402 	0.0007565301814 	2.640747618e-08 	0.003146559766 	-5.715534809e-08 	5.998217456e-06
0.7409431719 	0.001441041743 	0.0007680356521 	3.124391622e-08 	0.003137488833 	-5.069783666e-08 	5.980925735e-06
0.7450100561 	0.001448268623 	0.0007794397152 	3.980929291e-08 	0.003128481864 	-3.810086269e-08 	5.963755949e-06
0.7490317742 	0.001455896596 	0.0007907908807 	4.882965844e-08 	0.003119753858 	-2.460751743e-08 	5.947117945e-06
0.7530089314 	0.001463975864 	0.0008021190071 	5.820377042e-08 	0.003111395763 	-1.087882177e-08 	5.931185092e-06
0.7569426995 	0.001472773857 	0.0008133302126 	6.716807447e-08 	0.003103166635 	1.921539404e-09 	5.915498087e-06
0.7608334894 	0.001482288865 	0.000824509897 	7.557970882e-08 	0.00309514294 	1.405872177e-08 	5.900202694e-06
0.7646812936 	0.001492291817 	0.0008358783911 	8.291580934e-08 	0.003087757798 	2.528696695e-08 	5.886124561e-06
0.7684866645 	0.001502769472 	0.0008474793534 	8.865473071e-08 	0.003081187655 	3.528842842e-08 	5.873600043e-06
0.7722507669 	0.001513723259 	0.0008593847008 	9.233091989e-08 	0.003075543393 	4.3610499e-08 	5.86284051e-06
0.7759735373 	0.001525162516 	0.0008716185425 	9.357107601e-08 	0.003070895907 	5.010481821e-08 	5.853981109e-06
0.779655338 	0.001537102571 	0.0008841613045 	9.196878286e-08 	0.003067309094 	5.44614371e-08 	5.847143648e-06
0.7832966776 	0.001549550578 	0.0008970778605 	8.732004439e-08 	0.003064859513 	5.62053303e-08 	5.842474065e-06
0.7868985473 	0.00156282388 	0.0009101115877 	7.950636019e-08 	0.003063217444 	5.506360223e-08 	5.839343826e-06
0.7904608766 	0.001577026835 	0.0009231516451 	6.929522979e-08 	0.003062338442 	5.200569348e-08 	5.837668203e-06
0.7939841139 	0.00159192817 	0.0009363931665 	5.715490735e-08 	0.003062621353 	4.759603448e-08 	5.83820751e-06
0.7974687307 	0.001607531032 	0.0009498577099 	4.312917276e-08 	0.003064166092 	4.195839368e-08 	5.841152213e-06
0.8009155059 	0.00162399182 	0.0009635081771 	3.169315985e-08 	0.003066869154 	3.971473843e-08 	5.846304999e-06
0.8043245387 	0.001641447352 	0.0009772541683 	2.868483034e-08 	0.003070594998 	4.672631615e-08 	5.853407495e-06
0.8076962384 	0.001659836048 	0.0009911846818 	3.054035753e-08 	0.003075491303 	5.915768792e-08 	5.862741213e-06
0.8110310454 	0.00167911709 	0.00100542131 	3.278482421e-08 	0.003081733787 	7.215679451e-08 	5.874641122e-06
0.8143295486 	0.00169933318 	0.001019995364 	3.555227059e-08 	0.00308935064 	8.553298734e-08 	5.88916096e-06
0.8175920432 	0.001720506028 	0.001034934292 	3.881037701e-08 	0.003098353717 	9.936842615e-08 	5.906323327e-06
0.820818861 	0.001742663131 	0.00105025912 	4.240078295e-08 	0.003108774431 	1.137265617e-07 	5.926188106e-06
0.824010415 	0.00176583242 	0.001065989122 	4.626643385e-08 	0.003120645146 	1.286255069e-07 	5.948816986e-06
0.8271671471 	0.001790035543 	0.001082143394 	5.040527998e-08 	0.003133986829 	1.440884741e-07 	5.974249943e-06
0.8302895134 	0.00181529021 	0.001098740348 	5.3599942e-08 	0.003148811975 	1.565981744e-07 	6.002510791e-06
0.8333777685 	0.001841607029 	0.001115791788 	5.504505809e-08 	0.003165140117 	1.635881119e-07 	6.033636768e-06
0.8364323014 	0.001868997454 	0.001133308297 	5.639281174e-08 	0.003182989581 	1.698083416e-07 	6.067662807e-06
0.839453495 	0.001897472734 	0.001151300534 	5.762218052e-08 	0.003202372255 	1.752557406e-07 	6.104611571e-06
0.8424417766 	0.001927043025 	0.001169779432 	5.871452251e-08 	0.003223289743 	1.799246195e-07 	6.144486117e-06
0.8453974796 	0.001957711472 	0.001188753742 	5.964780049e-08 	0.003245734315 	1.838030005e-07 	6.187271709e-06
0.8483209236 	0.001989475955 	0.001208226421 	6.040273376e-08 	0.003269704888 	1.86893181e-07 	6.232966284e-06
0.851212471 	0.002022333923 	0.001228199691 	6.096306999e-08 	0.003295193283 	1.891982239e-07 	6.28155425e-06
0.8540724785 	0.002056279128 	0.001248673845 	6.131460978e-08 	0.003322185025 	1.907232667e-07 	6.33300801e-06
0.8569013304 	0.002091301855 	0.001269647352 	6.144548242e-08 	0.00335065742 	1.91468245e-07 	6.38728431e-06
0.8596993388 	0.002127384182 	0.001291115449 	6.134257624e-08 	0.003380578489 	1.914263396e-07 	6.444322183e-06
0.862466824 	0.002164501526 	0.0013130676 	6.099712306e-08 	0.003411920101 	1.906062397e-07 	6.504068006e-06
0.8652041249 	0.002202626089 	0.001335491281 	6.040281375e-08 	0.003444645124 	1.890212037e-07 	6.566450996e-06
0.8679115756 	0.002241723976 	0.001358370702 	5.955478125e-08 	0.003478709444 	1.866911825e-07 	6.631387058e-06
0.8705895185 	0.002281755668 	0.001381686663 	5.84503241e-08 	0.003514062001 	1.836382091e-07 	6.698778858e-06