0.4709558481 	1.101071589e-07 	-2.313610065e-10 	3.749691128e-15 	1.098978719e-07 	-1.351052539e-12 	2.094958883e-10
0.4709558481 	1.101071589e-07 	-2.313610065e-10 	3.749691128e-15 	1.098978719e-07 	-1.351052539e-12 	2.094958883e-10
0.4711314108 	1.236201948e-06 	-1.015112574e-08 	1.645133917e-13 	1.233887047e-06 	-1.516887637e-11 	2.352131652e-09
0.4713069734 	6.890464178e-06 	-1.324593391e-07 	2.14593262e-12 	6.878519843e-06 	-8.455907559e-11 	1.311237061e-08
0.471482536 	2.293871748e-05 	-8.262617738e-07 	1.337048843e-11 	2.290862934e-05 	-2.815815064e-10 	4.367021465e-08
0.4716580986 	5.665343001e-05 	-3.352455388e-06 	5.410099626e-11 	5.663488677e-05 	-6.958201236e-10 	1.07961835e-07
0.4718336613 	0.0001158783464 	-1.027037481e-05 	1.648554731e-10 	0.0001160628981 	-1.424384517e-09 	2.212481417e-07
0.4720092239 	0.0002084525716 	-2.581187143e-05 	4.105159776e-10 	0.000209465617 	-2.5646622e-09 	3.99299684e-07
0.4721847865 	0.0003415087281 	-5.591416104e-05 	8.76543494e-10 	0.0003448672606 	-4.203942572e-09 	6.574128496e-07
0.4723603491 	0.0005205801288 	-0.0001076802645 	1.653346638e-09 	0.0005292798086 	-6.40366523e-09 	1.008954421e-06
0.4725359118 	0.000748629492 	-0.0001881630091 	2.809432875e-09 	0.000767660011 	-9.179411561e-09 	1.463373341e-06
0.4727114744 	0.001025261209 	-0.0003026760362 	4.362071266e-09 	0.001061744967 	-1.248284825e-08 	2.023981003e-06
0.472887037 	0.00134642942 	-0.0004531939505 	6.260299776e-09 	0.001409142398 	-1.619579733e-08 	2.686217061e-06
0.4730625996 	0.001704832474 	-0.0006375333899 	8.391834566e-09 	0.001803130402 	-2.014427483e-08 	3.437267701e-06
0.4732381623 	0.00209092735 	-0.0008497125213 	1.061226612e-08 	0.00223341178 	-2.413046963e-08 	4.257503598e-06
0.4734137249 	0.002494258356 	-0.00108131436 	1.278182374e-08 	0.002687645545 	-2.797013061e-08 	5.123399401e-06
0.4735892875 	0.002904718853 	-0.00132323656 	1.47928785e-08 	0.003153235547 	-3.152068594e-08 	6.010943348e-06
0.4737648501 	0.003313469228 	-0.001567178256 	1.658027404e-08 	0.003618826032 	-3.46926305e-08 	6.898488218e-06
0.4739404128 	0.003713417676 	-0.001806513446 	1.811722508e-08 	0.004075196599 	-3.744607908e-08 	7.768457359e-06
0.4741159754 	0.004099320641 	-0.002036548276 	1.940437876e-08 	0.004515546471 	-3.977926212e-08 	8.607886605e-06
0.474291538 	0.00446762913 	-0.002254357254 	2.045851256e-08 	0.004935340358 	-4.171537689e-08 	9.40813043e-06
0.4744671006 	0.004816208115 	-0.002458422282 	2.13039962e-08 	0.005331927066 	-4.329146796e-08 	1.016413492e-05
0.4746426632 	0.005144023254 	-0.002648236852 	2.196748792e-08 	0.00570409553 	-4.455047524e-08 	1.087359145e-05
0.4748182259 	0.005450850397 	-0.002823961027 	2.247511999e-08 	0.00605166452 	-4.553616933e-08 	1.153615455e-05
0.4749937885 	0.005737032611 	-0.002986156401 	2.285122153e-08 	0.006375146737 	-4.629022017e-08 	1.215280156e-05
0.4751693511 	0.006003290089 	-0.003135599248 	2.311784227e-08 	0.006675494173 	-4.685066942e-08 	1.272534725e-05
0.4753449137 	0.006250578276 	-0.00327315753 	2.329462657e-08 	0.006953914805 	-4.725125926e-08 	1.325609436e-05
0.4755204764 	0.006479985596 	-0.003399714958 	2.339880771e-08 	0.007211747526 	-4.752128257e-08 	1.374759519e-05
0.475696039 	0.006692662485 	-0.003516127636 	2.34452339e-08 	0.007450365431 	-4.768556553e-08 	1.420246723e-05
0.4758716016 	0.006889769121 	-0.003623207494 	2.344646759e-08 	0.007671179659 	-4.7765252e-08 	1.462340053e-05
0.4760471642 	0.007072491269 	-0.003721397721 	2.341048253e-08 	0.007875436421 	-4.777701708e-08 	1.501277068e-05
0.4762227269 	0.007264212789 	-0.003825258488 	2.334840501e-08 	0.008089988458 	-4.772921427e-08 	1.54217665e-05
0.4764955107 	0.007481638351 	-0.003941846522 	2.324512637e-08 	0.008332762257 	-4.760033535e-08 	1.588456083e-05
0.4767734216 	0.007698018879 	-0.004055502945 	2.31073305e-08 	0.008573432663 	-4.739044371e-08 	1.634334552e-05
0.4770565557 	0.007893728526 	-0.004158139094 	2.296472066e-08 	0.008790972264 	-4.712795783e-08 	1.675803646e-05
0.4773450114 	0.008070663913 	-0.00425039625 	2.28178677e-08 	0.00898733212 	-4.682365106e-08 	1.713235292e-05
0.4776388886 	0.008230511226 	-0.004333291289 	2.266904363e-08 	0.009164505318 	-4.648604177e-08 	1.747009428e-05
0.4779382892 	0.008374821979 	-0.00440771923 	2.251926503e-08 	0.009324230188 	-4.612048799e-08 	1.777457427e-05
0.4782433171 	0.00850500965 	-0.004474476318 	2.236877171e-08 	0.009468106873 	-4.57307871e-08 	1.804884322e-05
0.4785540779 	0.008622357641 	-0.00453427132 	2.221727417e-08 	0.009597579226 	-4.531942743e-08 	1.829565351e-05
0.4788706795 	0.008728027507 	-0.004587735818 	2.206412624e-08 	0.009713950403 	-4.488800965e-08 	1.851748932e-05
0.4791932316 	0.00882306809 	-0.004635433693 	2.1908452e-08 	0.0098183943 	-4.443752829e-08 	1.871658842e-05
0.4795218461 	0.008908424749 	-0.004677869493 	2.174924075e-08 	0.009911967638 	-4.396858398e-08 	1.889496521e-05
0.4798566368 	0.008984948347 	-0.004715495722 	2.158541954e-08 	0.009995621015 	-4.348153485e-08 	1.905443179e-05
0.48019772 	0.009053403804 	-0.004748719122 	2.141590853e-08 	0.01007020917 	-4.297660518e-08 	1.919661755e-05
0.4805452138 	0.009114478109 	-0.004777906032 	2.12396622e-08 	0.01013650038 	-4.245396134e-08 	1.932298702e-05
0.4808992388 	0.009168787742 	-0.004803386987 	2.105569891e-08 	0.01019518501 	-4.191376315e-08 	1.943485624e-05
0.4812599177 	0.009216885524 	-0.004825460637 	2.086312062e-08 	0.01024688325 	-4.1356197e-08 	1.953340745e-05
0.4816273755 	0.009259266876 	-0.004844397132 	2.066112457e-08 	0.01029215209 	-4.078149555e-08 	1.961970244e-05
0.4820017397 	0.009296375557 	-0.004860441037 	2.044900842e-08 	0.01033149168 	-4.018994793e-08 	1.969469463e-05
0.48238314 	0.009328608865 	-0.004873813883 	2.022617054e-08 	0.010365351 	-3.958190351e-08 	1.975923991e-05
0.4827717088 	0.009356322376 	-0.004884716396 	1.999210636e-08 	0.01039413303 	-3.895777132e-08 	1.981410645e-05
0.4831675807 	0.009379834229 	-0.004893330468 	1.974640253e-08 	0.01041819935 	-3.831801719e-08 	1.985998356e-05
0.4835708931 	0.009399429002 	-0.004899820915 	1.948872939e-08 	0.01043787439 	-3.766315961e-08 	1.989748964e-05
0.4839817856 	0.009415361209 	-0.004904337043 	1.921883287e-08 	0.01045344912 	-3.69937655e-08 	1.99271794e-05
0.4844004009 	0.00942785845 	-0.004907014063 	1.893652668e-08 	0.0104651845 	-3.631044635e-08 	1.994955031e-05
0.4848268841 	0.009437124245 	-0.004907974362 	1.864168521e-08 	0.01047331455 	-3.561385539e-08 	1.996504845e-05
0.485261383 	0.009443340576 	-0.00490732866 	1.833423766e-08 	0.01047804905 	-3.490468582e-08 	1.997407371e-05
0.4857040484 	0.009446670164 	-0.004905177062 	1.801416401e-08 	0.01047957604 	-3.418367046e-08 	1.997698459e-05
0.4861550336 	0.009447258515 	-0.004901610013 	1.768149289e-08 	0.01047806408 	-3.345158269e-08 	1.997410236e-05
0.4866144951 	0.009445235743 	-0.004896709174 	1.733630181e-08 	0.01047366417 	-3.270923872e-08 	1.996571491e-05
0.4870825921 	0.009440718198 	-0.004890548216 	1.697871972e-08 	0.01046651164 	-3.1957501e-08 	1.99520802e-05
0.487559487 	0.009433809929 	-0.004883193555 	1.660893209e-08 	0.01045672768 	-3.119728264e-08 	1.993342925e-05
0.4880453452 	0.009424603979 	-0.004874705017 	1.622718847e-08 	0.01044442084 	-3.042955246e-08 	1.990996899e-05
0.4885403351 	0.009413183547 	-0.004865136452 	1.583381233e-08 	0.01042968831 	-2.965534052e-08 	1.988188469e-05
0.4890446283 	0.009399623022 	-0.004854536291 	1.542921312e-08 	0.01041261708 	-2.887574356e-08 	1.984934218e-05
0.4895583997 	0.009383988906 	-0.004842948065 	1.50139001e-08 	0.010393285 	-2.809193003e-08 	1.981248987e-05
0.4900818274 	0.009366340645 	-0.00483041087 	1.458849752e-08 	0.01037176173 	-2.730514413e-08 	1.977146054e-05
0.4906150929 	0.009346731363 	-0.004816959799 	1.415376067e-08 	0.01034810956 	-2.651670827e-08 	1.972637294e-05
0.4911583811 	0.00932520853 	-0.004802626336 	1.371059196e-08 	0.01032238422 	-2.572802335e-08 	1.967733328e-05
0.4917118805 	0.00930181456 	-0.004787438716 	1.326005631e-08 	0.01029463551 	-2.494056611e-08 	1.962443652e-05
0.4922757829 	0.009276587345 	-0.004771422245 	1.280339487e-08 	0.01026490798 	-2.415588289e-08 	1.956776758e-05
0.4928502838 	0.009249560754 	-0.004754599603 	1.234203606e-08 	0.01023324145 	-2.337557902e-08 	1.950740239e-05
0.4934355824 	0.009220765068 	-0.0047369911 	1.187760281e-08 	0.01019967158 	-2.260130319e-08 	1.944340888e-05
0.4940318817 	0.009190227399 	-0.004718614918 	1.141191489e-08 	0.01016423025 	-2.183472603e-08 	1.937584786e-05
0.4946393885 	0.009157972058 	-0.004699487311 	1.094698515e-08 	0.01012694606 	-2.107751252e-08 	1.930477383e-05
0.4952583133 	0.009124020904 	-0.004679622778 	1.048500861e-08 	0.01008784466 	-2.033128762e-08 	1.92302357e-05
0.4958888709 	0.009088393666 	-0.004659034213 	1.00283434e-08 	0.01004694911 	-1.959759502e-08 	1.915227741e-05
0.4965312797 	0.009051108236 	-0.004637733009 	9.579482633e-09 	0.01000428017 	-1.887784885e-08 	1.907093854e-05
0.4971857627 	0.009012180938 	-0.004615729138 	9.141016435e-09 	0.009959856576 	-1.817327876e-08 	1.898625483e-05
0.4978525466 	0.008971626782 	-0.004593031194 	8.715583701e-09 	0.009913695276 	-1.74848687e-08 	1.889825857e-05
0.4985318627 	0.008929459676 	-0.004569646399 	8.305813131e-09 	0.009865811599 	-1.681329043e-08 	1.880697897e-05
0.4992239466 	0.00888569262 	-0.004545580578 	7.914253552e-09 	0.00981621941 	-1.615883286e-08 	1.871244247e-05
0.4999290382 	0.008840337863 	-0.004520838098 	7.543293884e-09 	0.009764931212 	-1.55213289e-08 	1.861467291e-05
0.5006473819 	0.008793407025 	-0.004495421787 	7.195073396e-09 	0.009711958213 	-1.490008188e-08 	1.851369165e-05
0.501379227 	0.008744911178 	-0.004469332835 	6.871383494e-09 	0.009657310419 	-1.42937952e-08 	1.840951777e-05
0.502124827 	0.008694860892 	-0.004442570706 	6.573562793e-09 	0.009600996435 	-1.370050417e-08 	1.830216766e-05
0.5028844406 	0.008643266246 	-0.004415133038 	6.30238707e-09 	0.009543023547 	-1.311751788e-08 	1.819165523e-05
0.5036583311 	0.008590137073 	-0.004387015716 	6.057958688e-09 	0.009483391501 	-1.254127063e-08 	1.807797997e-05
0.5044467669 	0.00853548135 	-0.004358213674 	5.839623421e-09 	0.009422123494 	-1.19676465e-08 	1.796118612e-05
0.5052500214 	0.008479312035 	-0.004328684483 	5.644976128e-09 	0.009359215857 	-1.139177806e-08 	1.784126668e-05
0.506068373 	0.008414091979 	-0.004295261445 	5.459545218e-09 	0.009286494833 	-1.073390286e-08 	1.77026402e-05
0.507324668 	0.008332158588 	-0.004253070087 	5.263019927e-09 	0.00919507884 	-9.903542075e-09 	1.752837591e-05
0.5085949819 	0.008241001364 	-0.004205269373 	5.071315865e-09 	0.009093096496 	-8.956913515e-09 	1.733396922e-05
0.5098794711 	0.008148021945 	-0.004156595836 	4.896989818e-09 	0.008989122251 	-7.951764645e-09 	1.713576541e-05
0.5111782938 	0.008053259663 	-0.004107003745 	4.720084261e-09 	0.008883169205 	-6.869831473e-09 	1.693378945e-05
0.5124916099 	0.007956733364 	-0.004056506367 	4.521545841e-09 	0.008775281764 	-5.694432811e-09 	1.672812601e-05
0.5138195812 	0.007858454447 	-0.004005112154 	4.282466039e-09 	0.008665460017 	-4.410700969e-09 	1.651877523e-05
0.5151623712 	0.007758426125 	-0.003952825792 	3.984726781e-09 	0.008553706832 	-3.006247106e-09 	1.63057426e-05
0.5165201452 	0.007656645357 	-0.003899648797 	3.611491318e-09 	0.008440018191 	-1.471230225e-09 	1.608902045e-05
0.5178930705 	0.007553104196 	-0.003845579816 	3.147626302e-09 	0.008324385328 	2.014837127e-10 	1.586859208e-05
0.5192813161 	0.007447791115 	-0.003790614964 	2.580051635e-09 	0.008206795847 	2.016236615e-09 	1.564443384e-05
0.520685053 	0.007340692246 	-0.003734748179 	1.898018062e-09 	0.008087235174 	3.974541122e-09 	1.541651797e-05
0.522104454 	0.007231792581 	-0.00367797161 	1.093316291e-09 	0.00796568782 	6.07508504e-09 	1.518481493e-05
0.523539694 	0.00712107714 	-0.003620276053 	1.604227242e-10 	0.007842138626 	8.313766483e-09 	1.494929583e-05
0.5249909497 	0.007008532129 	-0.003561651431 	-9.034126611e-10 	0.007716573986 	1.068375334e-08 	1.470993473e-05
0.5264583998 	0.006894146115 	-0.003502087307 	-2.098131131e-09 	0.00758898309 	1.317556345e-08 	1.446671102e-05
0.527942225 	0.00677791124 	-0.003441573421 	-3.420878548e-09 	0.007459359184 	1.577716508e-08 	1.421961183e-05
0.5294426081 	0.006659824484 	-0.003380100235 	-4.86606436e-09 	0.007327700852 	1.847410125e-08 	1.396863445e-05
0.5309597337 	0.00653988899 	-0.003317659484 	-6.425464664e-09 	0.007194013333 	2.12496445e-08 	1.371378889e-05
0.5324937889 	0.006418115412 	-0.003254244713 	-8.088368949e-09 	0.007058309844 	2.408499237e-08 	1.345510032e-05
0.5340449624 	0.006294523279 	-0.003189851795 	-9.841770864e-09 	0.00692061287 	2.695951508e-08 	1.319261162e-05
0.5356134452 	0.006169142275 	-0.003124479413 	-1.167060334e-08 	0.006780955381 	2.98510668e-08 	1.292638563e-05
0.5371994306 	0.006042013384 	-0.003058129515 	-1.355801753e-08 	0.006639381884 	3.273636889e-08 	1.265650719e-05
0.5388031139 	0.00591318978 	-0.002990807722 	-1.548570363e-08 	0.006495949237 	3.559146696e-08 	1.23830847e-05
0.5404246925 	0.005782737352 	-0.002922523695 	-1.743424934e-08 	0.006350727131 	3.839225434e-08 	1.2106251e-05
0.5420643661 	0.005650734787 	-0.002853291455 	-1.938352972e-08 	0.00620379816 	4.11150435e-08 	1.182616355e-05
0.5437223366 	0.005517273119 	-0.002783129663 	-2.131312055e-08 	0.006055257426 	4.373715508e-08 	1.154300363e-05
0.5453988083 	0.005382454744 	-0.002712061862 	-2.320272642e-08 	0.005905211664 	4.623748529e-08 	1.12569747e-05
0.5470939875 	0.005246391934 	-0.002640116668 	-2.503261562e-08 	0.005753777942 	4.859700746e-08 	1.096829994e-05
0.5488080831 	0.005109204981 	-0.002567327941 	-2.678405557e-08 	0.005601082029 	5.07991658e-08 	1.067721909e-05
0.5505413061 	0.004971020128 	-0.002493734912 	-2.843974491e-08 	0.005447256602 	5.283012771e-08 	1.038398507e-05
0.5522938699 	0.004831967531 	-0.002419382298 	-2.998423952e-08 	0.005292439495 	5.46788747e-08 	1.008886063e-05
0.5540659904 	0.004692179475 	-0.002344320416 	-3.140436679e-08 	0.005136772187 	5.633712586e-08 	9.792115481e-06
0.5558578859 	0.004551789036 	-0.00226860531 	-3.268961092e-08 	0.00498039874 	5.779909751e-08 	9.49402423e-06
0.5576697768 	0.00441092937 	-0.002192298925 	-3.383242812e-08 	0.004823465303 	5.906110452e-08 	9.194865481e-06
0.5595018865 	0.004269733658 	-0.002115469354 	-3.482841367e-08 	0.004666120254 	6.01210044e-08 	8.894922085e-06
0.5613544406 	0.004128335726 	-0.002038191166 	-3.567620142e-08 	0.004508514963 	6.097748532e-08 	8.594482596e-06
0.563227667 	0.003986871244 	-0.001960545829 	-3.637695336e-08 	0.00435080507 	6.162922139e-08 	8.293843708e-06
0.5651217966 	0.003845479389 	-0.001882622167 	-3.693333481e-08 	0.004193152128 	6.207398253e-08 	7.993313382e-06
0.5670370626 	0.00370430484 	-0.001804516786 	-3.734801622e-08 	0.004035725392 	6.230789524e-08 	7.693214268e-06
0.5689737009 	0.003563499977 	-0.001726334305 	-3.762201458e-08 	0.003878703626 	6.232516257e-08 	7.393887141e-06
0.5709319499 	0.003423227178 	-0.00164818721 	-3.77535141e-08 	0.003722276637 	6.211856963e-08 	7.095693824e-06
0.5729120508 	0.003283661092 	-0.001570195154 	-3.773796817e-08 	0.003566647691 	6.168085076e-08 	6.799021798e-06
0.5749142474 	0.00314499107 	-0.001492483635 	-3.756998232e-08 	0.003412030998 	6.100664001e-08 	6.504279407e-06
0.5769387863 	0.003007422703 	-0.001415185609 	-3.724647538e-08 	0.003258657804 	6.009393564e-08 	6.211907472e-06
0.5789859169 	0.002871191416 	-0.001338343746 	-3.677278471e-08 	0.003106760827 	5.894470988e-08 	5.922349616e-06
0.5810558911 	0.00273650337 	-0.001262193157 	-3.615492771e-08 	0.0029566026 	5.756191433e-08 	5.636106301e-06
0.583148964 	0.002603605666 	-0.001187063718 	-3.539909598e-08 	0.002808514129 	5.594974245e-08 	5.353808515e-06
0.5852653933 	0.002473041358 	-0.001112930367 	-3.453267089e-08 	0.002662996669 	5.403782313e-08 	5.076411792e-06
0.5874054395 	0.002345450482 	-0.001039854733 	-3.358096973e-08 	0.002520673187 	5.178082809e-08 	4.80510368e-06
0.5895693664 	0.002221220096 	-0.0009680592661 	-3.255248698e-08 	0.002381983442 	4.930243882e-08 	4.540722479e-06
0.5917574402 	0.002100608316 	-0.0008977000045 	-3.145599067e-08 	0.002247234848 	4.667523526e-08 	4.283854207e-06
0.5939699306 	0.001983930633 	-0.0008289547921 	-3.029430144e-08 	0.002116799889 	4.386235256e-08 	4.035208923e-06
0.5962071099 	0.001871577612 	-0.0007620064951 	-2.906404393e-08 	0.001991123769 	4.083884974e-08 	3.795635308e-06
0.5984692536 	0.001764005012 	-0.0006970459696 	-2.776292809e-08 	0.001870719859 	3.758772438e-08 	3.566111991e-06
0.6007566404 	0.001661723685 	-0.0006342686938 	-2.63932882e-08 	0.001756159829 	3.41021222e-08 	3.347728734e-06
0.6030695519 	0.0015652855 	-0.0005738702253 	-2.496366846e-08 	0.001648060725 	3.038599735e-08 	3.141661797e-06
0.6054082729 	0.001475265265 	-0.0005160402458 	-2.348861243e-08 	0.001547067141 	2.645430151e-08 	2.949139955e-06
0.6077730914 	0.001392237624 	-0.0004609550271 	-2.198789492e-08 	0.001453827458 	2.233372597e-08 	2.771399205e-06
0.6101642987 	0.001316747911 	-0.0004087681378 	-2.048583408e-08 	0.001368962627 	1.806372267e-08 	2.609623251e-06
0.6125821893 	0.001249276787 	-0.0003595996392 	-1.90103324e-08 	0.001293026985 	1.369722555e-08 	2.464868811e-06
0.6150270608 	0.001190199954 	-0.0003135247153 	-1.759109639e-08 	0.001226462405 	9.300265298e-09 	2.337978221e-06
0.6174992144 	0.001139746099 	-0.0002705632344 	-1.625757555e-08 	0.001169549548 	4.949539347e-09 	2.229486498e-06
0.6199989545 	0.001097955249 	-0.0002306758368 	-1.503131949e-08 	0.001122360088 	7.28942381e-10 	2.139530272e-06
0.622526589 	0.001064711621 	-0.0001937709163 	-1.393000825e-08 	0.001084784161 	-3.29883464e-09 	2.067900111e-06
0.625082429 	0.001039749874 	-0.0001596972852 	-1.297113253e-08 	0.001056531224 	-7.073581779e-09 	2.014042161e-06
0.6276667894 	0.001022582357 	-0.0001282491472 	-1.216037299e-08 	0.00103705886 	-1.051582748e-08 	1.976922423e-06
0.6302799884 	0.001012532608 	-9.919873475e-05 	-1.149578791e-08 	0.001025614155 	-1.357843418e-08 	1.955105635e-06
0.6329223478 	0.001008822464 	-7.231129226e-05 	-1.097165583e-08 	0.001021327282 	-1.62551382e-08 	1.946933662e-06
0.6355941931 	0.001010625257 	-4.735441354e-05 	-1.057585277e-08 	0.001023271599 	-1.855952312e-08 	1.950640071e-06
0.6382958531 	0.001017112673 	-2.411080098e-05 	-1.029299956e-08 	0.001030517853 	-2.052057116e-08 	1.964453446e-06
0.6410276607 	0.001027492961 	-2.384554713e-06 	-1.010636301e-08 	0.001042177916 	-2.217688482e-08 	1.986680765e-06
0.6437899523 	0.001041037851 	1.799629027e-05 	-9.999662783e-09 	0.00105743531 	-2.357116374e-08 	2.0157656e-06
0.646583068 	0.001057098098 	3.718000722e-05 	-9.958265296e-09 	0.001075562611 	-2.474600968e-08 	2.050321274e-06
0.6494073518 	0.001075109266 	5.529311413e-05 	-9.969678319e-09 	0.001095927703 	-2.574115098e-08 	2.0891428e-06
0.6522631514 	0.001094590245 	7.244302353e-05 	-1.002352336e-08 	0.001117991797 	-2.659190311e-08 	2.131203094e-06
0.6551508186 	0.001115137104 	8.872078385e-05 	-1.011124958e-08 	0.001141302185 	-2.732854816e-08 	2.175639173e-06
0.658070709 	0.001136414501 	0.0001042036235 	-1.022578381e-08 	0.001165482278 	-2.797632812e-08 	2.221733152e-06
0.6610231822 	0.001158146286 	0.0001189572117 	-1.036121439e-08 	0.001190220766 	-2.855580049e-08 	2.268891585e-06
0.6640086017 	0.001180106325 	0.0001330376368 	-1.051253833e-08 	0.001215261103 	-2.90833749e-08 	2.316625427e-06
0.6670273351 	0.00120211014 	0.0001464931242 	-1.067546803e-08 	0.001240391972 	-2.957191236e-08 	2.364531849e-06
0.6700797543 	0.00122400762 	0.0001593655203 	-1.084628389e-08 	0.001265439018 	-3.003131701e-08 	2.41227848e-06
0.6731662352 	0.001245676868 	0.0001716915675 	-1.102171989e-08 	0.001290257917 	-3.04690835e-08 	2.459590198e-06
0.6762871577 	0.001267019141 	0.0001835039935 	-1.119887331e-08 	0.001314728711 	-3.089078302e-08 	2.506238333e-06
0.6794429063 	0.001287954744 	0.0001948324411 	-1.137513456e-08 	0.001338751292 	-3.130048231e-08 	2.552032049e-06
0.6826338695 	0.001308419753 	0.0002057042622 	-1.154813567e-08 	0.001362241853 	-3.170109502e-08 	2.596811587e-06
0.6858604404 	0.001328363397 	0.0002161451994 	-1.171571781e-08 	0.001385130156 	-3.20946675e-08 	2.640443054e-06
0.6891230163 	0.001347745956 	0.0002261799744 	-1.187591773e-08 	0.001407357453 	-3.248260293e-08 	2.682814461e-06
0.6924219988 	0.001366537042 	0.0002358328007 	-1.202697071e-08 	0.001428874913 	-3.286582965e-08 	2.723832719e-06
0.6957577944 	0.001384714148 	0.0002451278316 	-1.216732443e-08 	0.001449642431 	-3.324492198e-08 	2.76342138e-06
0.6991308138 	0.001402261422 	0.0002540895555 	-1.229565378e-08 	0.001469627743 	-3.362018345e-08 	2.801518941e-06
0.7025414724 	0.001419168583 	0.0002627431462 	-1.241086362e-08 	0.001488805755 	-3.399170231e-08 	2.838077561e-06
0.7059901901 	0.001435430015 	0.0002711147839 	-1.251206698e-08 	0.001507158051 	-3.435938699e-08 	2.873062139e-06
0.7094773917 	0.001451044019 	0.0002792319625 	-1.259853139e-08 	0.001524672564 	-3.472298464e-08 	2.906449668e-06
0.7130035066 	0.001466012271 	0.0002871238104 	-1.266959699e-08 	0.00154134337 	-3.508208189e-08 	2.938228857e-06
0.7165689691 	0.001480339516 	0.0002948214608 	-1.272458193e-08 	0.001557170627 	-3.543608448e-08 	2.968400008e-06
0.7201742182 	0.00149403351 	0.0003023585067 	-1.276270473e-08 	0.001572160633 	-3.578417296e-08 	2.996975126e-06
0.7238196978 	0.001507105247 	0.0003097715752 	-1.278305329e-08 	0.001586326093 	-3.612524572e-08 	3.023978431e-06
0.727505857 	0.001519569455 	0.0003171009928 	-1.278460799e-08 	0.001599686516 	-3.645784794e-08 	3.049447109e-06
0.7312331497 	0.001531445256 	0.0003243937088 	-1.276661476e-08 	0.001612268882 	-3.678010495e-08 	3.073432596e-06
0.7350020349 	0.001542736125 	0.0003316801229 	-1.272875857e-08 	0.001624084267 	-3.708962007e-08 	3.095956003e-06
0.7387709215 	0.0015534115 	0.0003389469634 	-1.267072987e-08 	0.001635109175 	-3.738318556e-08 	3.116972543e-06
0.7424982157 	0.001563461217 	0.0003461906855 	-1.25927818e-08 	0.001645350445 	-3.76571599e-08 	3.13649525e-06
0.7461843763 	0.001572933674 	0.0003534587988 	-1.249621087e-08 	0.001654885247 	-3.79079634e-08 	3.154671232e-06
0.7498298574 	0.001581902682 	0.00036081558 	-1.23824167e-08 	0.001663819607 	-3.813193587e-08 	3.171702605e-06
0.7534351078 	0.001590447799 	0.0003683234048 	-1.225245918e-08 	0.001672265368 	-3.832524167e-08 	3.187802573e-06
0.7570005716 	0.001598655492 	0.0003760449787 	-1.210723909e-08 	0.001680341132 	-3.848382545e-08 	3.203197225e-06
0.7605266877 	0.001606620317 	0.0003840434142 	-1.194749774e-08 	0.001688173144 	-3.860337598e-08 	3.218127216e-06
0.7640138905 	0.001614445968 	0.0003923823863 	-1.177390119e-08 	0.001695896114 	-3.867933387e-08 	3.232849343e-06
0.7674626093 	0.001622246159 	0.0004011262563 	-1.15871674e-08 	0.001703653941 	-3.870694308e-08 	3.247637919e-06
0.770873269 	0.001630145309 	0.0004103401198 	-1.138818918e-08 	0.001711600317 	-3.868135941e-08 	3.262785918e-06
0.7742462894 	0.001638278983 	0.0004200897372 	-1.117810653e-08 	0.001719899126 	-3.859780581e-08 	3.278605755e-06
0.777582086 	0.00164679404 	0.0004304413137 	-1.095829705e-08 	0.001728724575 	-3.845175825e-08 	3.295429513e-06
0.7808810695 	0.00165584844 	0.0004414611226 	-1.073027795e-08 	0.001738260939 	-3.823914172e-08 	3.313608474e-06
0.7841436462 	0.001665610655 	0.0004532149827 	-1.049554057e-08 	0.001748701867 	-3.795651688e-08 	3.333511785e-06
0.787370218 	0.001676258617 	0.0004657676253 	-1.025535871e-08 	0.001760249162 	-3.760124308e-08 	3.355524139e-06
0.7905611821 	0.001687978173 	0.0004791819917 	-1.001062034e-08 	0.001773111008 	-3.717161011e-08 	3.380042392e-06
0.7937169314 	0.001700961011 	0.0004935185035 	-9.761722739e-09 	0.001787499633 	-3.66669377e-08 	3.407471111e-06
0.7968378547 	0.001715402054 	0.0005088343402 	-9.508546559e-09 	0.001803628439 	-3.608764416e-08 	3.438217098e-06
0.7999243362 	0.00173149639 	0.0005251827406 	-9.250490926e-09 	0.001821708673 	-3.543528268e-08 	3.472683049e-06
0.8029767561 	0.001749435807 	0.0005426123415 	-8.986520096e-09 	0.00184194575 	-3.471253429e-08 	3.511260542e-06
0.8059954902 	0.001769405088 	0.0005611665619 	-8.715155567e-09 	0.001864535376 	-3.392313377e-08 	3.554322647e-06
0.8089809102 	0.001791578223 	0.0005808830581 	-8.434355604e-09 	0.001889659651 	-3.307169408e-08 	3.602216499e-06
0.8119333839 	0.001816114761 	0.0006017932911 	-8.141260544e-09 	0.001917483366 	-3.216339384e-08 	3.655256232e-06
0.8148532749 	0.001843156502 	0.0006239222743 	-7.831839733e-09 	0.00194815069 	-3.120350924e-08 	3.713716675e-06
0.8177409426 	0.001872824733 	0.0006472885728 	-7.500535957e-09 	0.001981782491 	-3.019680768e-08 	3.777828237e-06
0.8205967427 	0.001905218176 	0.0006719046119 	-7.140041568e-09 	0.002018474472 	-2.914686856e-08 	3.84777335e-06
0.8234210268 	0.00194041177 	0.0006977773099 	-6.74133668e-09 	0.002058296251 	-2.805544175e-08 	3.923684729e-06
0.8262141429 	0.001978456343 	0.0007249089863 	-6.294067841e-09 	0.00210129148 	-2.692197627e-08 	4.005645585e-06
0.8289764348 	0.002019379145 	0.0007532984319 	-5.787259296e-09 	0.002147478936 	-2.574343741e-08 	4.093691714e-06
0.8317082427 	0.002063185156 	0.0007829419794 	-5.21025745e-09 	0.00219685447 	-2.451447929e-08 	4.187815205e-06
0.8344099031 	0.002109859009 	0.0008138343996 	-4.553745066e-09 	0.002249393574 	-2.322796585e-08 	4.287969338e-06
0.8370817486 	0.002159367333 	0.0008459694771 	-3.810646669e-09 	0.002305054295 	-2.187576096e-08 	4.394074142e-06
0.8397241082 	0.002211661303 	0.0008793401788 	-2.976782624e-09 	0.00236378021 	-2.044965923e-08 	4.50602206e-06
0.8423373074 	0.002266679198 	0.0009139384093 	-2.05119976e-09 	0.002425503212 	-1.894231694e-08 	4.623683256e-06
0.844921668 	0.0023243488 	0.0009497544159 	-1.036184564e-09 	0.002490145916 	-1.734806375e-08 	4.746910217e-06
0.8474775082 	0.002384589519 	0.0009867759618 	6.29737132e-11 	0.002557623609 	-1.56635199e-08 	4.875541454e-06
0.8500051427 	0.002447314176 	0.001024987404 	1.23837228e-09 	0.002627845701 	-1.388799165e-08 	5.009404278e-06
0.8525048829 	0.00251243043 	0.001064368813 	2.479940218e-09 	0.002700716742 	-1.202365755e-08 	5.148316736e-06
0.8549770366 	0.002579841873 	0.001104895231 	3.775868536e-09 	0.002776137079 	-1.007558158e-08 	5.292088859e-06
0.8574219081 	0.002649448842 	0.001146536145 	5.112987687e-09 	0.002854003257 	-8.051595965e-09 	5.440523437e-06
0.8598397987 	0.002721148997 	0.001189255194 	6.477087394e-09 	0.002934208268 	-5.962091997e-09 	5.59341648e-06
0.862231006 	0.00279483775 	0.001233010115 	7.853195763e-09 	0.00301664172 	-3.819745967e-09 	5.750557551e-06
0.8645958245 	0.002870408587 	0.001277752897 	9.225844185e-09 	0.003101190003 	-1.639196768e-09 	5.911730078e-06
0.8669345455 	0.002947753335 	0.001323430106 	1.057934297e-08 	0.003187736485 	5.633164887e-10 	6.076711727e-06
0.8692474569 	0.00302676242 	0.001369983346 	1.18980837e-08 	0.00327616177 	2.77035189e-09 	6.245274896e-06
0.8715348435 	0.003107325137 	0.001417349821 	1.316687216e-08 	0.003366344023 	4.963691918e-09 	6.417187336e-06
0.8737969871 	0.003189329944 	0.001465462956 	1.437128383e-08 	0.003458159369 	7.124792128e-09 	6.592212902e-06
0.8760341663 	0.003272664808 	0.001514253066 	1.549802511e-08 	0.00355148235 	9.235239171e-09 	6.770112443e-06
0.8782466565 	0.003357217571 	0.001563648047 	1.653527824e-08 	0.003646186449 	1.127720251e-08 	6.950644776e-06
0.8804347301 	0.00344287636 	0.001613574076 	1.747300714e-08 	0.003742144639 	1.323386236e-08 	7.133567757e-06
0.8825986568 	0.003529530022 	0.00166395631 	1.830320375e-08 	0.003839229975 	1.508979607e-08 	7.31863939e-06
0.8847387028 	0.003617068556 	0.001714719568 	1.90200594e-08 	0.003937316185 	1.683130735e-08 	7.50561897e-06
0.8868551318 	0.003705383557 	0.001765788991 	1.962005223e-08 	0.004036278265 	1.84466858e-08 	7.694268198e-06
0.8889482045 	0.00379436862 	0.001817090674 	2.010194799e-08 	0.004135993037 	1.992638883e-08 	7.884352269e-06
0.8910181784 	0.003883919718 	0.001868552243 	2.046671783e-08 	0.004236339686 	2.126314274e-08 	8.075640871e-06
0.8930653087 	0.00397393552 	0.001920103393 	2.071738164e-08 	0.004337200216 	2.245196471e-08 	8.267909075e-06
0.8950898473 	0.004064317635 	0.001971676361 	2.085878929e-08 	0.004438459857 	2.349011126e-08 	8.460938094e-06
0.8970920436 	0.004154970785 	0.002023206325 	2.089735402e-08 	0.004540007366 	2.437696231e-08 	8.654515869e-06
0.8990721441 	0.00424580288 	0.002074631745 	2.084075373e-08 	0.004641735244 	2.511385228e-08 	8.848437479e-06
0.9010303927 	0.004336725 	0.002125894623 	2.069761495e-08 	0.004743539854 	2.570386072e-08 	9.04250536e-06
0.9029670306 	0.004427651295 	0.002176940686 	2.047719387e-08 	0.004845321428 	2.615157549e-08 	9.236529328e-06
0.9048822962 	0.004518498791 	0.002227719502 	2.018906662e-08 	0.004946983993 	2.646284086e-08 	9.430326433e-06
0.9067764254 	0.004609187135 	0.002278184526 	1.984283907e-08 	0.005048435206 	2.664450171e-08 	9.623720643e-06
0.9086496514 	0.004699638293 	0.002328293082 	1.944788436e-08 	0.005149586131 	2.670415338e-08 	9.816542419e-06
0.910502205 	0.004789776221 	0.002378006284 	1.901311398e-08 	0.005250350972 	2.664990457e-08 	1.000862821e-05
0.9123343142 	0.004879526554 	0.002427288917 	1.854678632e-08 	0.005350646802 	2.649015895e-08 	1.019981994e-05
0.9141462048 	0.004968816331 	0.002476109266 	1.805635474e-08 	0.005450393303 	2.623341879e-08 	1.038996449e-05
0.9159380997 	0.005057573799 	0.002524438919 	1.754835576e-08 	0.00554951257 	2.588811228e-08 	1.057891337e-05
0.9177102197 	0.005145728319 	0.00257225254 	1.702833657e-08 	0.00564792897 	2.54624449e-08 	1.076652238e-05
0.9194627831 	0.005233210381 	0.002619527621 	1.650082022e-08 	0.005745569112 	2.496427402e-08 	1.095265163e-05
0.9211960055 	0.005319951763 	0.002666244219 	1.596930605e-08 	0.00584236191 	2.440100544e-08 	1.11371656e-05
0.9229101006 	0.005405885795 	0.002712384684 	1.543630233e-08 	0.005938238737 	2.377951084e-08 	1.131993348e-05