0.4709558481 	1.536182361e-07 	-3.637634891e-10 	4.189445866e-16 	1.533263267e-07 	-1.97597948e-15 	2.922825934e-10
0.4709558481 	1.536182361e-07 	-3.637634891e-10 	4.189445866e-16 	1.533263267e-07 	-1.97597948e-15 	2.922825934e-10
0.4711314108 	1.724694564e-06 	-1.596014598e-08 	1.853647613e-14 	1.721479283e-06 	-2.217568907e-14 	3.281617974e-09
0.4713069734 	9.612815751e-06 	-2.082207684e-07 	2.436582352e-13 	9.596598746e-06 	-1.279930901e-13 	1.829378445e-08
0.471482536 	3.199620429e-05 	-1.298031725e-06 	1.527415014e-12 	3.195937706e-05 	-4.553355525e-13 	6.092345532e-08
0.4716580986 	7.898870338e-05 	-5.258766379e-06 	6.200300905e-12 	7.899622548e-05 	-1.213948286e-12 	1.505887616e-07
0.4718336613 	0.000161410863 	-1.606374466e-05 	1.886636277e-11 	0.0001618159664 	-2.58587732e-12 	3.084662064e-07
0.4720092239 	0.0002898554103 	-4.017269994e-05 	4.659538583e-11 	0.0002917609678 	-4.300952097e-12 	5.561774955e-07
0.4721847865 	0.000473507543 	-8.636410589e-05 	9.777036217e-11 	0.0004795031668 	-4.611570826e-12 	9.140663069e-07
0.4723603491 	0.0007186869127 	-0.0001645539517 	1.790830348e-10 	0.0007337000308 	1.449411448e-12 	1.39863618e-06
0.4725359118 	0.001027399119 	-0.0002835803106 	2.912080463e-10 	0.001059256691 	2.4089186e-11 	2.019237658e-06
0.4727114744 	0.001396411287 	-0.0004485604616 	4.252274929e-10 	0.001455629155 	7.978754478e-11 	2.77483374e-06
0.472887037 	0.001817332606 	-0.0006589474986 	5.625064999e-10 	0.001915924341 	1.897758753e-10 	3.652284297e-06
0.4730625996 	0.002277818583 	-0.0009082838571 	6.791020288e-10 	0.002427445573 	3.755345681e-10 	4.627385935e-06
0.4732381623 	0.002763528417 	-0.001185789353 	7.527580348e-10 	0.002973696593 	6.529921127e-10 	5.668692203e-06
0.4734137249 	0.003260184438 	-0.001478959267 	7.68839856e-10 	0.003537121098 	1.028254364e-09 	6.742735904e-06
0.4735892875 	0.003755167754 	-0.001776016696 	7.226857367e-10 	0.004101591993 	1.496693202e-09 	7.818774317e-06
0.4737648501 	0.004238400025 	-0.002067460924 	6.183875888e-10 	0.004653991228 	2.045138604e-09 	8.87180079e-06
0.4739404128 	0.004702565869 	-0.002346593293 	4.656792552e-10 	0.005184767697 	2.655567313e-09 	9.883608262e-06
0.4741159754 	0.005142887451 	-0.002609317544 	2.766811236e-10 	0.005687738141 	3.308676025e-09 	1.084240972e-05
0.474291538 	0.005556677692 	-0.002853598567 	6.346730825e-11 	0.006159495856 	3.986459937e-09 	1.174171104e-05
0.4744671006 	0.005942840066 	-0.003078861054 	-1.633401866e-10 	0.006598715257 	4.673638065e-09 	1.25789853e-05
0.4746426632 	0.006301411019 	-0.003285471725 	-3.951487129e-10 	0.007005516624 	5.358159739e-09 	1.335446177e-05
0.4748182259 	0.006633185155 	-0.003474349463 	-6.254435142e-10 	0.007380956052 	6.031127232e-09 	1.407015366e-05
0.4749937885 	0.006939429482 	-0.003646696213 	-8.49561282e-10 	0.007726647554 	6.686417951e-09 	1.472913775e-05
0.4751693511 	0.007221676579 	-0.003803823061 	-1.064358861e-09 	0.008044498609 	7.320199298e-09 	1.53350502e-05
0.4753449137 	0.007481581113 	-0.003947044311 	-1.267873779e-09 	0.00833653283 	7.930441237e-09 	1.589174859e-05
0.4755204764 	0.007720824036 	-0.004077617039 	-1.459021376e-09 	0.008604777963 	8.516514989e-09 	1.640309837e-05
0.475696039 	0.007941052149 	-0.004196709962 	-1.637346967e-09 	0.00885118045 	9.078544822e-09 	1.687281e-05
0.4758716016 	0.008143836863 	-0.004305397266 	-1.802989357e-09 	0.009077637066 	9.617756702e-09 	1.730449925e-05
0.4760471642 	0.008330710287 	-0.004404288666 	-1.949926741e-09 	0.009285775843 	1.013415771e-08 	1.770126961e-05
0.4762227269 	0.008525610535 	-0.004508434061 	-2.116746144e-09 	0.009503109341 	1.070145182e-08 	1.811556766e-05
0.4764955107 	0.008745212484 	-0.004624565997 	-2.313678377e-09 	0.009747377433 	1.137952652e-08 	1.858121053e-05
0.4767734216 	0.008962192415 	-0.00473682943 	-2.523097192e-09 	0.009987681393 	1.210000855e-08 	1.903929667e-05
0.4770565557 	0.009156943629 	-0.004837704396 	-2.753813049e-09 	0.01020324507 	1.280700852e-08 	1.945022095e-05
0.4773450114 	0.009331647947 	-0.004927882273 	-2.999567375e-09 	0.0103962927 	1.349984396e-08 	1.981822338e-05
0.4776388886 	0.009488191132 	-0.005008466455 	-3.26379821e-09 	0.01056903952 	1.418030772e-08 	2.014752684e-05
0.4779382892 	0.009628269053 	-0.005080407733 	-3.54935373e-09 	0.01072336772 	1.484878204e-08 	2.044171928e-05
0.4782433171 	0.009753397138 	-0.005144536299 	-3.858816402e-09 	0.01086098073 	1.550580991e-08 	2.070404793e-05
0.4785540779 	0.009864929636 	-0.005201577816 	-4.194474967e-09 	0.01098339053 	1.61514026e-08 	2.093739503e-05
0.4788706795 	0.009964076288 	-0.005252167305 	-4.55827647e-09 	0.01109194308 	1.678507522e-08 	2.114432636e-05
0.4791932316 	0.01005191801 	-0.005296861524 	-4.95176811e-09 	0.01118783674 	1.740578122e-08 	2.132712633e-05
0.4795218461 	0.01012942106 	-0.005336149708 	-5.376029859e-09 	0.01127213994 	1.801186405e-08 	2.148783166e-05
0.4798566368 	0.01019744983 	-0.005370462873 	-5.831602746e-09 	0.01134580644 	1.860100827e-08 	2.162826048e-05
0.48019772 	0.01025677815 	-0.005400181822 	-6.318416276e-09 	0.01140968888 	1.917020293e-08 	2.175003817e-05
0.4805452138 	0.01030809931 	-0.005425644015 	-6.835718516e-09 	0.01146455067 	1.971571867e-08 	2.185461998e-05
0.4808992388 	0.01035203495 	-0.005447149451 	-7.382011611e-09 	0.01151107632 	2.02331003e-08 	2.194331081e-05
0.4812599177 	0.01038914281 	-0.00546496571 	-7.954995196e-09 	0.0115498806 	2.07171759e-08 	2.201728256e-05
0.4816273755 	0.01041992362 	-0.005479332276 	-8.551520105e-09 	0.01158151642 	2.116208336e-08 	2.20775892e-05
0.4820017397 	0.01044482716 	-0.005490464234 	-9.167554271e-09 	0.01160648175 	2.156131439e-08 	2.212518007e-05
0.48238314 	0.01046425756 	-0.00549855546 	-9.798163469e-09 	0.01162522577 	2.190777618e-08 	2.216091138e-05
0.4827717088 	0.0104785781 	-0.005503781362 	-1.043750689e-08 	0.01163815413 	2.219386986e-08 	2.218555642e-05
0.4831675807 	0.01048811536 	-0.005506301245 	-1.107884834e-08 	0.01164563364 	2.241158504e-08 	2.219981445e-05
0.4835708931 	0.01049316297 	-0.005506260363 	-1.171458802e-08 	0.01164799642 	2.255261074e-08 	2.220431858e-05
0.4839817856 	0.01049398495 	-0.005503791687 	-1.233631349e-08 	0.01164554353 	2.260846094e-08 	2.219964268e-05
0.4844004009 	0.01049081866 	-0.005499017455 	-1.293486763e-08 	0.01163854814 	2.257061307e-08 	2.218630752e-05
0.4848268841 	0.01048387753 	-0.005492050511 	-1.350043702e-08 	0.01162725845 	2.243065897e-08 	2.216478623e-05
0.485261383 	0.01047335338 	-0.005482995485 	-1.402266026e-08 	0.01161190015 	2.218046678e-08 	2.213550904e-05
0.4857040484 	0.01045941867 	-0.005471949809 	-1.449075526e-08 	0.01159267871 	2.181235192e-08 	2.209886764e-05
0.4861550336 	0.01044222835 	-0.005459004612 	-1.489366481e-08 	0.01156978137 	2.131925554e-08 	2.205521895e-05
0.4866144951 	0.01042192173 	-0.0054442455 	-1.522021957e-08 	0.0115433789 	2.069492827e-08 	2.20048885e-05
0.4870825921 	0.01039862394 	-0.005427753229 	-1.545931673e-08 	0.01151362718 	1.993411701e-08 	2.194817345e-05
0.487559487 	0.01037244748 	-0.005409604289 	-1.560011258e-08 	0.01148066863 	1.903275215e-08 	2.188534529e-05
0.4880453452 	0.01034349343 	-0.005389871401 	-1.56322265e-08 	0.01144463341 	1.798813233e-08 	2.181665215e-05
0.4885403351 	0.01031185265 	-0.005368623945 	-1.554595363e-08 	0.01140564058 	1.679910359e-08 	2.174232097e-05
0.4890446283 	0.01027760682 	-0.005345928302 	-1.533248291e-08 	0.011363799 	1.546622942e-08 	2.16625593e-05
0.4895583997 	0.01024082936 	-0.005321848145 	-1.498411674e-08 	0.01131920826 	1.399194793e-08 	2.157755695e-05
0.4900818274 	0.01020158628 	-0.005296444657 	-1.449448824e-08 	0.01127195934 	1.238071234e-08 	2.148748738e-05
0.4906150929 	0.01015993693 	-0.005269776693 	-1.385877151e-08 	0.01122213532 	1.063911064e-08 	2.139250896e-05
0.4911583811 	0.01011593463 	-0.005241900885 	-1.307388033e-08 	0.0111698119 	8.775960392e-09 	2.129276598e-05
0.4917118805 	0.01006962728 	-0.005212871696 	-1.213865017e-08 	0.01111505788 	6.802374679e-09 	2.118838959e-05
0.4922757829 	0.01002105784 	-0.005182741421 	-1.105399864e-08 	0.01105793553 	4.731795475e-09 	2.107949852e-05
0.4928502838 	0.009970264771 	-0.005151560143 	-9.823059438e-09 	0.01099850097 	2.579990998e-09 	2.096619972e-05
0.4934355824 	0.0099172824 	-0.005119375647 	-8.451284952e-09 	0.01093680439 	3.650142194e-10 	2.084858889e-05
0.4940318817 	0.009862141262 	-0.005086233291 	-6.946513134e-09 	0.01087289028 	-1.892879677e-09 	2.072675083e-05
0.4946393885 	0.009804868358 	-0.005052175846 	-5.318994791e-09 	0.01080679763 	-4.17135824e-09 	2.060075987e-05
0.4952583133 	0.00974548738 	-0.005017243305 	-3.581377928e-09 	0.01073856004 	-6.446179539e-09 	2.047068006e-05
0.4958888709 	0.009684018916 	-0.004981472661 	-1.74864674e-09 	0.01066820585 	-8.691402134e-09 	2.033656542e-05
0.4965312797 	0.009620480609 	-0.004944897675 	1.619864001e-10 	0.01059575822 	-1.087963549e-08 	2.019846011e-05
0.4971857627 	0.009554887309 	-0.004907548618 	2.131236462e-09 	0.01052123526 	-1.298232791e-08 	2.005639863e-05
0.4978525466 	0.009487251206 	-0.00486945202 	4.137948302e-09 	0.01044465006 	-1.497008784e-08 	1.991040596e-05
0.4985318627 	0.009417581964 	-0.004830630398 	6.159344559e-09 	0.01036601084 	-1.681303344e-08 	1.976049775e-05
0.4992239466 	0.009345886849 	-0.00479110201 	8.17131601e-09 	0.01028532104 	-1.848116409e-08 	1.960668056e-05
0.4999290382 	0.009272170882 	-0.004750880599 	1.014875042e-08 	0.01020257946 	-1.994474676e-08 	1.944895211e-05
0.5006473819 	0.009196437002 	-0.004709975165 	1.206589479e-08 	0.01011778045 	-2.117470843e-08 	1.928730162e-05
0.501379227 	0.009118686249 	-0.004668389742 	1.389674495e-08 	0.0100309142 	-2.214302054e-08 	1.912171042e-05
0.502124827 	0.009038917993 	-0.004626123188 	1.561545602e-08 	0.009941966825 	-2.282307919e-08 	1.895215199e-05
0.5028844406 	0.008957130188 	-0.004583168932 	1.719676812e-08 	0.009850920664 	-2.319012909e-08 	1.877859271e-05
0.5036583311 	0.008873319979 	-0.004539514869 	1.861642801e-08 	0.009757747602 	-2.322195749e-08 	1.860097895e-05
0.5044467669 	0.008787482269 	-0.004495143973 	1.985181514e-08 	0.009662444486 	-2.289783935e-08 	1.841930473e-05
0.5052500214 	0.008699617389 	-0.004449995481 	2.087738098e-08 	0.009564980775 	-2.219810991e-08 	1.823351181e-05
0.506068373 	0.008598019594 	-0.004398982903 	2.170677341e-08 	0.009452660005 	-2.092884618e-08 	1.80193972e-05
0.507324668 	0.008470861139 	-0.004335181082 	2.233377905e-08 	0.009312018172 	-1.870591385e-08 	1.775129478e-05
0.5085949819 	0.00832986508 	-0.004263740953 	2.257526623e-08 	0.009155754447 	-1.550887055e-08 	1.745341269e-05
0.5098794711 	0.008186518038 	-0.004191431694 	2.228049047e-08 	0.008996919616 	-1.15400834e-08 	1.715062935e-05
0.5111782938 	0.008040820357 	-0.004118128649 	2.145112233e-08 	0.008835478656 	-6.858788395e-09 	1.684287801e-05
0.5124916099 	0.00789276376 	-0.004043772306 	2.010438208e-08 	0.008671442551 	-1.531637577e-09 	1.65301796e-05
0.5138195812 	0.007742344684 	-0.003968308701 	1.82665575e-08 	0.008504791688 	4.368653903e-09 	1.621249674e-05
0.5151623712 	0.007589563616 	-0.003891690668 	1.597168982e-08 	0.00833552688 	1.076774852e-08 	1.588983097e-05
0.5165201452 	0.007434427004 	-0.00381387871 	1.325979082e-08 	0.008163657852 	1.759064613e-08 	1.556220084e-05
0.5178930705 	0.007276948276 	-0.003734841397 	1.017519371e-08 	0.007989204365 	2.47631142e-08 	1.5229644e-05
0.5192813161 	0.007117148636 	-0.003654555611 	6.765023456e-09 	0.007812196206 	3.221297875e-08 	1.489221726e-05
0.520685053 	0.006955057659 	-0.003573006592 	3.077799965e-09 	0.007632673411 	3.987123361e-08 	1.454999691e-05
0.522104454 	0.006790713753 	-0.003490187777 	-8.378216267e-10 	0.007450686194 	4.767293858e-08 	1.42030787e-05
0.523539694 	0.006624164566 	-0.003406100465 	-4.934176182e-09 	0.007266294834 	5.555790784e-08 	1.385157752e-05
0.5249909497 	0.006455467368 	-0.003320753319 	-9.165589084e-09 	0.007079569569 	6.347115757e-08 	1.349562726e-05
0.5264583998 	0.006284689538 	-0.003234161709 	-1.348926072e-08 	0.006890590597 	7.136309676e-08 	1.313538082e-05
0.527942225 	0.006111909239 	-0.00314634695 	-1.786601795e-08 	0.006699448306 	7.918927638e-08 	1.277101049e-05
0.5294426081 	0.005937216518 	-0.003057335514 	-2.226079278e-08 	0.006506243706 	8.691034037e-08 	1.240270882e-05
0.5309597337 	0.005760715092 	-0.002967158531 	-2.664233339e-08 	0.006311090816 	9.448739596e-08 	1.203069317e-05
0.5324937889 	0.005582525562 	-0.002875850738 	-3.098818671e-08 	0.006114120985 	1.01881678e-07 	1.165521393e-05
0.5340449624 	0.005402790896 	-0.002783480054 	-3.520507797e-08 	0.005915496652 	1.089955917e-07 	1.127658075e-05
0.5356134452 	0.005221843003 	-0.002690158073 	-3.926596063e-08 	0.005715561784 	1.155459624e-07 	1.089544932e-05
0.5371994306 	0.005040362352 	-0.002595957557 	-4.32683794e-08 	0.005514955714 	1.212452618e-07 	1.051303839e-05
0.5388031139 	0.004859148239 	-0.002500893627 	-4.719321369e-08 	0.005314400436 	1.261185444e-07 	1.013072429e-05
0.5404246925 	0.004678840687 	-0.00240500444 	-5.098596496e-08 	0.005114481558 	1.303579221e-07 	9.749623347e-06
0.5420643661 	0.004499887945 	-0.002308362738 	-5.464418544e-08 	0.004915627765 	1.341063926e-07 	9.370552748e-06
0.5437223366 	0.004322594663 	-0.002211048323 	-5.816121587e-08 	0.004718146052 	1.374657513e-07 	8.994097716e-06
0.5453988083 	0.004147169561 	-0.002113145472 	-6.153530005e-08 	0.004522262069 	1.405062868e-07 	8.620688402e-06
0.5470939875 	0.00397375772 	-0.002014743528 	-6.476372992e-08 	0.004328148576 	1.432732284e-07 	8.250654133e-06
0.5488080831 	0.003802465997 	-0.001915938894 	-6.784260944e-08 	0.004135949277 	1.457892289e-07 	7.88426885e-06
0.5505413061 	0.003633387165 	-0.001816837067 	-7.076595392e-08 	0.003945801549 	1.480533657e-07 	7.521794432e-06
0.5522938699 	0.003466623875 	-0.001717555158 	-7.352460115e-08 	0.003757859291 	1.500401328e-07 	7.163524251e-06
0.5540659904 	0.003302311676 	-0.001618224953 	-7.610504125e-08 	0.003572315307 	1.51699366e-07 	6.80982585e-06
0.5558578859 	0.003140639678 	-0.00151899655 	-7.848824973e-08 	0.003389422033 	1.529574369e-07 	6.461180437e-06
0.5576697768 	0.002981867683 	-0.00142004253 	-8.064858592e-08 	0.003209509587 	1.537193119e-07 	6.118217311e-06
0.5595018865 	0.002826339366 	-0.001321562589 	-8.255281221e-08 	0.003033000733 	1.538709532e-07 	5.781742376e-06
0.5613544406 	0.00267449155 	-0.001223788497 	-8.415933147e-08 	0.002860422765 	1.532818224e-07 	5.452760804e-06
0.563227667 	0.00252685981 	-0.001126989152 	-8.541782634e-08 	0.002692416344 	1.518077566e-07 	5.132493871e-06
0.5651217966 	0.002384080241 	-0.001031475267 	-8.626960835e-08 	0.002529740819 	1.49295011e-07 	4.822389105e-06
0.5670370626 	0.002246886518 	-0.0009376029415 	-8.664912551e-08 	0.002373274652 	1.455866835e-07 	4.524121104e-06
0.5689737009 	0.002116100549 	-0.0008457749088 	-8.648719922e-08 	0.002224008455 	1.405329807e-07 	4.239578246e-06
0.5709319499 	0.001992614229 	-0.0007564378316 	-8.571658866e-08 	0.002083026943 	1.340067353e-07 	3.970828302e-06
0.5729120508 	0.001877359406 	-0.0006700736034 	-8.42802858e-08 	0.001951475397 	1.259249723e-07 	3.720054491e-06
0.5749142474 	0.001771263445 	-0.0005871826344 	-8.214236224e-08 	0.001830506339 	1.162758385e-07 	3.489453845e-06
0.5769387863 	0.001675189181 	-0.0005082578446 	-7.930014337e-08 	0.001721204056 	1.051474341e-07 	3.281093316e-06
0.5789859169 	0.001589860733 	-0.000433749971 	-7.579513855e-08 	0.001624488632 	9.275191815e-08 	3.096726836e-06
0.5810558911 	0.001515780348 	-0.0003640278301 	-7.171855023e-08 	0.0015410074 	7.943357311e-08 	2.937588406e-06
0.583148964 	0.001453148765 	-0.0002993398494 	-6.721658671e-08 	0.001471032694 	6.564242513e-08 	2.804197167e-06
0.5852653933 	0.001401791535 	-0.0002398023925 	-6.240818293e-08 	0.001414376643 	5.180871563e-08 	2.696194988e-06
0.5874054395 	0.001361489884 	-0.0001854285046 	-5.745377023e-08 	0.001370718333 	3.810174418e-08 	2.612970115e-06
0.5895693664 	0.001332015829 	-0.0001360630474 	-5.258972455e-08 	0.001339641201 	2.487373055e-08 	2.553728463e-06
0.5917574402 	0.001312608551 	-9.137494961e-05 	-4.79503894e-08 	0.001320136659 	1.282825998e-08 	2.516547385e-06
0.5939699306 	0.001302079812 	-5.097358232e-05 	-4.361580709e-08 	0.001310748343 	2.343773919e-09 	2.498650645e-06
0.5962071099 	0.001299172411 	-1.443050871e-05 	-3.966152412e-08 	0.001309956566 	-6.546646248e-09 	2.497141299e-06
0.5984692536 	0.001302656175 	1.871143556e-05 	-3.61188749e-08 	0.001316293918 	-1.390306026e-08 	2.509222053e-06
0.6007566404 	0.001311384776 	4.890363322e-05 	-3.299274555e-08 	0.001328415431 	-1.985359501e-08 	2.532329026e-06
0.6030695519 	0.001324331 	7.657409771e-05 	-3.026808218e-08 	0.001345138042 	-2.456587344e-08 	2.564206969e-06
0.6054082729 	0.001340602558 	0.0001021159257 	-2.791677598e-08 	0.001365453954 	-2.822052368e-08 	2.602934744e-06
0.6077730914 	0.001359443123 	0.0001258811329 	-2.590335514e-08 	0.001388525587 	-3.099247368e-08 	2.646915689e-06
0.6101642987 	0.001380223575 	0.0001481787579 	-2.418945155e-08 	0.001413669596 	-3.303975669e-08 	2.69484716e-06
0.6125821893 	0.001402427731 	0.0001692759881 	-2.273691205e-08 	0.001440335759 	-3.449838664e-08 	2.745680278e-06
0.6150270608 	0.001425635874 	0.0001894011092 	-2.150966014e-08 	0.001468084722 	-3.548144603e-08 	2.798577514e-06
0.6174992144 	0.001449508452 	0.00020874731 	-2.047461546e-08 	0.001496567133 	-3.608081632e-08 	2.852872905e-06
0.6199989545 	0.001473771445 	0.0002274766942 	-1.960202692e-08 	0.001525505545 	-3.637034295e-08 	2.908037562e-06
0.622526589 	0.001498204184 	0.0002457241527 	-1.886551821e-08 	0.001554679688 	-3.640952671e-08 	2.963651586e-06
0.625082429 	0.001522629773 	0.0002636009684 	-1.824204406e-08 	0.001583915086 	-3.624705361e-08 	3.019382381e-06
0.6276667894 	0.001546907837 	0.0002811981513 	-1.771184414e-08 	0.001613074585 	-3.592367784e-08 	3.07496849e-06
0.6302799884 	0.00157092899 	0.0002985895303 	-1.72583839e-08 	0.001642052075 	-3.547420754e-08 	3.130207639e-06
0.6329223478 	0.001594610394 	0.0003158346016 	-1.686822334e-08 	0.001670767642 	-3.492860958e-08 	3.184947492e-06
0.6355941931 	0.001617891861 	0.000332981093 	-1.653077072e-08 	0.001699163506 	-3.431247462e-08 	3.239077901e-06
0.6382958531 	0.001640732202 	0.0003500671846 	-1.623793069e-08 	0.001727200319 	-3.364718406e-08 	3.292523859e-06
0.6410276607 	0.001663105755 	0.0003671233547 	-1.598369768e-08 	0.001754853702 	-3.295007349e-08 	3.345238892e-06
0.6437899523 	0.001684999164 	0.0003841738555 	-1.576375137e-08 	0.001782111035 	-3.223474857e-08 	3.397198945e-06
0.646583068 	0.001706408534 	0.0004012378552 	-1.557509104e-08 	0.001808968612 	-3.151156984e-08 	3.448396951e-06
0.6494073518 	0.001727337032 	0.0004183303002 	-1.541572361e-08 	0.001835429227 	-3.078823816e-08 	3.498838238e-06
0.6522631514 	0.001747792984 	0.0004354625504 	-1.528440589e-08 	0.001861500245 	-3.007039291e-08 	3.548536844e-06
0.6551508186 	0.001767788403 	0.0004526428352 	-1.51804364e-08 	0.001887192102 	-2.936215425e-08 	3.597512665e-06
0.658070709 	0.001787337911 	0.000469876573 	-1.510349022e-08 	0.001912517195 	-2.86665735e-08 	3.64578933e-06
0.6610231822 	0.001806457959 	0.0004871665872 	-1.505349035e-08 	0.001937489064 	-2.798598234e-08 	3.693392653e-06
0.6640086017 	0.001825166282 	0.0005045132467 	-1.503050875e-08 	0.001962121812 	-2.732224964e-08 	3.740349517e-06
0.6670273351 	0.001843481517 	0.0005219145537 	-1.503469095e-08 	0.001986429687 	-2.667696154e-08 	3.786687082e-06
0.6700797543 	0.00186142294 	0.0005393661948 	-1.506619831e-08 	0.002010426774 	-2.605154248e-08 	3.8324322e-06
0.6731662352 	0.001879010286 	0.0005568615697 	-1.512516346e-08 	0.002034126772 	-2.544733286e-08 	3.877610984e-06
0.6762871577 	0.001896263619 	0.0005743918059 	-1.521165482e-08 	0.002057542819 	-2.486563578e-08 	3.922248478e-06
0.6794429063 	0.00191320324 	0.000591945769 	-1.532564755e-08 	0.00208068735 	-2.430774242e-08 	3.966368387e-06
0.6826338695 	0.001929849625 	0.0006095100727 	-1.546699868e-08 	0.00210357198 	-2.377494276e-08 	4.009992851e-06
0.6858604404 	0.001946223376 	0.0006270690949 	-1.5635425e-08 	0.002126207397 	-2.326852616e-08 	4.053142248e-06
0.6891230163 	0.001962345185 	0.0006446050031 	-1.58304827e-08 	0.002148603279 	-2.278977492e-08 	4.095835023e-06
0.6924219988 	0.001978235811 	0.0006620977941 	-1.605154816e-08 	0.002170768203 	-2.23399527e-08 	4.138087528e-06
0.6957577944 	0.001993916067 	0.000679525351 	-1.62977996e-08 	0.002192709579 	-2.19202891e-08 	4.179913891e-06
0.6991308138 	0.002009406813 	0.0006968635215 	-1.656819936e-08 	0.002214433589 	-2.153196118e-08 	4.22132589e-06
0.7025414724 	0.002024728959 	0.0007140862223 	-1.686147701e-08 	0.002235945131 	-2.11760724e-08 	4.262332868e-06
0.7059901901 	0.002039903481 	0.0007311655729 	-1.717611326e-08 	0.002257247792 	-2.085362935e-08 	4.30294166e-06
0.7094773917 	0.002054951437 	0.0007480720643 	-1.751032506e-08 	0.002278343825 	-2.056551658e-08 	4.343156564e-06
0.7130035066 	0.002069894 	0.0007647747665 	-1.786205208e-08 	0.002299234159 	-2.031246991e-08 	4.382979347e-06
0.7165689691 	0.002084752502 	0.0007812415809 	-1.822894499e-08 	0.002319918425 	-2.009504829e-08 	4.422409306e-06
0.7201742182 	0.002099548484 	0.0007974395437 	-1.860835595e-08 	0.002340395018 	-1.991360499e-08 	4.461443384e-06
0.7238196978 	0.002114303753 	0.0008133351843 	-1.899733191e-08 	0.002360661217 	-1.976825756e-08 	4.500076391e-06
0.727505857 	0.002129040459 	0.0008288949474 	-1.939261146e-08 	0.002380713224 	-1.965886147e-08 	4.538301091e-06
0.7312331497 	0.002143781155 	0.0008440857133 	-1.979061851e-08 	0.002400546372 	-1.958498367e-08 	4.576108582e-06
0.7350020349 	0.002158510447 	0.0008588343149 	-2.018658077e-08 	0.002420103955 	-1.954583798e-08 	4.613390772e-06
0.7387709215 	0.002173129688 	0.0008729939865 	-2.057339841e-08 	0.002439223712 	-1.953968071e-08 	4.649838342e-06
0.7424982157 	0.002187542512 	0.000886446156 	-2.094395725e-08 	0.00245775953 	-1.956333691e-08 	4.685172762e-06
0.7461843763 	0.002201737553 	0.000899170821 	-2.129371554e-08 	0.002475685458 	-1.961298325e-08 	4.719344564e-06
0.7498298574 	0.002215740329 	0.0009111876105 	-2.161959387e-08 	0.00249302641 	-1.96847602e-08 	4.752401238e-06
0.7534351078 	0.002229574735 	0.0009225197203 	-2.191881255e-08 	0.002509807737 	-1.977477247e-08 	4.784391113e-06
0.7570005716 	0.002243263293 	0.0009331938337 	-2.218887932e-08 	0.002526055498 	-1.987911221e-08 	4.815363861e-06
0.7605266877 	0.002256827411 	0.0009432399629 	-2.242759188e-08 	0.002541796812 	-1.999387357e-08 	4.84537118e-06
0.7640138905 	0.002270287636 	0.0009526912781 	-2.263304179e-08 	0.002557060094 	-2.011516647e-08 	4.874467237e-06
0.7674626093 	0.00228366391 	0.0009615839226 	-2.280360792e-08 	0.002571875272 	-2.023912448e-08 	4.902709085e-06
0.770873269 	0.002296975817 	0.0009699568331 	-2.293794262e-08 	0.002586273984 	-2.036190822e-08 	4.930157031e-06
0.7742462894 	0.002310242842 	0.0009778515479 	-2.303497087e-08 	0.002600289747 	-2.047970905e-08 	4.956874971e-06
0.777582086 	0.002323484633 	0.0009853120076 	-2.309387988e-08 	0.002613958113 	-2.058874728e-08 	4.982930676e-06
0.7808810695 	0.002336721267 	0.0009923843655 	-2.31140999e-08 	0.00262731681 	-2.068526477e-08 	5.008396064e-06
0.7841436462 	0.002349973517 	0.0009991168006 	-2.309528895e-08 	0.002640405872 	-2.076551603e-08 	5.033347455e-06
0.787370218 	0.002363263137 	0.001005559338 	-2.303731415e-08 	0.002653267774 	-2.082575683e-08 	5.057865815e-06
0.7905611821 	0.002376613144 	0.001011763676 	-2.294023055e-08 	0.002665947553 	-2.086223019e-08 	5.082036997e-06
0.7937169314 	0.00239004811 	0.001017783024 	-2.280425727e-08 	0.002678492937 	-2.087114993e-08 	5.105951987e-06
0.7968378547 	0.002403594467 	0.001023671952 	-2.262975081e-08 	0.002690954481 	-2.084868217e-08 	5.129707153e-06
0.7999243362 	0.002417280807 	0.00102948625 	-2.241717511e-08 	0.002703385699 	-2.079092499e-08 	5.15340451e-06
0.8029767561 	0.002431138195 	0.001035282796 	-2.216706813e-08 	0.002715843213 	-2.069388667e-08 	5.177151993e-06
0.8059954902 	0.002445200475 	0.001041119449 	-2.188000469e-08 	0.0027283869 	-2.05534628e-08 	5.201063748e-06
0.8089809102 	0.002459504586 	0.001047054936 	-2.155655546e-08 	0.002741080058 	-2.036541305e-08 	5.225260434e-06
0.8119333839 	0.00247409086 	0.001053148766 	-2.11972424e-08 	0.002753989561 	-2.012533803e-08 	5.249869535e-06
0.8148532749 	0.002489003321 	0.001059461143 	-2.080249124e-08 	0.002767186034 	-1.982865773e-08 	5.27502568e-06
0.8177409426 	0.002504289962 	0.001066052891 	-2.037258215e-08 	0.002780744011 	-1.94705927e-08 	5.300870953e-06
0.8205967427 	0.002520003002 	0.001072985382 	-1.990760062e-08 	0.002794742097 	-1.904615029e-08 	5.327555194e-06
0.8234210268 	0.002536199114 	0.001080320464 	-1.940739128e-08 	0.002809263104 	-1.85501185e-08 	5.35523627e-06
0.8262141429 	0.002552939612 	0.001088120386 	-1.887151823e-08 	0.002824394172 	-1.797707088e-08 	5.384080292e-06
0.8289764348 	0.00257029059 	0.001096447706 	-1.829923642e-08 	0.002840226848 	-1.732138659e-08 	5.414261772e-06
0.8317082427 	0.002588323 	0.001105365184 	-1.76894793e-08 	0.002856857109 	-1.657729008e-08 	5.445963673e-06
0.8344099031 	0.00260711266 	0.001114935646 	-1.704086796e-08 	0.00287438533 	-1.573891516e-08 	5.479377334e-06
0.8370817486 	0.002626740175 	0.001125221808 	-1.6351747e-08 	0.002892916157 	-1.480039742e-08 	5.51470224e-06
0.8397241082 	0.002647290769 	0.001136286058 	-1.56202509e-08 	0.002912558284 	-1.375599818e-08 	5.552145594e-06
0.8423373074 	0.002668854014 	0.00114819018 	-1.484440258e-08 	0.002933424116 	-1.260026049e-08 	5.591921668e-06
0.844921668 	0.002691523447 	0.001160995017 	-1.402224281e-08 	0.002955629293 	-1.132819503e-08 	5.634250907e-06
0.8474775082 	0.002715396074 	0.001174760077 	-1.315198481e-08 	0.002979292085 	-9.935490076e-09 	5.679358766e-06
0.8500051427 	0.002740571767 	0.001189543077 	-1.223218463e-08 	0.00300453264 	-8.418735921e-09 	5.727474278e-06
0.8525048829 	0.002767152543 	0.001205399436 	-1.126191381e-08 	0.003031472091 	-6.77565115e-09 	5.778828359e-06
0.8549770366 	0.002795241746 	0.001222381738 	-1.024091869e-08 	0.003060231547 	-5.005296331e-09 	5.833651875e-06
0.8574219081 	0.00282494313 	0.001240539176 	-9.169750773e-09 	0.003090930971 	-3.108260681e-09 	5.89217351e-06
0.8598397987 	0.002856359861 	0.001259917003 	-8.049855012e-09 	0.003123687981 	-1.086809219e-09 	5.954617476e-06
0.862231006 	0.002889593458 	0.001280556019 	-6.883607978e-09 	0.003158616599 	1.055018333e-09 	6.021201131e-06
0.8645958245 	0.002924742673 	0.001302492107 	-5.674304532e-09 	0.003195825984 	3.311360995e-09 	6.092132559e-06
0.8669345455 	0.002961902342 	0.001325755847 	-4.426098465e-09 	0.003235419166 	5.674541524e-09 	6.167608168e-06
0.8692474569 	0.00300116222 	0.001350372204 	-3.143908324e-09 	0.003277491831 	8.135117949e-09 	6.247810362e-06
0.8715348435 	0.003042605816 	0.001376360306 	-1.83330313e-09 	0.003322131161 	1.068197375e-08 	6.332905331e-06
0.8737969871 	0.00308630926 	0.001403733303 	-5.003832931e-10 	0.003369414753 	1.330243754e-08 	6.423040999e-06
0.8760341663 	0.003132340213 	0.001432498288 	8.483304065e-10 	0.003419409644 	1.598242345e-08 	6.518345157e-06
0.8782466565 	0.00318075684 	0.001462656283 	2.205991639e-09 	0.003472171433 	1.870658563e-08 	6.618923792e-06
0.8804347301 	0.00323160688 	0.001494202258 	3.565505377e-09 	0.003527743526 	2.145848314e-08 	6.724859646e-06
0.8825986568 	0.003284926817 	0.001527125186 	4.919591671e-09 	0.003586156495 	2.422075556e-08 	6.836211001e-06
0.8847387028 	0.003340741188 	0.001561408102 	6.260847144e-09 	0.003647427572 	2.697531355e-08 	6.953010703e-06
0.8868551318 	0.003399062025 	0.001597028189 	7.58181904e-09 	0.003711560262 	2.970355168e-08 	7.075265434e-06
0.8889482045 	0.003459888459 	0.00163395687 	8.875108131e-09 	0.003778544098 	3.238659317e-08 	7.202955243e-06
0.8910181784 	0.003523206495 	0.001672159934 	1.013351546e-08 	0.00384835454 	3.500557648e-08 	7.336033348e-06
0.8930653087 	0.003588988967 	0.00171159769 	1.13502439e-08 	0.003920953019 	3.754199205e-08 	7.474426226e-06
0.8950898473 	0.003657195664 	0.001752225189 	1.251915931e-08 	0.003996287136 	3.997807467e-08 	7.618033992e-06
0.8970920436 	0.003727773657 	0.001793992507 	1.363510889e-08 	0.004074291033 	4.229725172e-08 	7.7667311e-06
0.8990721441 	0.003800657796 	0.001836845129 	1.469428642e-08 	0.004154885927 	4.448464242e-08 	7.920367368e-06
0.9010303927 	0.003875771391 	0.001880724431 	1.569462724e-08 	0.00423798082 	4.652759671e-08 	8.078769328e-06
0.9029670306 	0.003953027066 	0.001925568271 	1.663620977e-08 	0.004323473382 	4.841625739e-08 	8.241741913e-06
0.9048822962 	0.004032327761 	0.001971311695 	1.752163678e-08 	0.00441125101 	5.014412355e-08 	8.409070468e-06
0.9067764254 	0.004113567888 	0.002017887755 	1.835636747e-08 	0.004501192045 	5.17085903e-08 	8.580523079e-06
0.9086496514 	0.004196634611 	0.002065228409 	1.914897191e-08 	0.004593167143 	5.311143693e-08 	8.755853179e-06
0.910502205 	0.004281409224 	0.002113265512 	1.991128161e-08 	0.00468704078 	5.435923537e-08 	8.934802423e-06
0.9123343142 	0.004367768619 	0.002161931845 	2.065841425e-08 	0.004782672873 	5.546365098e-08 	9.117103771e-06
0.9141462048 	0.004455586809 	0.002211162175 	2.140865587e-08 	0.00487992048 	5.644161031e-08 	9.302484738e-06
0.9159380997 	0.004544736469 	0.002260894297 	2.218319052e-08 	0.004978639566 	5.731531338e-08 	9.490670754e-06
0.9177102197 	0.00463509048 	0.002311070033 	2.300567457e-08 	0.005078686783 	5.811207274e-08 	9.681388556e-06
0.9194627831 	0.00472652343 	0.002361636144 	2.390166002e-08 	0.005179921234 	5.886396666e-08 	9.874369557e-06
0.9211960055 	0.004818913039 	0.002412545128 	2.489787829e-08 	0.005282206182 	5.960730029e-08 	1.00693531e-05
0.9229101006 	0.004912141472 	0.002463755861 	2.602140225e-08 	0.005385410646 	6.038187458e-08 	1.026608949e-05
0.9246052793 	0.0050060965 	0.002515234062 	2.729870986e-08 	0.005489410864 	6.12300703e-08 	1.046434281e-05