0 	0.001423316392 	-5.839874687e-17 	-1.108461205e-20 	8.385937202e-17 	3.661379254e-18 	1.598592706e-19
0.0003200309159 	0.001423331241 	-4.381755622e-06 	1.438751502e-10 	0.001454786333 	-1.066785407e-07 	2.773227088e-06
0.0006400614409 	0.001423427844 	-8.915619719e-06 	3.745752754e-10 	0.001456311551 	-1.037597796e-07 	2.776134577e-06
0.0009600915746 	0.00142361233 	-1.326314904e-05 	5.456167892e-10 	0.001456652729 	-1.00682719e-07 	2.776784957e-06
0.001280121317 	0.001423864037 	-1.763133785e-05 	7.047922918e-10 	0.001457110833 	-9.7600175e-08 	2.77765823e-06
0.001600150666 	0.001424201663 	-2.200785978e-05 	8.525132962e-10 	0.001457529709 	-9.449593213e-08 	2.778456726e-06
0.001920179623 	0.001424619752 	-2.639006929e-05 	9.890171327e-10 	0.001458045172 	-9.138590565e-08 	2.77943934e-06
0.002240208187 	0.001425119172 	-3.077671978e-05 	1.114336884e-09 	0.001458653496 	-8.827040655e-08 	2.780598975e-06
0.002560236358 	0.001425700563 	-3.516726284e-05 	1.228467866e-09 	0.001459357638 	-8.515041351e-08 	2.781941266e-06
0.002880264135 	0.001426364814 	-3.956150687e-05 	1.331398761e-09 	0.001460158712 	-8.202667901e-08 	2.783468334e-06
0.003200291518 	0.001427112936 	-4.395945268e-05 	1.423119315e-09 	0.001461058515 	-7.890000364e-08 	2.78518361e-06
0.003520318506 	0.001427946097 	-4.836121335e-05 	1.503622571e-09 	0.001462058611 	-7.577114571e-08 	2.787090071e-06
0.003840345101 	0.001428865609 	-5.276697089e-05 	1.572905427e-09 	0.001463160554 	-7.264084678e-08 	2.78919068e-06
0.0041603713 	0.00142987291 	-5.717695178e-05 	1.630968733e-09 	0.001464365949 	-6.950983856e-08 	2.791488498e-06
0.004480397105 	0.001430969561 	-6.159141247e-05 	1.677817255e-09 	0.001465676483 	-6.637884666e-08 	2.79398674e-06
0.004800422516 	0.001432157235 	-6.601063047e-05 	1.713459611e-09 	0.001467093931 	-6.324859155e-08 	2.79668879e-06
0.005120447531 	0.001433437709 	-7.043489859e-05 	1.737908196e-09 	0.001468620158 	-6.011978901e-08 	2.799598204e-06
0.005440472151 	0.001434812855 	-7.486452125e-05 	1.751179132e-09 	0.001470257118 	-5.699315003e-08 	2.802718704e-06
0.005760496377 	0.001436284637 	-7.929981197e-05 	1.753292216e-09 	0.001472006846 	-5.386938051e-08 	2.806054171e-06
0.006080520207 	0.001437855095 	-8.374109162e-05 	1.744270877e-09 	0.001473871455 	-5.074918077e-08 	2.809608634e-06
0.006400543643 	0.001439526343 	-8.818868713e-05 	1.72414214e-09 	0.00147585313 	-4.763324493e-08 	2.813386257e-06
0.006720566684 	0.00144130056 	-9.264293035e-05 	1.692936578e-09 	0.001477954118 	-4.452226021e-08 	2.817391325e-06
0.007040589331 	0.001443179977 	-9.710415715e-05 	1.650688278e-09 	0.001480176721 	-4.14169062e-08 	2.821628224e-06
0.007360611583 	0.001445166867 	-0.0001015727065 	1.597434786e-09 	0.001482523287 	-3.831785404e-08 	2.826101431e-06
0.007680633441 	0.001447263537 	-0.0001060489192 	1.533217036e-09 	0.001484996202 	-3.522576559e-08 	2.830815494e-06
0.008000654905 	0.001449472301 	-0.0001105331368 	1.458079263e-09 	0.001487597886 	-3.214129265e-08 	2.835775027e-06
0.008320675975 	0.001451795458 	-0.0001150256979 	1.372068868e-09 	0.001490330784 	-2.906507615e-08 	2.840984691e-06
0.008640696652 	0.001454235228 	-0.0001195269331 	1.275236276e-09 	0.001493197331 	-2.599774518e-08 	2.846449125e-06
0.008960716935 	0.001456793644 	-0.0001240371285 	1.167634975e-09 	0.001496199858 	-2.293991446e-08 	2.852172777e-06
0.009280736826 	0.001459472238 	-0.0001285573114 	1.049317974e-09 	0.001499341186 	-1.989218931e-08 	2.858161021e-06
0.009600756325 	0.001462682414 	-0.0001337243776 	9.244977706e-10 	0.001503104207 	-1.685116389e-08 	2.865334384e-06
0.01009799211 	0.001467020693 	-0.0001401992458 	6.992341156e-10 	0.00150816438 	-1.216022468e-08 	2.87498048e-06
0.01060457247 	0.001472316065 	-0.0001474190249 	4.476523688e-10 	0.001514296827 	-7.407637797e-09 	2.886670629e-06
0.01112067299 	0.001478222884 	-0.0001548022479 	1.646268103e-10 	0.001521096294 	-2.596232962e-09 	2.899632303e-06
0.01140056368 	0.001481703548 	-0.0001588227217 	-4.412510849e-09 	0.001525083768 	-1.258442463e-06 	2.907233537e-06
0.01164647258 	0.001484762005 	-0.0001623552378 	1.521353388e-10 	0.001528587553 	-2.299975533e-09 	2.913912725e-06
0.01218215349 	0.001491955033 	-0.0001700832696 	5.042807441e-10 	0.001536794709 	-7.286002758e-09 	2.929557846e-06
0.0127279014 	0.00149982327 	-0.0001779918683 	8.921109756e-10 	0.001545741292 	-1.23347162e-08 	2.94661252e-06
0.01328390549 	0.001508388819 	-0.0001860867387 	1.317021361e-09 	0.001555451597 	-1.744758518e-08 	2.965123059e-06
0.01385035847 	0.001517673845 	-0.0001943737336 	1.780434441e-09 	0.001565949929 	-2.262622562e-08 	2.985135797e-06
0.0144274567 	0.001527700477 	-0.0002028588445 	2.283801039e-09 	0.001577260527 	-2.787241685e-08 	3.006696941e-06
0.01501540022 	0.00153849073 	-0.0002115481943 	2.828601382e-09 	0.001589407492 	-3.318811698e-08 	3.029852432e-06
0.0156143928 	0.001550066423 	-0.0002204480295 	3.416346334e-09 	0.001602414715 	-3.857547676e-08 	3.054647815e-06
0.01622464209 	0.001562449121 	-0.0002295647122 	4.04857869e-09 	0.001616305813 	-4.40368515e-08 	3.081128109e-06
0.01684635961 	0.001575660069 	-0.0002389047127 	4.726874517e-09 	0.001631104068 	-4.957481077e-08 	3.109337696e-06
0.01747976086 	0.001589720137 	-0.0002484746011 	5.452844467e-09 	0.001646832365 	-5.519214566e-08 	3.139320201e-06
0.01812506539 	0.001604649771 	-0.0002582810402 	6.228135042e-09 	0.001663513159 	-6.089187392e-08 	3.171118431e-06
0.01878249687 	0.001620468938 	-0.0002683307508 	7.054428035e-09 	0.001681168428 	-6.667724177e-08 	3.204774281e-06
0.01945228319 	0.001637197041 	-0.0002786314254 	7.933497893e-09 	0.001699819638 	-7.255172325e-08 	3.24032867e-06
0.02013465651 	0.001654865818 	-0.0002891964501 	8.867399076e-09 	0.001719501821 	-7.851925918e-08 	3.277848381e-06
0.02083178422 	0.001673517848 	-0.0003000448367 	9.86136068e-09 	0.00174026202 	-8.461031717e-08 	3.31742309e-06
0.02154340914 	0.001693171025 	-0.0003111843828 	1.091821824e-08 	0.001762120062 	-9.083276771e-08 	3.359090594e-06
0.02226840742 	0.001713822219 	-0.0003226095472 	1.203813337e-08 	0.001785072227 	-9.717692392e-08 	3.402843799e-06
0.02300703036 	0.001735478852 	-0.000334321075 	1.322316143e-08 	0.001809126724 	-1.036496035e-07 	3.448698356e-06
0.02375953399 	0.001758156846 	-0.0003463267202 	1.447586852e-08 	0.001834301478 	-1.102582152e-07 	3.496688434e-06
0.02452617913 	0.001781871539 	-0.00035863372 	1.57988914e-08 	0.001860613693 	-1.170105387e-07 	3.54684683e-06
0.0253072315 	0.001806637646 	-0.0003712493729 	1.719498264e-08 	0.001888079977 	-1.239147234e-07 	3.599205201e-06
0.02610296183 	0.001832469272 	-0.0003841810185 	1.866701369e-08 	0.001916716317 	-1.309792759e-07 	3.653794025e-06
0.02691364592 	0.001859379916 	-0.0003974360382 	2.021797936e-08 	0.001946538113 	-1.3821305e-07 	3.710642655e-06
0.02773956477 	0.001887382487 	-0.0004110218555 	2.185100206e-08 	0.001977560185 	-1.456252329e-07 	3.769779346e-06
0.02858100463 	0.001916489318 	-0.0004249459383 	2.356933617e-08 	0.0020097968 	-1.532253306e-07 	3.831231296e-06
0.02943825716 	0.001946712176 	-0.0004392158008 	2.53763721e-08 	0.002043261693 	-1.610231525e-07 	3.895024681e-06
0.03031161947 	0.001978062285 	-0.0004538390073 	2.727564019e-08 	0.002077968082 	-1.690287935e-07 	3.961184705e-06
0.03120139428 	0.002010550339 	-0.0004688231752 	2.927081495e-08 	0.002113928698 	-1.772526169e-07 	4.029735635e-06
0.03210788998 	0.002044186519 	-0.0004841759797 	3.136571904e-08 	0.002151155805 	-1.857052349e-07 	4.100700847e-06
0.03303142075 	0.002078980508 	-0.000499905158 	3.356432731e-08 	0.002189661219 	-1.943974899e-07 	4.174102868e-06
0.03397230668 	0.002114941504 	-0.0005160185142 	3.587077089e-08 	0.002229456329 	-2.033404342e-07 	4.249963408e-06
0.03493087388 	0.00215207823 	-0.0005325239239 	3.828934165e-08 	0.002270552114 	-2.125453098e-07 	4.328303396e-06
0.03590745458 	0.002190398939 	-0.0005494293384 	4.082449639e-08 	0.002312959153 	-2.220235277e-07 	4.409142999e-06
0.03690238724 	0.00222991141 	-0.0005667427904 	4.348086115e-08 	0.002356687644 	-2.317866486e-07 	4.492501657e-06
0.0379160167 	0.002270622928 	-0.0005844723887 	4.626323396e-08 	0.002401747419 	-2.418463627e-07 	4.578398111e-06
0.03894869426 	0.002312540214 	-0.0006026268323 	4.917665818e-08 	0.002448147913 	-2.522144654e-07 	4.666850349e-06
0.04000077783 	0.002355682336 	-0.0006212201605 	5.22269845e-08 	0.002495912357 	-2.62904183e-07 	4.757902655e-06
0.04107387931 	0.002400105157 	-0.0006402798376 	5.542439378e-08 	0.002545104412 	-2.739455439e-07 	4.851676385e-06
0.04217063918 	0.002445840095 	-0.0006598279527 	5.87808002e-08 	0.002595761291 	-2.853749501e-07 	4.948242474e-06
0.04328800965 	0.002492845357 	-0.0006798530479 	6.229322995e-08 	0.0026478387 	-2.971644783e-07 	5.047516492e-06
0.044426378 	0.002541090354 	-0.0007003460771 	6.596502465e-08 	0.002701304992 	-3.093221197e-07 	5.149438105e-06
0.0455861388 	0.002590578755 	-0.000721317626 	6.98026112e-08 	0.002756167532 	-3.218597418e-07 	5.254021353e-06
0.04676769399 	0.002641313723 	-0.000742776685 	7.381235697e-08 	0.002812432813 	-3.347890913e-07 	5.361278616e-06
0.04797145311 	0.002693297728 	-0.000764732434 	7.66766678e-08 	0.002870106837 	-3.422118555e-07 	5.471221335e-06
0.04919783336 	0.002746532486 	-0.0007871941844 	7.5954748e-08 	0.002929194952 	-3.336656731e-07 	5.583859706e-06
0.05044725979 	0.002801018866 	-0.0008101713725 	7.510921178e-08 	0.00298970184 	-3.248647539e-07 	5.699202651e-06
0.05172016545 	0.002856756753 	-0.0008336735363 	7.413426283e-08 	0.003051631413 	-3.157926228e-07 	5.817257631e-06
0.0530169915 	0.002913744851 	-0.0008577102656 	7.302386535e-08 	0.003114986697 	-3.06432708e-07 	5.93803041e-06
0.0543381874 	0.002971980328 	-0.0008822911051 	7.177173424e-08 	0.003179769641 	-2.967683812e-07 	6.061524708e-06
0.05568421106 	0.003031458156 	-0.0009074253989 	7.037132836e-08 	0.00324598084 	-2.867830059e-07 	6.187741656e-06
0.05705552898 	0.003092169838 	-0.0009331221152 	6.881584626e-08 	0.003313619017 	-2.764600021e-07 	6.31667882e-06
0.05845261643 	0.00315410095 	-0.0009593903097 	6.709826144e-08 	0.003382679867 	-2.657829153e-07 	6.448327993e-06
0.05987595761 	0.003217236959 	-0.000986245052 	6.521173104e-08 	0.003453165804 	-2.547365125e-07 	6.58269378e-06
0.06132696399 	0.003281601793 	-0.001013723925 	6.314638016e-08 	0.00352513981 	-2.432943072e-07 	6.719896239e-06
0.06281019925 	0.003347172119 	-0.001041905978 	6.087715596e-08 	0.003598633685 	-2.313752016e-07 	6.859995993e-06
0.06432130776 	0.003422342981 	-0.001074767955 	5.858662814e-08 	0.00368319125 	-2.193087152e-07 	7.021186213e-06
0.0666410827 	0.003515755699 	-0.001115808875 	5.435174393e-08 	0.003788362083 	-1.997536631e-07 	7.221671051e-06
0.06898673389 	0.003618317529 	-0.001160840219 	4.988261338e-08 	0.003903763965 	-1.797810338e-07 	7.441659113e-06
0.07135854997 	0.00372156476 	-0.001206519598 	4.499911977e-08 	0.004019999497 	-1.591201013e-07 	7.663236343e-06
0.0737568228 	0.003825445131 	-0.001252887209 	3.969166384e-08 	0.004137077093 	-1.377626791e-07 	7.88641878e-06
0.07618184749 	0.003929896511 	-0.001299929201 	3.395021975e-08 	0.004254966948 	-1.157042609e-07 	8.11114961e-06
0.07863392243 	0.004034849762 	-0.00134763799 	2.776491907e-08 	0.004373610595 	-9.294350394e-08 	8.337317376e-06
0.08111334936 	0.004140319009 	-0.001396041123 	2.112661436e-08 	0.004493037308 	-6.948395241e-08 	8.564977883e-06
0.0836286727 	0.004246330232 	-0.001445181341 	1.398587549e-08 	0.004613287146 	-4.520271205e-08 	8.794207498e-06
0.08617295058 	0.004352725479 	-0.001495016418 	6.369701638e-09 	0.0047341891 	-2.02346084e-08 	9.024680224e-06
0.08820882703 	0.004437090557 	-0.001534959813 	-5.000591081e-08 	0.004830234007 	-1.819438862e-07 	9.207768511e-06
0.08874561102 	0.004459335887 	-0.001545492755 	1.739409508e-09 	0.004855559543 	-5.42700377e-09 	9.256046021e-06
0.09134697064 	0.004566075751 	-0.001596604187 	1.038434482e-08 	0.004977311504 	-3.185293203e-08 	9.488139098e-06
0.0939773496 	0.00467286344 	-0.001648343266 	1.953212905e-08 	0.005099360711 	-5.890979641e-08 	9.720798809e-06
0.09663707163 	0.004779617429 	-0.001700703122 	2.919145302e-08 	0.005221623357 	-8.657778446e-08 	9.953865394e-06
0.09932646406 	0.004886269307 	-0.001753684295 	3.937096384e-08 	0.005344030534 	-1.148349921e-07 	1.01872075e-05
0.1020474201 	0.004992821838 	-0.001807318951 	5.008883678e-08 	0.005466593811 	-1.436830909e-07 	1.042084716e-05
0.1048062404 	0.005099246715 	-0.001861631305 	6.138166088e-08 	0.005589289099 	-1.7317034e-07 	1.065473848e-05
0.1075958387 	0.005205360692 	-0.001916562179 	7.321344548e-08 	0.005711912341 	-2.031439056e-07 	1.088849247e-05
0.1104165586 	0.005311003752 	-0.001972059234 	8.558713946e-08 	0.005834286732 	-2.335659918e-07 	1.112177207e-05
0.113268747 	0.005416082423 	-0.002028111889 	9.850693759e-08 	0.005956314106 	-2.643989981e-07 	1.135439016e-05
0.1161527553 	0.005520501095 	-0.002084704628 	1.119757197e-07 	0.006077892278 	-2.956024818e-07 	1.158615195e-05
0.1190689383 	0.005624168397 	-0.002141825851 	1.259955009e-07 	0.006198924012 	-3.271336999e-07 	1.181687207e-05
0.1220184539 	0.005727060034 	-0.002199495444 	1.405751693e-07 	0.006319388436 	-3.589634067e-07 	1.204651074e-05
0.1250089864 	0.005829137045 	-0.002257734852 	1.557508409e-07 	0.006439247901 	-3.911248548e-07 	1.22749962e-05
0.1280328844 	0.005930208724 	-0.002316474038 	1.714679412e-07 	0.006558284439 	-4.234405992e-07 	1.250191292e-05
0.1310905201 	0.006030102017 	-0.002375644561 	1.877143818e-07 	0.006676300083 	-4.558465541e-07 	1.272688354e-05
0.1341822699 	0.006128706989 	-0.00243522305 	2.04480934e-07 	0.006793172802 	-4.882813721e-07 	1.294967543e-05
0.1373085144 	0.006225911563 	-0.002495180826 	1.98754872e-07 	0.006908775838 	-4.666755523e-07 	1.317004694e-05
0.1404696386 	0.006321636561 	-0.00255550441 	1.89336295e-07 	0.007023019461 	-4.371112796e-07 	1.338782704e-05
0.1436708133 	0.006415829024 	-0.002616201701 	1.793186244e-07 	0.007135844484 	-4.070197096e-07 	1.360290289e-05
0.1469115851 	0.006508356864 	-0.002677230091 	1.687170677e-07 	0.007247094853 	-3.764896559e-07 	1.381497702e-05
0.1501885166 	0.006599033077 	-0.002738499444 	1.575594476e-07 	0.007356545247 	-3.456410796e-07 	1.402361989e-05
0.1535020113 	0.00668770856 	-0.002799945742 	1.45849099e-07 	0.00746401589 	-3.145268984e-07 	1.42284888e-05
0.1568524772 	0.00677425851 	-0.002861520655 	1.335942039e-07 	0.007569354567 	-2.832056529e-07 	1.44292936e-05
0.1602403266 	0.006858580527 	-0.002923183482 	1.208068596e-07 	0.007672432626 	-2.517403838e-07 	1.462578903e-05
0.1636700028 	0.00694059479 	-0.002984913026 	1.074754588e-07 	0.007773147484 	-2.201387709e-07 	1.481777954e-05
0.1671422645 	0.007020165211 	-0.00304664521 	9.362917361e-08 	0.007871324517 	-1.884967517e-07 	1.500493225e-05
0.1706532711 	0.007097105218 	-0.003108263336 	7.932364599e-08 	0.007966722257 	-1.569610427e-07 	1.518678686e-05
0.1742034549 	0.007171256456 	-0.00316967026 	6.458715149e-08 	0.008059132825 	-1.256107495e-07 	1.536294709e-05
0.1777932531 	0.007242481661 	-0.003230783802 	4.945425878e-08 	0.008148372309 	-9.453040765e-08 	1.553306234e-05
0.1814231076 	0.007310670471 	-0.003291533591 	3.396553179e-08 	0.008234285858 	-6.380961535e-08 	1.569683745e-05
0.1850999798 	0.00737571391 	-0.003351857778 	1.81290676e-08 	0.008316719754 	-3.347216485e-08 	1.585397936e-05
0.188819334 	0.007437432858 	-0.003411621848 	2.04762284e-09 	0.008395427083 	-3.715407812e-09 	1.600401741e-05
0.1892955931 	0.00744480507 	-0.003419099109 	5.129679667e-08 	0.008404890465 	-5.15099451e-07 	1.602205724e-05
0.1925801925 	0.007495643609 	-0.003470670265 	1.425155018e-08 	0.008470150737 	-2.537809534e-08 	1.614646146e-05
0.1963830182 	0.007550186379 	-0.003528873027 	3.065150313e-08 	0.008540664269 	-5.364268147e-08 	1.628087985e-05
0.2002282796 	0.007600915702 	-0.003586104075 	4.706579426e-08 	0.0086067558 	-8.094913038e-08 	1.640686868e-05
0.2041202567 	0.007647689359 	-0.003642245266 	6.342709737e-08 	0.008668217651 	-1.072014833e-07 	1.652403205e-05
0.2080594045 	0.007690330226 	-0.003697135284 	7.961686043e-08 	0.008724794245 	-1.322248154e-07 	1.663188276e-05
0.2120425111 	0.007728637673 	-0.003750567841 	9.549803973e-08 	0.008776195245 	-1.558283563e-07 	1.672986735e-05
0.2160700672 	0.007762421208 	-0.003802347665 	1.109494422e-07 	0.008822144594 	-1.778577929e-07 	1.681745958e-05
0.2201425686 	0.007791498812 	-0.003852286734 	1.258384834e-07 	0.008862376647 	-1.981485785e-07 	1.689415306e-05
0.2242640801 	0.007815681563 	-0.003900196165 	1.400352534e-07 	0.008896618489 	-2.165455959e-07 	1.695942753e-05
0.2284351157 	0.007834755165 	-0.003945845908 	1.533585347e-07 	0.008924562252 	-2.328272694e-07 	1.701269611e-05
0.2326526998 	0.007848491503 	-0.003988964935 	1.656118902e-07 	0.008945878774 	-2.467683859e-07 	1.705333132e-05
0.2369173517 	0.007856662909 	-0.004029285571 	1.766062888e-07 	0.008960242648 	-2.581658286e-07 	1.708071286e-05
0.2412295967 	0.007859035944 	-0.004066540015 	1.861352492e-07 	0.008967323179 	-2.668007985e-07 	1.709421032e-05
0.2455951021 	0.00785535851 	-0.004100447215 	1.93984199e-07 	0.008966769265 	-2.724506259e-07 	1.70931544e-05
0.2500108086 	0.007845365804 	-0.004130676753 	1.998745969e-07 	0.008958210706 	-2.748317582e-07 	1.707683941e-05
0.2544757956 	0.007828790391 	-0.004156874069 	2.035357549e-07 	0.008941274411 	-2.7369532e-07 	1.704455413e-05
0.2589906129 	0.00780535213 	-0.004178681791 	1.967897303e-07 	0.008915577728 	-2.584245558e-07 	1.699556911e-05
0.263557627 	0.007774748122 	-0.004195726114 	1.737989301e-07 	0.008880713391 	-2.224698733e-07 	1.692910799e-05
0.2681799304 	0.007736661931 	-0.004207602881 	1.51003201e-07 	0.0088362614 	-1.879179355e-07 	1.684437014e-05
0.2728538215 	0.007690788402 	-0.004213875714 	1.285772258e-07 	0.008781822942 	-1.552018316e-07 	1.674059531e-05
0.2775798758 	0.007636809569 	-0.004214100971 	1.06701318e-07 	0.008717115264 	-1.240873642e-07 	1.661724449e-05
0.2823588813 	0.007574386776 	-0.004207830617 	8.596142992e-08 	0.008641475529 	-9.492457631e-08 	1.647305413e-05
0.2871966566 	0.00750333064 	-0.004194823 	6.512354368e-08 	0.008553979488 	-6.484853237e-08 	1.630626236e-05
0.2920884254 	0.007425132465 	-0.004173741307 	4.569462075e-08 	0.008451225167 	-3.859936281e-08 	1.611038406e-05
0.2970347901 	0.007339104334 	-0.004144191267 	2.876390262e-08 	0.00833348918 	-1.919594392e-08 	1.588594655e-05
0.3020363598 	0.007242851534 	-0.004106532799 	1.335895935e-08 	0.008203970149 	-3.136145216e-09 	1.563904728e-05
0.307098782 	0.007135971104 	-0.004060001878 	1.755126162e-10 	0.008062765696 	9.589000133e-09 	1.536987235e-05
0.3122178274 	0.007018183239 	-0.004004286472 	-1.040762119e-08 	0.007910038411 	1.918303222e-08 	1.507873169e-05
0.3173940061 	0.006889305357 	-0.003939187333 	-1.804009998e-08 	0.007745760867 	2.54697744e-08 	1.476557303e-05
0.3226284087 	0.006749210514 	-0.003864675151 	-2.253348084e-08 	0.007570125127 	2.849692786e-08 	1.44307625e-05
0.3279254551 	0.006597873736 	-0.003780822257 	-2.377388814e-08 	0.007383464233 	2.839080021e-08 	1.407493496e-05
0.3332816223 	0.006435495421 	-0.00368786479 	-2.188582471e-08 	0.007186400021 	2.538357365e-08 	1.36992758e-05
0.3386975697 	0.006262511606 	-0.003586631628 	-1.731096706e-08 	0.006979767302 	1.981325899e-08 	1.33053764e-05
0.3441755749 	0.006079576564 	-0.003478269402 	-1.062306236e-08 	0.006764530389 	1.213772017e-08 	1.289507503e-05
0.3497173251 	0.005887611192 	-0.003364046527 	-2.554985988e-09 	0.00654181351 	2.946883429e-09 	1.247051475e-05
0.3514027616 	0.005827520352 	-0.00332840538 	2.261423594e-06 	0.006472956077 	-4.37995196e-06 	1.233925335e-05
0.3553209274 	0.005687815583 	-0.003245547787 	-6.031346088e-09 	0.006312877005 	7.07751806e-09 	1.203409814e-05
0.3609870718 	0.005481502567 	-0.003124385272 	-1.416172388e-08 	0.006078908201 	1.729566176e-08 	1.158808858e-05
0.3667195497 	0.005269988744 	-0.00300201418 	-2.11116686e-08 	0.005840936154 	2.72374059e-08 	1.113444771e-05
0.3725166888 	0.005054595854 	-0.002879625268 	-2.647158498e-08 	0.005599899985 	3.659213262e-08 	1.067496578e-05
0.3783785302 	0.004836428003 	-0.002757963625 	-3.023531928e-08 	0.005356475347 	4.53517627e-08 	1.021093077e-05
0.3843071225 	0.004616198639 	-0.002637253768 	-3.273449004e-08 	0.005110958564 	5.368960055e-08 	9.742907541e-06
0.3903039129 	0.004394316137 	-0.002517268844 	-3.453722402e-08 	0.00486342573 	6.181209447e-08 	9.271041161e-06
0.396367634 	0.004170967418 	-0.002397426137 	-3.634157556e-08 	0.004613866176 	6.997195412e-08 	8.795311289e-06
0.4024993303 	0.003946087215 	-0.002276874614 	-3.882164439e-08 	0.004362158899 	7.83746767e-08 	8.315487261e-06
0.4087021267 	0.003719476902 	-0.002154661109 	-4.24867822e-08 	0.004108186693 	8.707942157e-08 	7.831345649e-06
0.4149741531 	0.003491005305 	-0.002029929053 	-4.759423546e-08 	0.00385202006 	9.596366502e-08 	7.343020848e-06
0.4213161813 	0.003260623442 	-0.001901995204 	-5.411785086e-08 	0.00359388003 	1.04744558e-07 	6.850934205e-06
0.4277313904 	0.00302846156 	-0.001770447382 	-6.173400823e-08 	0.003334192614 	1.129647551e-07 	6.355897813e-06
0.4342183981 	0.002794995561 	-0.001635264844 	-6.985109195e-08 	0.003073728192 	1.200300277e-07 	5.859380232e-06
0.4407778066 	0.002561012023 	-0.001496806289 	-7.770203764e-08 	0.002813532959 	1.252919692e-07 	5.3633758e-06
0.4474123577 	0.002327618206 	-0.00135580924 	-8.44154927e-08 	0.002554914409 	1.281651259e-07 	4.870376965e-06
0.4541212809 	0.002096313441 	-0.001213411182 	-8.913715069e-08 	0.002299523503 	1.279835551e-07 	4.383530917e-06
0.4609050812 	0.001868906516 	-0.001071084963 	-9.122119466e-08 	0.00204931432 	1.24603619e-07 	3.906562672e-06
0.4677663327 	0.001647478402 	-0.0009306532756 	-8.984760275e-08 	0.001806331797 	1.181112062e-07 	3.443370448e-06
0.4747043718 	0.001434844205 	-0.0007939531045 	-8.677107584e-08 	0.001572119118 	1.13034832e-07 	2.996895987e-06
0.4817198836 	0.001234815117 	-0.0006620122209 	-8.101343618e-08 	0.001347076552 	1.049438853e-07 	2.567902308e-06
0.4888153226 	0.001049765468 	-0.0005369448734 	-7.138584788e-08 	0.001135237479 	8.92737935e-08 	2.164078158e-06
0.4959899515 	0.0008820674092 	-0.0004220372632 	-6.025902977e-08 	0.0009432767551 	7.168017952e-08 	1.798147665e-06
0.5031649243 	0.0007363150564 	-0.000320408955 	-4.819295441e-08 	0.0007766823134 	5.328789233e-08 	1.480572357e-06
0.5102617754 	0.0006161581286 	-0.0002345747161 	-3.644863157e-08 	0.0006398285962 	3.542926014e-08 	1.219691135e-06
0.5172803182 	0.0005229368668 	-0.0001653118106 	-2.604407045e-08 	0.0005343016184 	1.907366053e-08 	1.018527386e-06
0.5242218659 	0.0004557991817 	-0.0001118236774 	-1.769014883e-08 	0.0004590050583 	5.174472744e-09 	8.74991215e-07
0.5310874576 	0.0004116625797 	-7.193634723e-05 	-1.119101497e-08 	0.0004101089841 	-5.555617043e-09 	7.817817075e-07
0.5378772912 	0.0003857420947 	-4.269943049e-05 	-6.973372356e-09 	0.0003818267338 	-1.273540197e-08 	7.278678779e-07
0.5445926252 	0.0003727844449 	-2.121953302e-05 	-4.455340931e-09 	0.0003679713268 	-1.72491497e-08 	7.014556212e-07
0.5512342888 	0.0003682033336 	-5.16455579e-06 	-3.021587885e-09 	0.000363278114 	-2.000381441e-08 	6.925090532e-07
0.557802664 	0.0003685806237 	7.158506011e-06 	-2.244826722e-09 	0.0003639187331 	-2.167863357e-08 	6.937302512e-07
0.5642988774 	0.0003716293482 	1.693098467e-05 	-1.851307573e-09 	0.0003673902606 	-2.270095089e-08 	7.003479475e-07
0.5707237498 	0.0003759360543 	2.497943017e-05 	-1.669949029e-09 	0.0003721784523 	-2.331395418e-08 	7.094755717e-07
0.577077725 	0.0003806946242 	3.190259263e-05 	-1.591009032e-09 	0.0003774375494 	-2.364177567e-08 	7.195008724e-07
0.5833617689 	0.000385507994 	3.816140443e-05 	-1.540174821e-09 	0.0003827620755 	-2.373907112e-08 	7.29650899e-07
0.5895767917 	0.0003902603683 	4.413967223e-05 	-1.462378403e-09 	0.0003880446274 	-2.362084854e-08 	7.397209113e-07
0.5957232321 	0.0003950436075 	5.018762848e-05 	-1.307565293e-09 	0.0003933969467 	-2.326896904e-08 	7.499239195e-07
0.6018018976 	0.0004001240249 	5.665931462e-05 	-1.019015288e-09 	0.0003991161694 	-2.263259874e-08 	7.608263475e-07
0.6078138169 	0.0004059401235 	6.394969504e-05 	-5.212232716e-10 	0.0004056856492 	-2.162125371e-08 	7.733496018e-07
0.6137593944 	0.0004131270925 	7.253716893e-05 	2.972339205e-10 	0.0004138063663 	-2.008461305e-08 	7.888299456e-07
0.6196393617 	0.0004225663893 	8.303774867e-05 	1.60618687e-09 	0.0004244576439 	-1.778148269e-08 	8.091342412e-07
0.625454667 	0.000435458054 	9.627045319e-05 	3.669811771e-09 	0.0004389864284 	-1.433382818e-08 	8.368301425e-07
0.6312058611 	0.0004534120047 	0.0001133346065 	6.874360769e-09 	0.0004592234995 	-9.176005855e-09 	8.754076246e-07
0.6368935895 	0.0004785360964 	0.000135682934 	1.173386897e-08 	0.0004875989927 	-1.523037945e-09 	9.294992012e-07
0.6425186168 	0.0005134669985 	0.0001651480529 	1.885534233e-08 	0.0005271952321 	9.581501767e-09 	1.004980639e-06
0.6480817161 	0.0005612648546 	0.0002038611713 	2.880017731e-08 	0.0005816298251 	2.509959131e-08 	1.108748102e-06
0.653583425 	0.0006251056545 	0.0002539978801 	4.184465714e-08 	0.0006546854217 	4.558694915e-08 	1.248012374e-06
0.6590244207 	0.000707789878 	0.0003173467614 	5.768922882e-08 	0.0007496824853 	7.09967081e-08 	1.42910318e-06
0.6644054777 	0.0008112010619 	0.0003948351152 	7.535147159e-08 	0.0008687952286 	1.000917247e-07 	1.656165175e-06
0.6697271999 	0.0009359341511 	0.0004863423811 	9.401565078e-08 	0.001012496504 	1.310985838e-07 	1.930099746e-06
0.6749901949 	0.001082024085 	0.0005904333893 	1.105647612e-07 	0.001178194805 	1.569405941e-07 	2.24596676e-06
0.6801951104 	0.0012488584 	0.0007048703644 	1.25724588e-07 	0.00136143523 	1.807443598e-07 	2.59527394e-06
0.6853426864 	0.001433263979 	0.0008281679474 	1.403230292e-07 	0.001560577136 	2.06708804e-07 	2.974893762e-06
0.6904334652 	0.001631258279 	0.0009586005638 	1.518053327e-07 	0.001774591435 	2.29771147e-07 	3.382864498e-06
0.6954680649 	0.001839883619 	0.001093768932 	1.603541903e-07 	0.002000563065 	2.494090207e-07 	3.81362923e-06
0.7004471053 	0.002056402804 	0.001231724568 	1.660663076e-07 	0.002235658598 	2.653685105e-07 	4.261786658e-06
0.705371273 	0.002278427766 	0.001370785208 	1.692066614e-07 	0.002477341548 	2.780644353e-07 	4.722501533e-06
0.7102411011 	0.002503951574 	0.001509527599 	1.700448389e-07 	0.002723536623 	2.876675201e-07 	5.191817771e-06
0.715057188 	0.002731178286 	0.001646745545 	1.688216283e-07 	0.002972351243 	2.943262997e-07 	5.666127592e-06
0.7198201268 	0.002958436155 	0.001781400201 	1.65814209e-07 	0.00322201609 	2.983424307e-07 	6.142058181e-06
0.724530548 	0.003184374235 	0.00191263632 	1.612983247e-07 	0.003471092124 	3.00103053e-07 	6.616866328e-06
0.7291889935 	0.003407975996 	0.002039758755 	1.555365922e-07 	0.00371848936 	2.999329951e-07 	7.088474221e-06
0.7337960302 	0.003628456996 	0.002162192933 	1.488382285e-07 	0.003963356339 	2.98121601e-07 	7.555258741e-06
0.7383522256 	0.00384525406 	0.002279485775 	1.416127463e-07 	0.004205041187 	2.948911962e-07 	8.015977232e-06
0.7428581594 	0.004058011407 	0.002391307735 	1.343991163e-07 	0.004443188082 	2.90559984e-07 	8.469951405e-06
0.747314382 	0.004266576631 	0.002500417229 	1.357451231e-07 	0.004677395472 	2.854067104e-07 	8.916415785e-06
0.7517214274 	0.004471776038 	0.00260507375 	1.235070829e-07 	0.004907628575 	2.813465584e-07 	9.355304069e-06
0.7560798383 	0.00467561773 	0.002699885539 	1.08494862e-07 	0.005135280818 	2.794169446e-07 	9.789272517e-06
0.7603901521 	0.004879416496 	0.00279095629 	1.118607708e-07 	0.005362085444 	2.773571899e-07 	1.022162517e-05
0.7646529193 	0.005082682759 	0.002884700495 	1.135667777e-07 	0.005588392663 	2.732060239e-07 	1.065302963e-05
0.7688686441 	0.005283739299 	0.002979995181 	1.13087502e-07 	0.005812807969 	2.660684502e-07 	1.108082758e-05
0.7730378455 	0.005480406824 	0.003075431433 	1.102979179e-07 	0.006033009514 	2.55297576e-07 	1.150059292e-05
0.7771610371 	0.005670439584 	0.003169560648 	1.052306876e-07 	0.006246617923 	2.406114625e-07 	1.190778992e-05
0.78123873 	0.005851731943 	0.003261004376 	9.796453759e-08 	0.006451432983 	2.222613574e-07 	1.229822435e-05
0.7852714323 	0.006022298405 	0.003348476982 	8.856586744e-08 	0.006645557311 	2.008435605e-07 	1.266827927e-05
0.789259631 	0.006180149835 	0.003430773392 	7.708720185e-08 	0.00682746362 	1.771274286e-07 	1.301504326e-05
0.7932038172 	0.00632325427 	0.003506782572 	6.368739823e-08 	0.006996071194 	1.519730691e-07 	1.333645615e-05
0.7971044765 	0.006449786534 	0.003575586043 	4.887497413e-08 	0.007150825731 	1.266947531e-07 	1.363146131e-05
0.8009620913 	0.006558835014 	0.003636669145 	3.382195589e-08 	0.007291688258 	9.950666914e-08 	1.389998444e-05
0.8047771403 	0.006651648184 	0.003690221272 	2.035432103e-08 	0.007417475613 	7.015006624e-08 	1.41397701e-05
0.8085500876 	0.006733554868 	0.003729756065 	-4.581553015e-08 	0.007526119767 	2.660053181e-08 	1.434687605e-05
0.8122813978 	0.006811553486 	0.003743699403 	-8.084443179e-08 	0.007614672772 	-6.014414506e-09 	1.451568269e-05
0.8159715303 	0.006884159596 	0.003749228334 	-5.707203449e-08 	0.007689289179 	-1.764395205e-08 	1.46579223e-05
0.8196209396 	0.006948251992 	0.003759433218 	-5.833390176e-08 	0.007756913553 	-2.967077034e-08 	1.478683316e-05
0.8232300789 	0.007005242713 	0.003765897459 	-5.895415808e-08 	0.007816720765 	-3.910579051e-08 	1.490084232e-05
0.8267993892 	0.007055283777 	0.003769181779 	-6.012276603e-08 	0.007868981672 	-4.919255343e-08 	1.500046614e-05
0.8303293095 	0.00709860671 	0.003769521327 	-6.155569049e-08 	0.007913696559 	-5.860662794e-08 	1.508570514e-05
0.8338202746 	0.007135438252 	0.003767114164 	-6.299750667e-08 	0.007951272848 	-6.764113984e-08 	1.515733599e-05
0.8372727143 	0.007166019322 	0.00376214402 	-6.423399332e-08 	0.007981992388 	-7.618249402e-08 	1.521589597e-05