0.3362433877 	3.186958866e-07 	-1.072011601e-09 	2.941670927e-15 	3.173259637e-07 	-6.72391035e-13 	6.04911483e-10
0.3362433877 	3.186958866e-07 	-1.072011601e-09 	2.941670927e-15 	3.173259637e-07 	-6.72391035e-13 	6.04911483e-10
0.3363017955 	1.49632169e-06 	-1.800956376e-08 	-7.395043097e-10 	1.480750179e-06 	5.079446409e-08 	2.822721395e-09
0.3364356309 	4.200726324e-06 	-5.690405629e-08 	4.874760966e-13 	4.152546982e-06 	-2.70704026e-11 	7.915908688e-09
0.3366277463 	2.430406296e-05 	-7.756706331e-07 	1.777881367e-11 	2.371798997e-05 	-4.069026952e-10 	4.521308096e-08
0.3368198693 	8.305733502e-05 	-4.933725575e-06 	1.878634154e-10 	7.95409726e-05 	-2.245055869e-09 	1.516272011e-07
0.3370119991 	0.0002093534124 	-2.009480246e-05 	1.069773913e-09 	0.0001956775205 	-7.656010814e-09 	3.730157398e-07
0.3372041348 	0.0004348505731 	-6.086063887e-05 	4.121171835e-09 	0.0003952621638 	-1.956274845e-08 	7.534795416e-07
0.3373962757 	0.0007891922604 	-0.0001486268332 	1.200525194e-08 	0.0006969455884 	-4.113404775e-08 	1.328571997e-06
0.3375884208 	0.001292659889 	-0.0003068873146 	2.814032191e-08 	0.001111068375 	-7.489366831e-08 	2.118005127e-06
0.3377805694 	0.001948147267 	-0.0005524576223 	5.522821189e-08 	0.001635998847 	-1.21690335e-07 	3.118668504e-06
0.3379727207 	0.00273685342 	-0.0008869355229 	9.353770441e-08 	0.002256320421 	-1.800197351e-07 	4.301173833e-06
0.3381648737 	0.003621272456 	-0.001294246986 	1.403863739e-07 	0.002944764205 	-2.462519029e-07 	5.61353903e-06
0.3383570277 	0.004554593314 	-0.001746199546 	1.913613898e-07 	0.003667920767 	-3.157685473e-07 	6.992076428e-06
0.3385491818 	0.005491568367 	-0.002212041894 	2.422309972e-07 	0.004393228953 	-3.843096257e-07 	8.37471542e-06
0.3387413353 	0.00639604741 	-0.0026662522 	2.901667335e-07 	0.005094195369 	-4.487944406e-07 	9.710952231e-06
0.3389334873 	0.00724362429 	-0.00309180435 	3.33886194e-07 	0.005752507553 	-5.074483375e-07 	1.096587822e-05
0.3391256369 	0.008020658831 	-0.003479713376 	3.731841317e-07 	0.006357607749 	-5.595137168e-07 	1.211936737e-05
0.3393177834 	0.008721702674 	-0.003826919609 	4.083924919e-07 	0.006905010927 	-6.048682181e-07 	1.316286997e-05
0.3395099259 	0.009346784996 	-0.004134045438 	4.400114189e-07 	0.007394401066 	-6.437210722e-07 	1.40957836e-05
0.3397020636 	0.00989921414 	-0.00440367178 	4.685232758e-07 	0.007828027383 	-6.764238519e-07 	1.492239588e-05
0.3398941957 	0.01038402674 	-0.004639218139 	4.943252845e-07 	0.008209540801 	-7.033709068e-07 	1.564966649e-05
0.3400863214 	0.01080698749 	-0.004844294517 	5.177210204e-07 	0.008543225469 	-7.249544394e-07 	1.628576221e-05
0.3402784399 	0.01117398783 	-0.005022364205 	5.389344569e-07 	0.008833525462 	-7.415479338e-07 	1.683915468e-05
0.3404705503 	0.01149070921 	-0.005176591405 	5.581288951e-07 	0.009084771707 	-7.535023573e-07 	1.731809985e-05
0.3406626518 	0.01176245159 	-0.005309790378 	5.754236971e-07 	0.0093010368 	-7.611471362e-07 	1.773036123e-05
0.3408547436 	0.01199406082 	-0.005424425921 	5.909067269e-07 	0.009486068376 	-7.64792504e-07 	1.808308284e-05
0.3410468249 	0.01218991242 	-0.005522636491 	6.04642003e-07 	0.009643267719 	-7.647306352e-07 	1.838274848e-05
0.3412388949 	0.01235392587 	-0.00560626516 	6.166718905e-07 	0.009775697377 	-7.612301985e-07 	1.863519622e-05
0.3414309528 	0.01248959458 	-0.005676884434 	6.270108562e-07 	0.009886066625 	-7.545122445e-07 	1.884559068e-05
0.3416229978 	0.01260002193 	-0.005735860343 	6.356710176e-07 	0.00997687747 	-7.448700914e-07 	1.901870139e-05
0.341815029 	0.01268783518 	-0.005783715424 	6.425139538e-07 	0.01005038412 	-7.332312833e-07 	1.91588255e-05
0.3420070457 	0.01276427324 	-0.005829591093 	6.477104516e-07 	0.01011519732 	-7.127688654e-07 	1.928237747e-05
0.3423053646 	0.01282835085 	-0.005873356922 	6.71361049e-07 	0.01017132238 	-6.858646385e-07 	1.938936743e-05
0.3426092492 	0.01286367564 	-0.005901918712 	6.327150032e-07 	0.01020612763 	-6.462438594e-07 	1.94557159e-05
0.3429187992 	0.0128661559 	-0.00590993595 	5.267521727e-07 	0.01021576477 	-5.980259052e-07 	1.947408697e-05
0.343234116 	0.01283905702 	-0.005899704165 	4.607938153e-07 	0.01020228678 	-5.331692e-07 	1.944839419e-05
0.3435553022 	0.01278535947 	-0.005876329279 	4.213433509e-07 	0.01016736612 	-4.520887973e-07 	1.93818257e-05
0.3438824622 	0.01270687918 	-0.005841444381 	3.714552279e-07 	0.01011246455 	-3.555645495e-07 	1.927716805e-05
0.3442157019 	0.01260495524 	-0.005795674201 	3.094589555e-07 	0.01003869559 	-2.385719569e-07 	1.913654391e-05
0.3445551286 	0.01248065878 	-0.005739480129 	2.338926053e-07 	0.009946772032 	-9.762213482e-08 	1.896131205e-05
0.3449008511 	0.01233480387 	-0.005673199909 	1.432945389e-07 	0.009837185813 	6.975350492e-08 	1.875241026e-05
0.3452529799 	0.01216795412 	-0.005597057166 	3.588737342e-08 	0.009710234264 	2.667711349e-07 	1.851040533e-05
0.3456116268 	0.01198042692 	-0.00551116514 	-9.041304705e-08 	0.009566023695 	4.971539051e-07 	1.82354999e-05
0.3459769053 	0.01177229624 	-0.005415530661 	-2.380024531e-07 	0.009404479802 	7.650872218e-07 	1.792755234e-05
0.3463489302 	0.01154339921 	-0.005310061295 	-4.095062917e-07 	0.00922536821 	1.074969437e-06 	1.758611587e-05
0.346727818 	0.01129339951 	-0.005194601576 	-6.069430232e-07 	0.009028373239 	1.429785451e-06 	1.72105887e-05
0.3471136864 	0.01102209318 	-0.005069082832 	-8.288199003e-07 	0.008813377204 	1.826029962e-06 	1.68007465e-05
0.3475066549 	0.0107299431 	-0.00493377384 	-1.068717008e-06 	0.008580904163 	2.251507279e-06 	1.635758827e-05
0.347906844 	0.010418189 	-0.0047893247 	-1.25587931e-06 	0.008332185854 	2.562670463e-06 	1.588346205e-05
0.348314376 	0.01008820903 	-0.004636455115 	-1.406152124e-06 	0.008068593855 	2.800077868e-06 	1.538098244e-05
0.3487293745 	0.009740911074 	-0.004475655194 	-1.543599791e-06 	0.007791086613 	3.013769766e-06 	1.485197651e-05
0.3491519642 	0.009376698704 	-0.004307160578 	-1.670503389e-06 	0.007500143021 	3.208602272e-06 	1.429735715e-05
0.3495822713 	0.008995699073 	-0.004131059887 	-1.787138058e-06 	0.007195948196 	3.385702173e-06 	1.371747727e-05
0.3500204234 	0.008597968016 	-0.003947397591 	-1.892178484e-06 	0.006878586548 	3.543085993e-06 	1.311249777e-05
0.3504665492 	0.008183659668 	-0.003756263507 	-1.983008977e-06 	0.006548226821 	3.676276674e-06 	1.248274031e-05
0.3509207785 	0.00775281524 	-0.003557687407 	-2.056575576e-06 	0.006204883167 	3.779806429e-06 	1.182823188e-05
0.3513845503 	0.007302557111 	-0.003350377375 	-2.109617526e-06 	0.005846372184 	3.847717367e-06 	1.11448103e-05
0.3518696828 	0.006831032001 	-0.003133532155 	-2.13344829e-06 	0.005471387747 	3.864430202e-06 	1.042998574e-05
0.3523637086 	0.006343605271 	-0.00290966556 	-2.124500994e-06 	0.005084331276 	3.824178177e-06 	9.692148529e-06
0.3528667873 	0.005846621891 	-0.002681747343 	-2.07747737e-06 	0.004690476583 	3.718026768e-06 	8.941352017e-06
0.3533790813 	0.005344352314 	-0.002451783224 	-1.988980495e-06 	0.00429343755 	3.540380089e-06 	8.184485269e-06
0.3539007558 	0.004842277283 	-0.002222325658 	-1.857487752e-06 	0.003897810227 	3.288975065e-06 	7.430309633e-06
0.354431979 	0.004347135675 	-0.001996487388 	-1.684441471e-06 	0.003509193641 	2.966523821e-06 	6.68949841e-06
0.3549729218 	0.003866775854 	-0.001777872425 	-1.475498382e-06 	0.003134118883 	2.582680168e-06 	5.974501673e-06
0.3555237583 	0.00340966287 	-0.001570322755 	-1.242512917e-06 	0.002779529361 	2.163301534e-06 	5.298555492e-06
0.3560846653 	0.002983797795 	-0.001377274724 	-1.003319933e-06 	0.002450837751 	1.745381915e-06 	4.671977928e-06
0.3566558229 	0.002593947401 	-0.001198366719 	-8.512276312e-07 	0.002149846393 	1.365712589e-06 	4.098204744e-06
0.3572374142 	0.002235738238 	-0.001016539955 	-7.33540275e-07 	0.001872940651 	1.033355829e-06 	3.570345438e-06
0.3578296256 	0.001902758421 	-0.0008259547008 	-5.310346835e-07 	0.001614862148 	7.219561104e-07 	3.078376083e-06
0.3584326466 	0.001596968537 	-0.0006466154688 	-3.135145109e-07 	0.001376690851 	4.252368785e-07 	2.624355393e-06
0.35904667 	0.001323831238 	-0.0004870504732 	-1.263590695e-07 	0.001165087595 	1.678028777e-07 	2.220980776e-06
0.3595770964 	0.001125315064 	-0.0003705876576 	9.35631385e-07 	0.001013821904 	-1.222016206e-06 	1.932626326e-06
0.3596716997 	0.001089797353 	-0.0003497529069 	-2.195573818e-08 	0.0009867619488 	2.922877541e-08 	1.881042531e-06
0.3603070346 	0.0009010613762 	-0.0002390838163 	-1.378217708e-07 	0.0008463475411 	1.796493572e-07 	1.613373643e-06
0.3609539542 	0.0007585446796 	-0.0001551265744 	-1.975082929e-07 	0.0007439947756 	2.489791906e-07 	1.418260825e-06
0.3616126648 	0.000658966285 	-9.491558579e-05 	-2.083515409e-07 	0.0006767663666 	2.441412743e-07 	1.290104792e-06
0.3622833765 	0.0005952368464 	-5.346443158e-05 	-1.885732083e-07 	0.0006386743602 	1.879051886e-07 	1.217490841e-06
0.3629663027 	0.0005589423882 	-2.557502765e-05 	-1.562163872e-07 	0.0006227391593 	1.061710862e-07 	1.187113919e-06
0.3636616609 	0.00054236433 	-6.927649972e-06 	-1.22970427e-07 	0.0006226093308 	1.858645187e-08 	1.18686643e-06
0.364369672 	0.0005390474339 	5.632053641e-06 	-9.413328359e-08 	0.0006329179961 	-6.02936666e-08 	1.206517611e-06
0.3650905608 	0.0005440602753 	1.424183306e-05 	-7.098750838e-08 	0.0006495452954 	-1.239011102e-07 	1.238213865e-06
0.3658245562 	0.0005541298159 	2.031227023e-05 	-5.318164705e-08 	0.000669863077 	-1.741123854e-07 	1.276945204e-06
0.3665815357 	0.000567332736 	2.476595496e-05 	-3.992305467e-08 	0.0006924968852 	-2.155297639e-07 	1.320091533e-06
0.3673642267 	0.000582497823 	2.818768266e-05 	-3.030874318e-08 	0.0007166144792 	-2.518029118e-07 	1.36606637e-06
0.3681610793 	0.0005988146319 	3.09375442e-05 	-2.35462604e-08 	0.0007415731757 	-2.850604243e-07 	1.413644583e-06
0.3689723428 	0.0006157998316 	3.325663704e-05 	-1.894241381e-08 	0.0007670565448 	-3.170567687e-07 	1.462222967e-06
0.369798271 	0.0006332089117 	3.531324053e-05 	-1.586900257e-08 	0.0007929647586 	-3.488721941e-07 	1.511611223e-06
0.3706391218 	0.0006509022643 	3.721425366e-05 	-1.384180925e-08 	0.0008192532293 	-3.81140483e-07 	1.561724355e-06
0.3714951578 	0.0006687959659 	3.90275326e-05 	-1.250042346e-08 	0.000845915452 	-4.142414485e-07 	1.612549962e-06
0.372366646 	0.0006868320778 	4.07959817e-05 	-1.116830524e-08 	0.0008729731513 	-4.326776773e-07 	1.664129457e-06
0.3732538578 	0.0007049577592 	4.254658124e-05 	-9.138085994e-09 	0.0009004746803 	-4.071436607e-07 	1.716555015e-06
0.3741570696 	0.00072310603 	4.429473965e-05 	-7.45696139e-09 	0.0009285168951 	-3.806924999e-07 	1.77001127e-06
0.3750765622 	0.0007434872953 	4.633677882e-05 	-5.925946938e-09 	0.0009609074345 	-3.538086933e-07 	1.83175664e-06
0.376486773 	0.0007682344667 	4.890727268e-05 	-4.214157746e-09 	0.001000522804 	-3.097045651e-07 	1.907274545e-06
0.3779110756 	0.0007949326954 	5.178205743e-05 	-2.786557946e-09 	0.001043041899 	-2.640192831e-07 	1.988327757e-06
0.3793496129 	0.0008213071385 	5.482178746e-05 	-1.675618446e-09 	0.001085091156 	-2.167108392e-07 	2.068485328e-06
0.3808025294 	0.0008475825893 	5.803493343e-05 	-7.725028141e-10 	0.001127288757 	-1.677676332e-07 	2.148925685e-06
0.3823059562 	0.0008739337338 	6.144516404e-05 	-1.699721454e-10 	0.001170084344 	-1.160359875e-07 	2.230505968e-06
0.3838280091 	0.0009002031579 	6.506989692e-05 	6.921925549e-11 	0.001213164845 	-6.276295233e-08 	2.312629377e-06
0.3853651093 	0.0009262298691 	6.88861021e-05 	2.607540232e-11 	0.001256253719 	-7.768438311e-09 	2.394768745e-06
0.3855803392 	0.0009298016315 	6.944350885e-05 	2.263102409e-08 	0.001262239298 	2.38475024e-07 	2.406178923e-06
0.3869151756 	0.0009519985597 	7.290793524e-05 	1.652179785e-10 	0.001299441552 	-4.806230726e-08 	2.477096759e-06
0.3884802461 	0.0009775393915 	7.715540825e-05 	5.081768392e-10 	0.001342761672 	-1.054051326e-07 	2.559676948e-06
0.3900608389 	0.001002892991 	8.162381387e-05 	9.513752678e-10 	0.001386163994 	-1.641969548e-07 	2.642413837e-06
0.3916571133 	0.001028095901 	8.629545145e-05 	1.496726475e-09 	0.00142966293 	-2.241626742e-07 	2.7253349e-06
0.3932692312 	0.001053193834 	9.115153423e-05 	2.270634557e-09 	0.001473256362 	-2.851928756e-07 	2.808436096e-06
0.3948973565 	0.001078303418 	9.618807798e-05 	3.249206948e-09 	0.001517247065 	-3.479802562e-07 	2.892294603e-06
0.3965690669 	0.001103579102 	0.000101437121 	3.827728473e-09 	0.001562058895 	-4.158846758e-07 	2.977718406e-06
0.3982718105 	0.001128999597 	0.0001069003395 	3.846225559e-09 	0.00160749846 	-4.880009865e-07 	3.064338846e-06
0.3999912797 	0.001154426794 	0.0001125285812 	3.927371939e-09 	0.001653241854 	-5.477754649e-07 	3.151538468e-06
0.4017276483 	0.001179831132 	0.0001182777567 	3.776816541e-09 	0.001699189653 	-4.869542475e-07 	3.239127745e-06
0.4034810924 	0.001205239335 	0.0001241104567 	4.434976995e-09 	0.001745270514 	-4.224234506e-07 	3.326970672e-06
0.4052517911 	0.001230653729 	0.0001299956642 	5.275334095e-09 	0.001791475793 	-3.570259692e-07 	3.415050777e-06
0.4070399258 	0.001256070722 	0.0001359080971 	5.494102924e-09 	0.001837760079 	-2.930499777e-07 	3.50328149e-06
0.4088456808 	0.001281533632 	0.000141835674 	5.073292272e-09 	0.001884256623 	-2.297655345e-07 	3.591916826e-06
0.4106892378 	0.001307133751 	0.0001477902644 	4.137767562e-09 	0.001931361267 	-1.65139897e-07 	3.681711368e-06
0.4125745154 	0.001332795738 	0.0001537941999 	2.731299439e-09 	0.001979115003 	-9.839511324e-08 	3.772743262e-06
0.4144781776 	0.001358254396 	0.0001598152662 	9.04655697e-10 	0.0020272895 	-2.987765979e-08 	3.864577244e-06
0.4152956098 	0.001368887003 	0.0001623702025 	9.688312644e-08 	0.002047986523 	7.590224082e-07 	3.904031522e-06
0.4163989494 	0.001383258389 	0.0001658230579 	1.153942492e-09 	0.00207595951 	-4.071187681e-08 	3.957355808e-06
0.4183374299 	0.001407592422 	0.0001718451714 	3.479180159e-09 	0.002125407908 	-1.144728488e-07 	4.0516182e-06
0.4202949142 	0.001430992618 	0.0001779228384 	6.165347837e-09 	0.00217599325 	-1.933663827e-07 	4.148047921e-06
0.4222716086 	0.001453143796 	0.000184137881 	9.115101512e-09 	0.0022281028 	-2.795332442e-07 	4.247383206e-06
0.4242727255 	0.001473768328 	0.0001905657771 	1.216477141e-08 	0.002282609115 	-3.76035925e-07 	4.351287392e-06
0.4263330869 	0.001492473891 	0.0001973700033 	1.51372047e-08 	0.002340329178 	-4.879904883e-07 	4.461317875e-06
0.4284134725 	0.001508638641 	0.0002046689025 	1.770354349e-08 	0.002401421935 	-6.172480498e-07 	4.577777649e-06
0.4305141024 	0.001521643333 	0.0002125075448 	1.960388811e-08 	0.002466318827 	-7.676849873e-07 	4.701489161e-06
0.4326352002 	0.001530944552 	0.0002210129005 	1.919642872e-08 	0.002535715924 	-8.773583132e-07 	4.833779317e-06
0.4347769937 	0.001536061521 	0.0002303176362 	1.500986221e-08 	0.002610061118 	-8.344716036e-07 	4.975501919e-06
0.4369397142 	0.001536629141 	0.0002405559056 	1.104613961e-08 	0.002689766947 	-7.7820719e-07 	5.127443383e-06
0.4391442892 	0.001532384173 	0.0002518036553 	9.428347241e-09 	0.002775679981 	-7.108380104e-07 	5.291217503e-06
0.4413946634 	0.001523269553 	0.0002640714285 	5.748614276e-09 	0.002867635604 	-6.095513069e-07 	5.466510479e-06
0.443666834 	0.001509035387 	0.0002789080827 	-1.948317057e-08 	0.002963405312 	-4.863919798e-07 	5.64907416e-06
0.4459610492 	0.001490750662 	0.0002997552166 	-2.411557761e-08 	0.003056089049 	-2.520277141e-07 	5.825755123e-06
0.448277562 	0.001479482152 	0.0003232712245 	-8.693768118e-09 	0.003117352481 	-5.744354101e-08 	5.942540252e-06
0.4505459865 	0.00147931717 	0.0003446785186 	2.702982929e-08 	0.003139965606 	1.104478875e-08 	5.985647153e-06
0.4506165593 	0.001479306716 	0.0003453466046 	-2.220441432e-10 	0.00314068494 	-1.113877344e-09 	5.987018404e-06
0.4529933429 	0.0014812172 	0.0003661046561 	-5.050162013e-09 	0.003153500273 	-3.478095344e-08 	6.01144799e-06
0.4554208951 	0.001483322501 	0.0003828677389 	7.875585781e-09 	0.003164576371 	-6.831565053e-08 	6.032562112e-06
0.4578719627 	0.001485547763 	0.0003953847398 	3.369165171e-08 	0.003174880317 	-1.03564751e-07 	6.052204296e-06
0.4603468233 	0.001487574765 	0.0004050431708 	6.22891846e-08 	0.003184188256 	-1.340972171e-07 	6.069947815e-06
0.4628457593 	0.001489191871 	0.0004129461118 	9.212772945e-08 	0.003192229772 	-1.611207184e-07 	6.08527718e-06
0.4653690586 	0.001490373587 	0.0004196363212 	1.217226595e-07 	0.003199147088 	-1.85300956e-07 	6.098463506e-06
0.4679520536 	0.001491147406 	0.00042555421 	1.507019409e-07 	0.00320509717 	-2.074702972e-07 	6.109806016e-06
0.470569172 	0.001491521931 	0.0004310253128 	1.787776521e-07 	0.003210103746 	-2.280038639e-07 	6.119349942e-06
0.4732116477 	0.001491563266 	0.0004361085013 	1.726027143e-07 	0.003214345034 	-2.073938357e-07 	6.127435016e-06
0.4758797916 	0.001491326516 	0.0004409401122 	1.530527441e-07 	0.003217940065 	-1.754538182e-07 	6.134288144e-06
0.478573921 	0.001490873682 	0.0004455661686 	1.322558219e-07 	0.003221056123 	-1.460514448e-07 	6.140228216e-06
0.4813208668 	0.001490266975 	0.0004500513299 	1.104357279e-07 	0.003223844565 	-1.183476728e-07 	6.145543762e-06
0.4841109496 	0.001489531317 	0.0004544966277 	8.804243314e-08 	0.003226329675 	-9.211392108e-08 	6.150281072e-06
0.4869280722 	0.001488707378 	0.000458857626 	6.544738959e-08 	0.003228607793 	-6.718208991e-08 	6.154623798e-06
0.4897725782 	0.001487816435 	0.0004631688874 	4.279285158e-08 	0.003230713851 	-4.326997043e-08 	6.158638531e-06
0.4926448178 	0.001486890087 	0.0004674069207 	2.017484912e-08 	0.003232750777 	-2.015794009e-08 	6.162521477e-06
0.4952388018 	0.001486064803 	0.0004711354425 	4.559897625e-09 	0.003234542351 	-8.38595768e-08 	6.165936716e-06
0.4955778201 	0.001485956337 	0.0004716217625 	2.588728361e-09 	0.003234774777 	-2.610117881e-09 	6.166379784e-06
0.4985460505 	0.001485005289 	0.000475872053 	2.481073504e-08 	0.003236728199 	-2.480820684e-08 	6.17010355e-06
0.50154319 	0.001484055488 	0.0004801026058 	4.677248167e-08 	0.003238668094 	-4.646572095e-08 	6.173801529e-06
0.5045696182 	0.001483114785 	0.0004843233326 	6.844291845e-08 	0.003240610865 	-6.765989003e-08 	6.17750499e-06
0.5076367908 	0.001482200924 	0.0004885255679 	8.989131151e-08 	0.003242614979 	-8.853206771e-08 	6.181325388e-06
0.5107623923 	0.001481317001 	0.0004927745453 	1.112132201e-07 	0.003244657702 	-1.092226404e-07 	6.185219387e-06
0.5139184742 	0.001480455636 	0.0004970652105 	1.32121548e-07 	0.003246711746 	-1.295198901e-07 	6.189134965e-06
0.5171054487 	0.001479612185 	0.0005013723439 	1.526103133e-07 	0.003248773766 	-1.494560431e-07 	6.193065748e-06
0.520325042 	0.001478803799 	0.0005056618295 	1.726705195e-07 	0.003250910343 	-1.690600126e-07 	6.197138657e-06
0.523612288 	0.00147804191 	0.0005099948172 	1.925475333e-07 	0.003253113948 	-1.885568782e-07 	6.201339342e-06
0.5269316876 	0.001477305553 	0.0005144070979 	1.757408099e-07 	0.00325530783 	-1.722617321e-07 	6.205521489e-06
0.5302836887 	0.001476586633 	0.0005188413275 	1.558091529e-07 	0.003257500159 	-1.529582163e-07 	6.209700678e-06
0.533669638 	0.001475903849 	0.0005232684737 	1.36281968e-07 	0.003259751853 	-1.340712278e-07 	6.213993033e-06
0.5371230183 	0.001475268682 	0.0005277460783 	1.169497409e-07 	0.003262049438 	-1.153343419e-07 	6.218372868e-06
0.5406103399 	0.001474653149 	0.0005323181914 	9.811244015e-08 	0.00326429846 	-9.705938964e-08 	6.22266013e-06
0.5441320894 	0.001474053727 	0.0005369061152 	7.977681114e-08 	0.003266535007 	-7.920530857e-08 	6.226923609e-06
0.5476960233 	0.001473491202 	0.0005415084622 	6.188977564e-08 	0.003268797412 	-6.169819735e-08 	6.231236383e-06
0.5513203417 	0.001472967059 	0.0005461792618 	4.437895608e-08 	0.003271047038 	-4.444003822e-08 	6.235524794e-06
0.5549805169 	0.001472453164 	0.0005509385622 	2.744266602e-08 	0.003273207087 	-2.762014903e-08 	6.239642449e-06
0.5586770766 	0.001471956458 	0.00055570741 	1.107934758e-08 	0.003275339473 	-1.121280095e-08 	6.243707369e-06
0.5612874305 	0.001471638045 	0.0005590556109 	9.422372666e-09 	0.003276809027 	-2.574969785e-07 	6.246508747e-06
0.5624282509 	0.001471497494 	0.0005605156982 	4.696021821e-09 	0.003277448161 	-4.862262362e-09 	6.247727115e-06
0.5662275028 	0.001471056539 	0.0005654133303 	1.964432932e-08 	0.003279450562 	-2.04698448e-08 	6.251544248e-06
0.5700647233 	0.001470620895 	0.0005703659577 	3.396308746e-08 	0.003281344588 	-3.563369448e-08 	6.255154787e-06
0.5739448569 	0.001470210087 	0.0005753439423 	4.768177214e-08 	0.003283176362 	-5.039337354e-08 	6.258646658e-06
0.5778866303 	0.001469831522 	0.000580399767 	6.085434373e-08 	0.003284905364 	-6.480944456e-08 	6.261942617e-06
0.5818679746 	0.001469455532 	0.0005855567445 	7.33401382e-08 	0.003286450344 	-7.875030361e-08 	6.264887778e-06
0.5858894948 	0.001469091739 	0.0005907361503 	8.515306061e-08 	0.00328788211 	-9.222600709e-08 	6.267617121e-06
0.5899727857 	0.001468764119 	0.0005959834525 	9.63714135e-08 	0.003289183497 	-1.053163059e-07 	6.270097927e-06
0.5941006535 	0.001468442478 	0.0006013487585 	1.068705402e-07 	0.003290250224 	-1.17904568e-07 	6.272131404e-06
0.5982704142 	0.001468128666 	0.0006067509063 	1.166585191e-07 	0.003291145003 	-1.299818811e-07 	6.273837102e-06
0.6024979472 	0.001467850513 	0.0006122205718 	1.257902787e-07 	0.003291861495 	-1.416000807e-07 	6.275202935e-06
0.6067750414 	0.001467583873 	0.0006178114297 	1.34183733e-07 	0.003292299875 	-1.526764082e-07 	6.276038609e-06
0.6110958307 	0.001467327737 	0.000623455505 	1.418418095e-07 	0.003292508728 	-1.631894135e-07 	6.276436741e-06
0.6154737333 	0.001467109836 	0.0006291745291 	1.488097776e-07 	0.003292483918 	-1.73172752e-07 	6.276389446e-06
0.6199031021 	0.001466910441 	0.0006350196615 	1.550234627e-07 	0.003292130748 	-1.825524604e-07 	6.275716207e-06
0.6243780584 	0.001466730248 	0.0006409288977 	1.488251199e-07 	0.003291496558 	-1.773964278e-07 	6.274507264e-06
0.6289117321 	0.001466597049 	0.0006469283976 	1.394170016e-07 	0.003290567743 	-1.682598573e-07 	6.272736684e-06
0.6334968048 	0.001466493274 	0.0006530604266 	1.305875286e-07 	0.00328925794 	-1.596282005e-07 	6.270239836e-06
0.6381294517 	0.001466425886 	0.0006592662072 	1.223372675e-07 	0.003287621439 	-1.514960173e-07 	6.26712021e-06
0.6428238051 	0.001466420242 	0.0006655884174 	1.146159433e-07 	0.003285619691 	-1.438110768e-07 	6.263304322e-06
0.6475684204 	0.001466464063 	0.000672044753 	1.074657275e-07 	0.003283198053 	-1.366483649e-07 	6.258688006e-06
0.6523649443 	0.001466576593 	0.0006785961658 	1.008583174e-07 	0.003280403902 	-1.299715168e-07 	6.253361579e-06
0.6572223575 	0.001466772172 	0.0006852797126 	9.477859334e-08 	0.00327717981 	-1.237669414e-07 	6.247215562e-06
0.6620766355 	0.001467042004 	0.0006920191912 	8.929387602e-08 	0.003273560573 	-1.181330107e-07 	6.240316291e-06
0.6668799146 	0.001467411629 	0.0006987515801 	8.438989843e-08 	0.003269616275 	-1.130615103e-07 	6.232797363e-06
0.6716326517 	0.001467888434 	0.0007055005617 	8.004408467e-08 	0.003265311058 	-1.085333999e-07 	6.224590423e-06
0.6763304893 	0.001468479168 	0.0007122322479 	7.621343449e-08 	0.003260708681 	-1.045069823e-07 	6.215817013e-06
0.680980885 	0.001469210385 	0.0007189740946 	7.283450339e-08 	0.003255827086 	-1.009226758e-07 	6.206511336e-06
0.6855796658 	0.001470076974 	0.0007257488162 	6.989108215e-08 	0.003250645909 	-9.777482544e-08 	6.196634573e-06
0.690125814 	0.001471093445 	0.0007325238109 	6.733832563e-08 	0.003245242594 	-9.500404599e-08 	6.186334353e-06
0.6946265976 	0.001472288946 	0.0007393366468 	6.513243237e-08 	0.003239612152 	-9.255821807e-08 	6.175601165e-06
0.6990762349 	0.001473660822 	0.0007461965641 	6.325905742e-08 	0.003233758946 	-9.042272748e-08 	6.164443328e-06
0.7034757701 	0.001475231706 	0.0007530841205 	6.167872036e-08 	0.003227756134 	-8.853642915e-08 	6.1530003e-06
0.7078302603 	0.001477028341 	0.000760038394 	6.036389511e-08 	0.003221595525 	-8.685988853e-08 	6.141256466e-06
0.7121354456 	0.001479052189 	0.0007670607485 	5.930151031e-08 	0.00321530189 	-8.536730178e-08 	6.129259049e-06
0.7163924516 	0.001481331153 	0.0007741420306 	5.84611798e-08 	0.003208944212 	-8.40021993e-08 	6.117139547e-06
0.7206051784 	0.001483892663 	0.0007813183885 	5.782493323e-08 	0.003202521116 	-8.272809336e-08 	6.104895342e-06
0.7247704865 	0.00148674174 	0.0007885923803 	5.738415257e-08 	0.003196063977 	-8.151548848e-08 	6.09258624e-06
0.7288890892 	0.001489907167 	0.0007959567183 	5.711778529e-08 	0.003189646045 	-8.031278034e-08 	6.080351877e-06
0.7329646301 	0.001493421409 	0.0008034442782 	5.701270431e-08 	0.003183278418 	-7.908130631e-08 	6.068213411e-06
0.7369945217 	0.001497292377 	0.0008110646612 	5.706639773e-08 	0.003176988312 	-7.779321481e-08 	6.056222721e-06
0.7409793914 	0.001501545853 	0.000818807385 	5.726668732e-08 	0.00317085829 	-7.640185349e-08 	6.044537196e-06
0.7449217639 	0.001506220521 	0.0008267009571 	5.760329648e-08 	0.003164915776 	-7.486719058e-08 	6.033209111e-06
0.7488205855 	0.001511328281 	0.0008347636299 	5.807942306e-08 	0.003159180828 	-7.316384375e-08 	6.022276708e-06
0.7526760103 	0.001516889676 	0.0008429830329 	5.869098218e-08 	0.003153741442 	-7.125216421e-08 	6.011907726e-06
0.7564895149 	0.001522946719 	0.0008513809511 	5.943058468e-08 	0.003148643963 	-6.909393114e-08 	6.002190515e-06
0.7602614981 	0.001529518403 	0.0008599814562 	6.03049315e-08 	0.003143908115 	-6.666553517e-08 	5.993162672e-06
0.763991624 	0.001536620371 	0.0008687781006 	6.131667628e-08 	0.003139611963 	-6.39364829e-08 	5.984973012e-06
0.767680541 	0.001544290486 	0.0008777817033 	6.246343924e-08 	0.003135823532 	-6.087537587e-08 	5.977751209e-06
0.7713298015 	0.001552558921 	0.0008870175539 	6.37504781e-08 	0.003132574279 	-5.745819213e-08 	5.97155723e-06
0.7749386674 	0.001561440823 	0.0008964940292 	6.518606456e-08 	0.003129915716 	-5.366498328e-08 	5.96648927e-06
0.7785076447 	0.001570962312 	0.0009062106299 	6.677382985e-08 	0.003127932244 	-4.947371604e-08 	5.962708221e-06
0.7820377123 	0.001581162056 	0.000916188977 	6.85147307e-08 	0.003126673446 	-4.486352964e-08 	5.960308602e-06
0.7855292473 	0.001592062176 	0.0009264498005 	7.041948021e-08 	0.003126173497 	-3.982083825e-08 	5.959355559e-06
0.7889822604 	0.001603680075 	0.0009369960787 	7.24942378e-08 	0.003126502397 	-3.433233869e-08 	5.959982534e-06
0.7923972207 	0.001616048582 	0.0009478383108 	7.474117559e-08 	0.003127730246 	-2.838652124e-08 	5.962323156e-06
0.7957751119 	0.001629201373 	0.0009590000749 	7.716287276e-08 	0.003129895915 	-2.197231611e-08 	5.966451523e-06
0.799115918 	0.001643158228 	0.0009704980924 	7.976746515e-08 	0.003133038388 	-1.508327467e-08 	5.972441951e-06
0.8024199552 	0.001657939095 	0.0009823380846 	8.255697281e-08 	0.003137223783 	-7.715691739e-09 	5.980420477e-06
0.8056876609 	0.001673576658 	0.0009945352157 	8.552935575e-08 	0.003142507591 	1.322767596e-10 	5.990492883e-06
0.808919881 	0.001690100457 	0.001007112081 	8.868429951e-08 	0.0031489199 	8.462849173e-09 	6.002716526e-06
0.8121165911 	0.001707528269 	0.001020083063 	8.897324273e-08 	0.003156496253 	1.670123207e-08 	6.017159161e-06
0.815278181 	0.001725878816 	0.001033456066 	8.803496329e-08 	0.003165288735 	2.447014901e-08 	6.033920076e-06
0.8184050606 	0.001745179214 	0.001047245075 	8.711149995e-08 	0.003175339789 	3.186675407e-08 	6.053080179e-06
0.8214979011 	0.001765453718 	0.001061468949 	8.61848976e-08 	0.00318667015 	3.887104769e-08 	6.074678994e-06
0.824556818 	0.001786715443 	0.001076139552 	8.52367586e-08 	0.003199303133 	4.546036991e-08 	6.098760972e-06
0.8275821714 	0.001808975956 	0.00109126299 	8.425598316e-08 	0.003213273028 	5.161390801e-08 	6.125391475e-06
0.8305743473 	0.001832251697 	0.001106847669 	8.323085194e-08 	0.003228608753 	5.731363217e-08 	6.154625629e-06
0.8335338579 	0.001856557843 	0.001122905629 	8.214707781e-08 	0.003245319731 	6.254362602e-08 	6.186481397e-06
0.8364609812 	0.001881899068 	0.001139444515 	8.098688979e-08 	0.003263409996 	6.728469201e-08 	6.220966471e-06
0.8393560156 	0.00190827432 	0.001156464737 	7.974041975e-08 	0.003282893541 	7.152146897e-08 	6.258107522e-06
0.8422193257 	0.001935684618 	0.001173966652 	7.839863511e-08 	0.003303780184 	7.524140124e-08 	6.297923268e-06
0.8450513006 	0.001964129927 	0.001191952084 	7.695259169e-08 	0.003326065163 	7.843528991e-08 	6.340404632e-06
0.8478523485 	0.001993602598 	0.001210421225 	7.538901914e-08 	0.003349730649 	8.109087451e-08 	6.385517627e-06
0.8506227078 	0.002024085478 	0.001229366678 	7.369970698e-08 	0.003374764695 	8.319949238e-08 	6.433239476e-06
0.8533627237 	0.002055559733 	0.001248779022 	7.188011811e-08 	0.003401150461 	8.475787261e-08 	6.48353808e-06
0.8560727368 	0.00208800373 	0.00126864715 	6.992695494e-08 	0.003428864237 	8.576666362e-08 	6.53636824e-06
0.8587531258 	0.002121392574 	0.001288959253 	6.783715881e-08 	0.003457868943 	8.622902694e-08 	6.59165927e-06
0.861404197 	0.00215569166 	0.001309699903 	6.560513132e-08 	0.003488116919 	8.614619415e-08 	6.649320319e-06
0.8640262397 	0.002190858256 	0.001330846775 	6.32323555e-08 	0.003519565835 	8.552790397e-08 	6.709270694e-06
0.8666195773 	0.002226847119 	0.001352376018 	6.072272342e-08 	0.003552163386 	8.43893297e-08 	6.771410687e-06
0.8691845291 	0.002263607588 	0.001374260796 	5.808207042e-08 	0.00358585049 	8.275043457e-08 	6.835627669e-06
0.8717214379 	0.002301084152 	0.001396472095 	5.53169347e-08 	0.003620557232 	8.06341184e-08 	6.901788366e-06
0.8742305906 	0.002339211207 	0.001418976776 	5.243257649e-08 	0.003656204593 	7.806351617e-08 	6.969742145e-06
0.8767122763 	0.002377914342 	0.001441735213 	4.944034196e-08 	0.003692718113 	7.507227995e-08 	7.039347061e-06
0.8791667987 	0.00241711392 	0.001464705161 	4.6353147e-08 	0.003730014943 	7.170105993e-08 	7.110445185e-06
0.881594458 	0.002456721436 	0.001487839888 	4.318460797e-08 	0.00376800938 	6.799779688e-08 	7.182873142e-06
0.8839955611 	0.002496639116 	0.001511088137 	3.994785386e-08 	0.003806612834 	6.401794643e-08 	7.256462056e-06