0 	0.001937425356 	-7.88581343e-17 	1.261577549e-20 	-1.156327269e-16 	-5.048633887e-18 	-2.204281159e-19
0.0003187685652 	0.001937408067 	-4.947249789e-06 	1.022188033e-10 	0.001991360477 	-1.220424322e-07 	3.796086539e-06
0.0006375366988 	0.001937436541 	-1.069436376e-05 	3.709918073e-10 	0.001993779882 	-1.174983522e-07 	3.800698598e-06
0.0009563044003 	0.001937514 	-1.594452074e-05 	5.387024389e-10 	0.001994096461 	-1.127116645e-07 	3.801302086e-06
0.001275071669 	0.00193760622 	-2.120820461e-05 	6.888880863e-10 	0.001994504025 	-1.079163586e-07 	3.802079015e-06
0.001593838505 	0.001937745143 	-2.64770171e-05 	8.228939627e-10 	0.001994735577 	-1.030889809e-07 	3.802520417e-06
0.001912604907 	0.00193792151 	-3.175031817e-05 	9.413167928e-10 	0.001995021807 	-9.8253882e-08 	3.803066052e-06
0.002231370875 	0.001938136512 	-3.702729051e-05 	1.044301632e-09 	0.001995356182 	-9.34119702e-08 	3.803703463e-06
0.002550136408 	0.001938390814 	-4.230745611e-05 	1.131890604e-09 	0.00199574335 	-8.856512397e-08 	3.804441514e-06
0.002868901507 	0.001938685396 	-4.759058455e-05 	1.204096322e-09 	0.001996184635 	-8.371488504e-08 	3.805282724e-06
0.003187666171 	0.00193902135 	-5.287659932e-05 	1.26092332e-09 	0.001996682462 	-7.886285843e-08 	3.806231721e-06
0.003506430399 	0.001939399951 	-5.816552226e-05 	1.302375545e-09 	0.001997238775 	-7.401058437e-08 	3.807292208e-06
0.003825194192 	0.001939822641 	-6.345743882e-05 	1.328459161e-09 	0.001997855432 	-6.915957594e-08 	3.808467728e-06
0.004143957549 	0.001940291011 	-6.875247719e-05 	1.339183713e-09 	0.001998534309 	-6.431132919e-08 	3.809761856e-06
0.00446272047 	0.001940806798 	-7.405079522e-05 	1.334562624e-09 	0.001999277361 	-5.946732844e-08 	3.81117832e-06
0.004781482955 	0.001941371869 	-7.935257207e-05 	1.31461342e-09 	0.002000086638 	-5.462904755e-08 	3.812721027e-06
0.005100245004 	0.001941988223 	-8.465800276e-05 	1.27935782e-09 	0.002000964293 	-4.97979503e-08 	3.814394081e-06
0.005419006617 	0.001942657975 	-8.996729455e-05 	1.228821775e-09 	0.002001912586 	-4.497549004e-08 	3.816201792e-06
0.005737767794 	0.001943383353 	-9.528066453e-05 	1.163035475e-09 	0.002002933884 	-4.016310897e-08 	3.818148669e-06
0.006056528535 	0.001944166692 	-0.0001005983379 	1.082033339e-09 	0.002004030652 	-3.536223717e-08 	3.820239415e-06
0.006375288839 	0.001945010421 	-0.0001059205468 	9.858539981e-10 	0.002005205457 	-3.057429149e-08 	3.822478919e-06
0.006694048708 	0.001945917061 	-0.0001112475289 	8.745402742e-10 	0.002006460953 	-2.580067428e-08 	3.824872243e-06
0.007012808141 	0.001946889214 	-0.0001165795268 	7.481391506e-10 	0.002007799881 	-2.104277205e-08 	3.827424611e-06
0.007331567139 	0.001947929553 	-0.0001219167869 	6.067017443e-10 	0.002009225058 	-1.630195407e-08 	3.830141396e-06
0.007650325701 	0.001949040808 	-0.0001272595579 	4.502832755e-10 	0.002010739375 	-1.157957086e-08 	3.833028105e-06
0.007969083828 	0.001950225746 	-0.0001326080883 	2.789430485e-10 	0.002012345793 	-6.876952607e-09 	3.836090385e-06
0.008287841521 	0.001951487131 	-0.0001379626217 	9.274446107e-11 	0.002014047345 	-2.195407373e-09 	3.839334014e-06
0.008437852995 	0.001952118065 	-0.0001404854288 	-1.025827661e-09 	0.002014894397 	-1.556895619e-06 	3.840948733e-06
0.008606598778 	0.001952828179 	-0.0001433234093 	1.091516231e-10 	0.002015847693 	-2.489581134e-09 	3.842765979e-06
0.008925355602 	0.001954251315 	-0.0001486906317 	3.266690347e-10 	0.00201774976 	-7.173554895e-09 	3.846391846e-06
0.009244111993 	0.001955758013 	-0.000154065054 	5.589516982e-10 	0.002019756679 	-1.18322325e-08 	3.850217592e-06
0.00956286795 	0.001957594282 	-0.000160202511 	8.095701995e-10 	0.002022192183 	-1.645861082e-08 	3.85486034e-06
0.0100581404 	0.001960220691 	-0.000167885064 	1.218989601e-09 	0.002025603767 	-2.360986701e-08 	3.861363767e-06
0.01056272042 	0.001963658084 	-0.0001764412659 	1.675523064e-09 	0.002029954941 	-3.082795065e-08 	3.869658314e-06
0.01107678291 	0.00196772333 	-0.0001851793967 	2.177632016e-09 	0.002034998188 	-3.811935171e-08 	3.879272145e-06
0.01160050605 	0.001972437564 	-0.0001941056541 	2.727199349e-09 	0.002040759559 	-4.548496288e-08 	3.89025492e-06
0.01213407137 	0.001977824005 	-0.0002032252823 	3.326149632e-09 	0.002047265484 	-5.29257722e-08 	3.902657021e-06
0.01267766381 	0.001983906724 	-0.000212543823 	3.976446238e-09 	0.00205454297 	-6.044288685e-08 	3.916529932e-06
0.0132314718 	0.001990710376 	-0.0002220669994 	4.680092048e-09 	0.00206261949 	-6.803755575e-08 	3.931926023e-06
0.01379568728 	0.001998260019 	-0.0002318007089 	5.439129626e-09 	0.002071522857 	-7.571119472e-08 	3.948898316e-06
0.01437050582 	0.002006580976 	-0.0002417510166 	6.255641407e-09 	0.002081281125 	-8.346540997e-08 	3.967500287e-06
0.01495612667 	0.002015698726 	-0.0002519241495 	7.131750011e-09 	0.002091922489 	-9.13020202e-08 	3.987785683e-06
0.01555275281 	0.002025638799 	-0.0002623264921 	8.069618646e-09 	0.002103475184 	-9.922307682e-08 	4.009808331e-06
0.01616059102 	0.002036426683 	-0.0002729645812 	9.071451567e-09 	0.002115967396 	-1.072308819e-07 	4.033621959e-06
0.016779852 	0.002048087732 	-0.0002838451009 	1.01394946e-08 	0.002129427165 	-1.153280039e-07 	4.05928002e-06
0.01741075039 	0.002060647082 	-0.000294974877 	1.127603567e-08 	0.002143882297 	-1.235172899e-07 	4.08683552e-06
0.01805350486 	0.002074129568 	-0.0003063608721 	1.248340537e-08 	0.0021593603 	-1.318018765e-07 	4.116340895e-06
0.0187083382 	0.002088559642 	-0.0003180101393 	1.376397346e-08 	0.002175888299 	-1.401851947e-07 	4.147847856e-06
0.01937547738 	0.002103961237 	-0.000329931149 	1.512027997e-08 	0.002193492987 	-1.486709794e-07 	4.181407283e-06
0.02005515364 	0.002120371136 	-0.0003421394689 	1.655536243e-08 	0.002212215472 	-1.572633466e-07 	4.217097543e-06
0.02074973487 	0.002137838088 	-0.0003546574152 	1.807646492e-08 	0.002232110258 	-1.66004324e-07 	4.255022534e-06
0.02145891096 	0.002156385697 	-0.0003674938628 	1.968766612e-08 	0.002253203555 	-1.749043894e-07 	4.295232221e-06
0.02218141421 	0.00217601501 	-0.0003806405884 	2.138909661e-08 	0.002275495814 	-1.839488389e-07 	4.337727464e-06
0.02291749506 	0.002196737449 	-0.0003940968473 	2.318334713e-08 	0.002298999523 	-1.931462851e-07 	4.382532065e-06
0.02366740864 	0.002218573147 	-0.000407871286 	2.507396938e-08 	0.002323737438 	-2.025059693e-07 	4.429689407e-06
0.02443141485 	0.002241541496 	-0.0004219718639 	2.706457781e-08 	0.0023497314 	-2.120376508e-07 	4.479241122e-06
0.02520977851 	0.002265661078 	-0.0004364066502 	2.915893882e-08 	0.002377002444 	-2.217516009e-07 	4.531227311e-06
0.0260027694 	0.002290949639 	-0.0004511837942 	3.136097525e-08 	0.002405570747 	-2.316585867e-07 	4.585686437e-06
0.02681066235 	0.002317424075 	-0.0004663115239 	3.367477384e-08 	0.00243545563 	-2.417698569e-07 	4.64265533e-06
0.02763373738 	0.00234510042 	-0.0004817981435 	3.610459241e-08 	0.002466675552 	-2.520971218e-07 	4.702169179e-06
0.02847227976 	0.002373993836 	-0.0004976520328 	3.865486708e-08 	0.002499248108 	-2.626525318e-07 	4.764261524e-06
0.02932658012 	0.002404118614 	-0.000513881647 	4.13302196e-08 	0.002533190034 	-2.734486516e-07 	4.828964268e-06
0.03019693454 	0.00243548817 	-0.0005304955176 	4.413546461e-08 	0.002568517213 	-2.844984335e-07 	4.89630769e-06
0.03108364468 	0.002468115051 	-0.0005475022537 	4.707561684e-08 	0.002605244688 	-2.958151875e-07 	4.966320465e-06
0.03198701785 	0.002502010939 	-0.0005649105437 	5.015589838e-08 	0.00264338667 	-3.074125502e-07 	5.039029685e-06
0.03290736715 	0.002537186656 	-0.0005827291583 	5.338174615e-08 	0.002682956559 	-3.193044516e-07 	5.114460891e-06
0.03384501154 	0.002573652173 	-0.0006009669534 	5.675881912e-08 	0.002723966953 	-3.315050804e-07 	5.1926381e-06
0.034800276 	0.002611416613 	-0.000619632873 	6.02930056e-08 	0.002766429665 	-3.440288488e-07 	5.27358383e-06
0.03577349159 	0.00265048825 	-0.0006387359525 	6.399043066e-08 	0.002810355734 	-3.568903559e-07 	5.357319126e-06
0.0367649956 	0.002690874508 	-0.0006582853226 	6.785746369e-08 	0.002855755448 	-3.701043521e-07 	5.443863599e-06
0.03777513166 	0.002732581936 	-0.0006782901987 	7.190072211e-08 	0.002902638364 	-3.836857017e-07 	5.533235468e-06
0.03880424984 	0.002775616131 	-0.0006987605316 	7.612718733e-08 	0.002951013278 	-3.976493462e-07 	5.6254515e-06
0.0398527068 	0.002819996497 	-0.0007197127698 	8.054502973e-08 	0.00300090469 	-4.120118871e-07 	5.720558397e-06
0.0409222433 	0.002865784403 	-0.0007411800778 	8.393823428e-08 	0.003052383866 	-4.206460164e-07 	5.818692016e-06
0.04201573524 	0.00291301337 	-0.000763189539 	8.316555289e-08 	0.003105491564 	-4.084579906e-07 	5.919930047e-06
0.04312977606 	0.002961632778 	-0.0007857259282 	8.2254815e-08 	0.003160173457 	-3.960763288e-07 	6.024168933e-06
0.04426475185 	0.003011604058 	-0.0008087766063 	8.119575756e-08 	0.0032163891 	-3.834775635e-07 	6.131331573e-06
0.04542105599 	0.003062927479 	-0.0008323538686 	7.99821942e-08 	0.003274143112 	-3.706424958e-07 	6.241426773e-06
0.04659908922 	0.003115602513 	-0.0008564679154 	7.860721599e-08 	0.003333438877 	-3.575515996e-07 	6.354460981e-06
0.04779925982 	0.003169627609 	-0.000881129168 	7.706362392e-08 	0.00339427899 	-3.441851018e-07 	6.470439146e-06
0.04902198374 	0.00322500013 	-0.0009063481914 	7.534390311e-08 	0.003456665079 	-3.305230309e-07 	6.589364371e-06
0.05026768475 	0.003281716259 	-0.000932135686 	7.344021226e-08 	0.003520597811 	-3.165452893e-07 	6.711237928e-06
0.05153679457 	0.003339770855 	-0.00095850246 	7.134437291e-08 	0.003586076799 	-3.02231715e-07 	6.836059078e-06
0.05282975304 	0.003399157232 	-0.0009854593745 	6.904785897e-08 	0.003653100486 	-2.875621462e-07 	6.963824854e-06
0.05414700825 	0.003459866766 	-0.001013017242 	6.654178712e-08 	0.003721665977 	-2.725164909e-07 	7.094529735e-06
0.05548901673 	0.003521888164 	-0.001041186666 	6.381690971e-08 	0.00379176879 	-2.570748036e-07 	7.228165181e-06
0.05685624356 	0.003585206079 	-0.001069977871 	6.086360674e-08 	0.003863402419 	-2.412173752e-07 	7.364718787e-06
0.05824916257 	0.003649798508 	-0.00109940123 	5.767190342e-08 	0.003936557283 	-2.249248264e-07 	7.504172291e-06
0.0596682565 	0.003715644089 	-0.001129474075 	5.423176855e-08 	0.004011232725 	-2.08178922e-07 	7.646524439e-06
0.0611150311 	0.003782767847 	-0.001160240224 	5.052850856e-08 	0.004087500016 	-1.909444502e-07 	7.791911093e-06
0.06259447225 	0.003851144016 	-0.001191784179 	4.65281952e-08 	0.004165396967 	-1.73119126e-07 	7.940404331e-06
0.0641017149 	0.003929517045 	-0.001228521127 	4.236843428e-08 	0.004255034427 	-1.549378471e-07 	8.111278244e-06
0.0664155543 	0.004026897653 	-0.001274409282 	3.527362767e-08 	0.004366526128 	-1.263319033e-07 	8.323812412e-06
0.0687552027 	0.004133812215 	-0.001324800043 	2.772868276e-08 	0.004488857597 	-9.713672974e-08 	8.557010193e-06
0.07112094796 	0.004241400854 	-0.001375904133 	1.959903976e-08 	0.004612027643 	-6.719714109e-08 	8.791806535e-06
0.07351308118 	0.004349577823 	-0.001427761165 	1.087296593e-08 	0.004736019959 	-3.650629503e-08 	9.028170351e-06
0.07593189667 	0.00445825438 	-0.001480355387 	1.53905561e-09 	0.00486078239 	-5.06288338e-09 	9.266002219e-06
0.076319773 	0.004475553458 	-0.001488810895 	-3.746574563e-08 	0.004880676902 	-2.205730121e-07 	9.303926689e-06
0.07837769205 	0.004567341308 	-0.001533679703 	8.480681696e-09 	0.004986239309 	-2.729557491e-08 	9.505157976e-06
0.08085076825 	0.004676844074 	-0.001587767076 	1.914612492e-08 	0.005112413017 	-6.042686655e-08 	9.745680132e-06
0.08336052852 	0.004786785133 	-0.001642669958 	3.050788891e-08 	0.005239341717 	-9.444793855e-08 	9.987641512e-06
0.0858992737 	0.004896977808 	-0.001698334947 	4.252438916e-08 	0.005366818639 	-1.291780987e-07 	1.023064796e-05
0.0884663388 	0.005007223791 	-0.001754693385 	5.519518735e-08 	0.005494622721 	-1.6457478e-07 	1.047427806e-05
0.09106203972 	0.005117420388 	-0.001811734703 	6.8525522e-08 	0.005622645431 	-2.00610765e-07 	1.071832493e-05
0.0936866959 	0.005227474696 	-0.001869448538 	8.251932171e-08 	0.005750787589 	-2.372552072e-07 	1.096259949e-05
0.09634063034 	0.005337292631 	-0.001927823682 	9.717903309e-08 	0.005878948124 	-2.744734692e-07 	1.120690909e-05
0.09902416965 	0.005446795945 	-0.001986857373 	1.125061465e-07 	0.006007043762 	-3.122283451e-07 	1.145109498e-05
0.1017393693 	0.005555987797 	-0.002046586138 	1.285151975e-07 	0.006135084573 	-3.505130419e-07 	1.169517635e-05
0.1044931515 	0.005664836236 	-0.002107036071 	1.452420571e-07 	0.006263038843 	-3.893729378e-07 	1.193909276e-05
0.1072776549 	0.005773134708 	-0.00216812947 	1.626230024e-07 	0.00639066741 	-4.286050367e-07 	1.218238828e-05
0.1100932221 	0.00588070402 	-0.002229796894 	1.806435381e-07 	0.006517763521 	-4.681470243e-07 	1.242466879e-05
0.1129401996 	0.005987441022 	-0.002292019798 	1.992917038e-07 	0.006644211556 	-5.079387237e-07 	1.266571389e-05
0.115818938 	0.006093240899 	-0.002354773051 	2.185519722e-07 	0.006769891494 	-5.479158017e-07 	1.290529478e-05
0.1187297916 	0.006198004252 	-0.00241803532 	2.12915239e-07 	0.00689468903 	-5.25139378e-07 	1.314319357e-05
0.1216740008 	0.006301706952 	-0.002481824029 	2.014556328e-07 	0.007018576658 	-4.888984983e-07 	1.337935782e-05
0.1246600133 	0.006404308189 	-0.002546157332 	1.892322957e-07 	0.007141506533 	-4.519136619e-07 	1.361369633e-05
0.1276793401 	0.006505598911 	-0.002610940141 	1.763267589e-07 	0.0072632259 	-4.144386303e-07 	1.384572727e-05
0.130732353 	0.006605390772 	-0.002676079249 	1.627421843e-07 	0.007383505585 	-3.76523185e-07 	1.407501378e-05
0.1338194279 	0.006703566069 	-0.002741535659 	1.484919096e-07 	0.007502202631 	-3.382281442e-07 	1.430128334e-05
0.1369409448 	0.006800005195 	-0.002807262946 	1.335922576e-07 	0.007619168553 	-2.996186232e-07 	1.45242529e-05
0.1400972879 	0.006894624802 	-0.002873232295 	1.180646495e-07 	0.007734295721 	-2.607656501e-07 	1.474371728e-05
0.1432941265 	0.006987369505 	-0.002939440244 	1.018934738e-07 	0.007847509188 	-2.216519023e-07 	1.495953362e-05
0.1465309181 	0.00707809718 	-0.003005820402 	8.512866652e-08 	0.007958624946 	-1.824096706e-07 	1.517135113e-05
0.1498038247 	0.007166606536 	-0.003072248138 	6.783975673e-08 	0.008067382399 	-1.432075726e-07 	1.537867307e-05
0.1531132491 	0.007252737624 	-0.003138630236 	5.00665496e-08 	0.008173571753 	-1.04136704e-07 	1.558109949e-05
0.1564595988 	0.00733635652 	-0.003204891 	3.185540318e-08 	0.008277013055 	-6.529471306e-08 	1.577828736e-05
0.1598432858 	0.007417352492 	-0.003270962762 	1.325867133e-08 	0.008377550763 	-2.67852678e-08 	1.596994017e-05
0.1622451615 	0.007472238356 	-0.003317120461 	6.016496543e-08 	0.008445911957 	-1.059641013e-06 	1.610025561e-05
0.1632691727 	0.007495637593 	-0.003336800716 	5.716650357e-09 	0.008475056298 	-1.138972752e-08 	1.615581282e-05
0.166738053 	0.00757106271 	-0.003402307129 	2.500904144e-08 	0.008569321461 	-4.912987217e-08 	1.633550842e-05
0.1702456402 	0.007643422363 	-0.003467319667 	4.445469084e-08 	0.008660062633 	-8.6120278e-08 	1.650848632e-05
0.1737923664 	0.007712541571 	-0.00353170029 	6.396972823e-08 	0.008747034519 	-1.222265028e-07 	1.667427891e-05
0.1773786681 	0.007778265801 	-0.003595326835 	8.346202969e-08 	0.008830015895 	-1.573061311e-07 	1.683246447e-05
0.1810049869 	0.007840465463 	-0.003658089723 	1.028312604e-07 	0.00890881291 	-1.912079488e-07 	1.698267348e-05
0.1846789635 	0.007899008101 	-0.003719887046 	1.220088611e-07 	0.008983228525 	-2.238420677e-07 	1.712453033e-05
0.1883955412 	0.00795368805 	-0.003780531628 	1.408153748e-07 	0.009052968795 	-2.549303899e-07 	1.725747467e-05
0.1921535922 	0.008004293372 	-0.003839810805 	1.591048106e-07 	0.009117728589 	-2.842715495e-07 	1.738092483e-05
0.1959535793 	0.008050634788 	-0.003897542198 	1.767324804e-07 	0.009177234192 	-3.116747237e-07 	1.749435905e-05
0.1997959703 	0.008092532575 	-0.00395354418 	1.935412745e-07 	0.009231221138 	-3.369366364e-07 	1.759727317e-05
0.2036854422 	0.008129804059 	-0.004007640842 	2.093808806e-07 	0.009279422633 	-3.598706528e-07 	1.768915862e-05
0.207622447 	0.008162229835 	-0.004059605507 	2.240411066e-07 	0.009321523095 	-3.802050001e-07 	1.77694138e-05
0.211603387 	0.008189568103 	-0.004109160888 	2.372925616e-07 	0.009357175388 	-3.976602657e-07 	1.783737698e-05
0.2156287526 	0.008211583669 	-0.004156039737 	2.489181828e-07 	0.009386043593 	-4.119900808e-07 	1.78924078e-05
0.2196990393 	0.008228043221 	-0.004199977301 	2.355866593e-07 	0.00940779408 	-3.851712687e-07 	1.793387028e-05
0.2238186833 	0.008238699259 	-0.004240701788 	2.119485283e-07 	0.009422077259 	-3.42359498e-07 	1.796109799e-05
0.2279881991 	0.008243280402 	-0.004277893701 	1.885531892e-07 	0.009428512271 	-3.009751413e-07 	1.797336491e-05
0.232204247 	0.008241506612 	-0.004311188725 	1.655832657e-07 	0.009426705759 	-2.612727685e-07 	1.796992119e-05
0.236467346 	0.008233094879 	-0.004340220914 	1.432055092e-07 	0.009416264673 	-2.234623445e-07 	1.795001758e-05
0.2407780212 	0.008217747093 	-0.004364613879 	1.215992909e-07 	0.009396778973 	-1.87757657e-07 	1.791287242e-05
0.2451424756 	0.008195140587 	-0.004383968033 	1.009411854e-07 	0.0093678129 	-1.543509531e-07 	1.785765504e-05
0.2495572744 	0.008164953392 	-0.004397835488 	8.148716495e-08 	0.009328935636 	-1.235472793e-07 	1.778354417e-05
0.2540213442 	0.008126867536 	-0.004405744319 	6.348076571e-08 	0.009279729112 	-9.56091192e-08 	1.768974285e-05
0.2585352349 	0.008080547411 	-0.004407214574 	4.717093592e-08 	0.009219767047 	-7.078365747e-08 	1.757543849e-05
0.2631015014 	0.008025629751 	-0.004401746475 	3.281575251e-08 	0.009148606643 	-4.930649018e-08 	1.743978699e-05
0.2677235003 	0.007961749175 	-0.004388824079 	2.069788544e-08 	0.009065825693 	-3.143212414e-08 	1.728198349e-05
0.2723970843 	0.00788858066 	-0.004367939101 	1.111655902e-08 	0.008971129408 	-1.736678317e-08 	1.710146605e-05
0.2771228288 	0.007805811703 	-0.004338604437 	4.34589315e-09 	0.00886420244 	-7.390863395e-09 	1.689763353e-05
0.2819015435 	0.007713095183 	-0.004300502397 	6.068017133e-10 	0.00874474705 	-1.600621117e-09 	1.666991835e-05
0.2856242117 	0.007634206902 	-0.004264101422 	1.198706828e-06 	0.008642468659 	-2.801034848e-06 	1.647494731e-05
0.2867395923 	0.007610560482 	-0.004253184988 	-2.579017281e-10 	0.008611814105 	-3.622729428e-11 	1.641651121e-05
0.2916316387 	0.007498167345 	-0.004196431698 	-3.354385009e-09 	0.008465250109 	1.720655923e-09 	1.61371195e-05
0.2965782851 	0.007375092219 	-0.004130594619 	-9.664866894e-09 	0.008306686065 	6.83439957e-09 	1.583485236e-05
0.3015801405 	0.007240894171 	-0.00405595909 	-1.865505171e-08 	0.008137358944 	1.485308585e-08 	1.551206781e-05
0.3066433776 	0.007095714493 	-0.003972959891 	-2.967613213e-08 	0.007957922571 	2.526637522e-08 	1.517001221e-05
0.3117632607 	0.006940020919 	-0.003882497756 	-4.176547209e-08 	0.007769218135 	3.726278768e-08 	1.481028911e-05
0.3169402875 	0.006774517213 	-0.003785754027 	-5.378630764e-08 	0.00757219521 	5.010236152e-08 	1.443470865e-05
0.322175596 	0.006600061002 	-0.003684095898 	-6.454830644e-08 	0.00736784365 	6.303623626e-08 	1.404515778e-05
0.3274740002 	0.006417685527 	-0.003579000642 	-7.297307516e-08 	0.007157162155 	7.54585902e-08 	1.36435403e-05
0.3328315415 	0.006228632283 	-0.003471961845 	-7.829151372e-08 	0.006941198776 	8.699210548e-08 	1.323185407e-05
0.3382488795 	0.006034119265 	-0.003364243466 	-8.028549925e-08 	0.006720817102 	9.762478395e-08 	1.281174535e-05
0.3437284601 	0.005835203683 	-0.003256715616 	-7.937217486e-08 	0.006496607449 	1.076582185e-07 	1.238433944e-05
0.3492720762 	0.005632778087 	-0.00314980785 	-7.655355408e-08 	0.006268967821 	1.176214239e-07 	1.195039504e-05
0.3548775666 	0.005427506795 	-0.003043503425 	-7.323913658e-08 	0.006038119156 	1.28196669e-07 	1.151033332e-05
0.3605456212 	0.00521970214 	-0.002937336659 	-7.097751251e-08 	0.005804035379 	1.399694807e-07 	1.106410458e-05
0.3662803549 	0.005009392182 	-0.002830504987 	-7.118131856e-08 	0.005566556708 	1.532678294e-07 	1.061140423e-05
0.3720798471 	0.004796511925 	-0.002722073398 	-7.48729719e-08 	0.005325608472 	1.681113955e-07 	1.015208992e-05
0.3779440693 	0.004580905549 	-0.002611082012 	-8.256806694e-08 	0.005081176874 	1.842270818e-07 	9.686135363e-06
0.3838752086 	0.004362375572 	-0.00249665331 	-9.213885692e-08 	0.004833313469 	1.966083397e-07 	9.213638823e-06
0.3898747874 	0.004140848327 	-0.002378136742 	-9.698473761e-08 	0.004582262671 	1.93314574e-07 	8.735066226e-06
0.3959413294 	0.003916472628 	-0.002255197032 	-1.021438939e-07 	0.00432851743 	1.882373849e-07 	8.25135727e-06
0.4020759105 	0.003689571529 	-0.002127799296 	-1.063384008e-07 	0.004072718028 	1.809394703e-07 	7.763732514e-06
0.4082819033 	0.003460682138 	-0.001996225935 	-1.086007981e-07 	0.00381566632 	1.712482305e-07 	7.273720516e-06
0.4145571631 	0.003230640504 	-0.001861109931 	-1.083203382e-07 	0.003558404579 	1.592293684e-07 	6.783308134e-06
0.4209024622 	0.003000437401 	-0.001723327303 	-1.052398333e-07 	0.003302059239 	1.451887079e-07 	6.294642669e-06
0.4273212302 	0.002771169696 	-0.001583936008 	-9.947595038e-08 	0.003047766539 	1.296441002e-07 	5.809890107e-06
0.4338118585 	0.002544078613 	-0.001444171428 	-9.133133631e-08 	0.002796833486 	1.130416628e-07 	5.331541964e-06
0.4403749295 	0.002320419901 	-0.001305314374 	-8.12459706e-08 	0.002550420045 	9.641262637e-08 	4.861809459e-06
0.4470133871 	0.002101416876 	-0.001168711065 	-6.993685973e-08 	0.002309492861 	8.052780303e-08 	4.402535283e-06
0.4537262956 	0.001889288931 	-0.001034778714 	-6.024610782e-08 	0.00207321021 	6.956531907e-08 	3.952114879e-06
0.460514127 	0.001685349229 	-0.0009042240106 	-5.091593291e-08 	0.001842356968 	5.898119594e-08 	3.512044437e-06
0.4673796373 	0.001489649721 	-0.0007786027942 	-4.0728912e-08 	0.001620269195 	4.574675762e-08 	3.088683417e-06
0.4743220061 	0.001303288366 	-0.0006589698552 	-3.162438919e-08 	0.001409053997 	3.43407235e-08 	2.686048545e-06
0.4813419013 	0.001127937799 	-0.0005463195086 	-2.374584419e-08 	0.001210616546 	2.482128767e-08 	2.30777161e-06
0.4884419439 	0.0009657498495 	-0.0004416955802 	-1.723534093e-08 	0.001027305431 	1.712148455e-08 	1.958329677e-06
0.4956212291 	0.0008198358198 	-0.000346588649 	-1.206703229e-08 	0.0008626251459 	1.098840458e-08 	1.644403282e-06
0.5028008937 	0.00069435742 	-0.0002631268882 	-8.117239698e-09 	0.0007212988848 	6.2155321e-09 	1.374996149e-06
0.5099024955 	0.0005926263248 	-0.0001929793071 	-5.220323099e-09 	0.0006071048097 	2.627815455e-09 	1.157310503e-06
0.5169257377 	0.0005156312662 	-0.0001364630157 	-3.193293527e-09 	0.0005211323274 	8.42413298e-11 	9.934230572e-07
0.5238719808 	0.0004620784061 	-9.261686728e-05 	-1.863257511e-09 	0.0004617659171 	-1.533803361e-09 	8.802541792e-07
0.5307422839 	0.0004286010102 	-5.946524103e-05 	-1.052649898e-09 	0.0004249694809 	-2.3853827e-09 	8.101099448e-07
0.5375367778 	0.0004105567459 	-3.460163846e-05 	-5.888491405e-10 	0.0004053109621 	-2.672726105e-09 	7.72635344e-07
0.5442567658 	0.0004032163079 	-1.579779718e-05 	-3.34353051e-10 	0.0003973793926 	-2.591830836e-09 	7.575155681e-07
0.5509030776 	0.0004026309124 	-1.295594732e-06 	-1.971371331e-10 	0.0003967527388 	-2.294791257e-09 	7.563209919e-07
0.5574760505 	0.0004059159855 	1.01847813e-05 	-1.216149493e-10 	0.0004002670333 	-1.877753168e-09 	7.630202138e-07
0.5639768449 	0.0004111468585 	1.954929977e-05 	-7.643189605e-11 	0.0004058518778 	-1.396198473e-09 	7.736664798e-07
0.5704062841 	0.0004171248541 	2.744293579e-05 	-4.473836342e-11 	0.0004122402961 	-8.844569958e-10 	7.858445807e-07
0.5767647764 	0.0004231573324 	3.434084576e-05 	-1.784809067e-11 	0.0004187122973 	-3.61443062e-10 	7.981820137e-07
0.5811455924 	0.000427154934 	3.871094683e-05 	7.727918669e-08 	0.0004230317581 	2.126787944e-08 	8.064161065e-07
0.5830533074 	0.000428895867 	4.061399687e-05 	-7.847312105e-12 	0.0004249128439 	-1.613016149e-10 	8.10001979e-07
0.5892728019 	0.0004342292816 	4.657303454e-05 	-3.253270252e-11 	0.0004307352191 	-6.718724118e-10 	8.211010443e-07
0.5954236652 	0.0004392187936 	5.249884384e-05 	-5.424871029e-11 	0.0004362529041 	-1.158555166e-09 	8.316192854e-07
0.6015067106 	0.0004440636376 	5.866653206e-05 	-6.862082374e-11 	0.0004416846295 	-1.611091106e-09 	8.419736636e-07
0.6075229967 	0.0004490875895 	6.536636265e-05 	-6.850848023e-11 	0.0004473821431 	-2.013994205e-09 	8.528347081e-07
0.6134728931 	0.0004547420182 	7.292557465e-05 	-4.317524694e-11 	0.0004538365006 	-2.347856809e-09 	8.651385075e-07
0.6193571321 	0.0004616235618 	8.173438976e-05 	2.353323955e-11 	0.0004617007265 	-2.586882283e-09 	8.801299078e-07
0.6251766857 	0.0004705037935 	9.22761419e-05 	1.560621739e-10 	0.0004718264597 	-2.691842841e-09 	8.994323696e-07
0.630932088 	0.0004823674663 	0.000105161057 	3.907625823e-10 	0.0004853117757 	-2.604293513e-09 	9.2513913e-07
0.6366239785 	0.0004984534301 	0.0001211618277 	7.806111973e-10 	0.0005035541105 	-2.242646665e-09 	9.599140902e-07
0.6422531291 	0.0005202850682 	0.0001412428667 	1.399759045e-09 	0.0005282923685 	-1.492977449e-09 	1.007072086e-06
0.6478203216 	0.0005496689261 	0.0001665683377 	2.344518065e-09 	0.0005616129134 	-2.055998818e-10 	1.070590305e-06
0.6533260787 	0.0005886361489 	0.0001984696706 	3.72926645e-09 	0.0006058861836 	1.795860578e-09 	1.154987463e-06
0.6587710783 	0.0006393058151 	0.0002383536567 	5.672001636e-09 	0.0006636067962 	4.693900276e-09 	1.265018994e-06
0.6641561061 	0.0007036742795 	0.0002875438719 	8.266290516e-09 	0.0007371321981 	8.643300374e-09 	1.405178845e-06
0.6694817605 	0.000783374523 	0.0003470795164 	1.154825162e-08 	0.0008283822687 	1.371809413e-08 	1.579126841e-06
0.6747486444 	0.0008794691149 	0.0004175238802 	1.546931049e-08 	0.000938566241 	1.992330579e-08 	1.789168116e-06
0.6799574061 	0.0009923333515 	0.0004988528237 	1.989087455e-08 	0.001068061133 	2.709029785e-08 	2.036021372e-06
0.6851087964 	0.001121655464 	0.0005905319965 	2.474588068e-08 	0.00121631725 	3.499955132e-08 	2.318638736e-06
0.6902033484 	0.001267116445 	0.0006914270888 	2.937437018e-08 	0.001381002272 	4.206025629e-08 	2.63257416e-06
0.6952416799 	0.001428469801 	0.0007999365943 	3.406954704e-08 	0.001558495651 	4.915138315e-08 	2.970925873e-06
0.7002244109 	0.001603582981 	0.0009152669448 	3.911691645e-08 	0.001747892119 	5.749868046e-08 	3.331968181e-06
0.7051522365 	0.001789617986 	0.001036541019 	4.373530064e-08 	0.001949173786 	6.574965336e-08 	3.715666981e-06
0.7100256822 	0.001984670684 	0.001162131104 	4.784341954e-08 	0.002160536023 	7.365207835e-08 	4.11858215e-06
0.714845347 	0.002186918254 	0.001290671213 	5.137322151e-08 	0.002380133013 	8.099268947e-08 	4.537195047e-06
0.7196118242 	0.002394685125 	0.001420901009 	5.429497298e-08 	0.002606192194 	8.772775783e-08 	4.968126675e-06
0.7243257496 	0.002606360656 	0.001551663913 	5.658023504e-08 	0.00283706726 	9.375082634e-08 	5.40823872e-06
0.7289876612 	0.002820388774 	0.001681900667 	5.821760109e-08 	0.003071137614 	9.901797582e-08 	5.854441871e-06
0.733598126 	0.003035414053 	0.001810667151 	5.921732394e-08 	0.003307000111 	1.035357848e-07 	6.304061345e-06
0.7381577117 	0.003250305408 	0.001937126047 	5.959293031e-08 	0.003543486351 	1.073344678e-07 	6.754869845e-06
0.7426670004 	0.003464103012 	0.002060521424 	5.935236529e-08 	0.003779608186 	1.104646355e-07 	7.204983691e-06
0.7471265425 	0.003676018875 	0.002180170299 	5.848785739e-08 	0.004014562221 	1.129810258e-07 	7.652871384e-06
0.7515368708 	0.003885440153 	0.002295452968 	5.700785807e-08 	0.00424771605 	1.149312716e-07 	8.097327382e-06
0.7558985284 	0.004091931918 	0.002405809246 	5.50044968e-08 	0.004478719932 	1.164047551e-07 	8.537684986e-06
0.7602120532 	0.004295263961 	0.002512821949 	5.609036389e-08 	0.004707152698 	1.173625263e-07 	8.973141328e-06
0.7644779982 	0.004496242808 	0.002616927471 	5.160392387e-08 	0.004932690709 	1.183900061e-07 	9.403079461e-06
0.7686968657 	0.004696798135 	0.00271181699 	4.635323407e-08 	0.005156459203 	1.201646361e-07 	9.829644404e-06
0.7728691753 	0.00489848924 	0.002801508288 	4.926959022e-08 	0.005380385103 	1.224000888e-07 	1.025650941e-05
0.7769954407 	0.005101386335 	0.002894606502 	5.178149056e-08 	0.005605263136 	1.245584354e-07 	1.068518944e-05
0.781076174 	0.005304143605 	0.002990252139 	5.358161379e-08 	0.005830206239 	1.25890076e-07 	1.111399351e-05
0.7851118841 	0.005504734877 	0.003087232517 	5.447883036e-08 	0.006053351034 	1.25629964e-07 	1.153936951e-05
0.7891030575 	0.00570098977 	0.003184224519 	5.437084742e-08 	0.006272607306 	1.234483647e-07 	1.195733291e-05
0.7930501855 	0.005890898105 	0.003279925114 	5.324238951e-08 	0.00648584395 	1.193856036e-07 	1.236382122e-05
0.7969537543 	0.006072709669 	0.00337312138 	5.11356367e-08 	0.006691064087 	1.136056525e-07 	1.275502784e-05
0.8008142465 	0.006244904812 	0.003462717572 	4.810488954e-08 	0.006886523636 	1.062907491e-07 	1.312762806e-05
0.804632142 	0.00640607377 	0.003547723577 	4.417613657e-08 	0.00707079449 	9.764581679e-08 	1.347889952e-05
0.8084079044 	0.006554751283 	0.003627220706 	3.934578408e-08 	0.00724278978 	8.792499733e-08 	1.380677035e-05
0.8121419985 	0.006689317664 	0.003700344129 	3.362628908e-08 	0.007401795133 	7.744477799e-08 	1.410987875e-05
0.8158348843 	0.006808142209 	0.003766335888 	2.714711244e-08 	0.007547484267 	6.65456254e-08 	1.438760273e-05
0.8194870164 	0.006910116853 	0.003824702919 	2.026164347e-08 	0.007680100261 	5.580855799e-08 	1.464040567e-05
0.823098849 	0.006995670989 	0.003875472734 	1.362400463e-08 	0.00779911686 	4.32997217e-08 	1.486728439e-05
0.8266708229 	0.00706789907 	0.003919079273 	5.930996364e-09 	0.007903448459 	2.8893266e-08 	1.506616941e-05
0.8302033774 	0.007135035428 	0.003934552337 	-2.046862207e-08 	0.007987450785 	1.004624801e-08 	1.522630119e-05
0.8336969477 	0.007198966016 	0.003931974291 	-3.369849844e-08 	0.008054586604 	-3.075477847e-09 	1.535428072e-05
0.8371519639 	0.007255391797 	0.00393516775 	-2.775714121e-08 	0.008113210646 	-8.003163921e-09 	1.546603444e-05