4.0776948e-36 	0.72302795 	-4.9104377e-14 	-1.7848141e-20
0.010869565 	0.72356423 	-0.00044819298 	9.7770435e-08
0.02173913 	0.7251047 	-0.00088590577 	2.8820121e-08
0.032608696 	0.72765719 	-0.0013211972 	1.3717587e-08
0.043478261 	0.73121 	-0.0017502145 	6.9283813e-08
0.054347826 	0.73575871 	-0.0021728623 	4.1599424e-07
0.065217391 	0.74169652 	-0.002614104 	8.5305488e-07
0.076086957 	0.74759175 	-0.0029777418 	7.2035779e-07
0.086956522 	0.75462466 	-0.0033533988 	1.2656051e-07
0.097826087 	0.7626792 	-0.0037192466 	2.0485319e-07
0.10869565 	0.77177927 	-0.0040694443 	1.8851968e-06
0.11956522 	0.78098773 	-0.0043892638 	3.9041689e-07
0.13043478 	0.79131084 	-0.0046953251 	7.7365443e-07
0.14130435 	0.80246309 	-0.0049778471 	2.0887833e-06
0.15217391 	0.81344945 	-0.0052374043 	1.0242676e-08
0.16304348 	0.82624851 	-0.0054692935 	2.9845231e-06
0.17391304 	0.83816434 	-0.0056803316 	1.6371992e-07
0.18478261 	0.85209031 	-0.0058551148 	3.0055844e-06
0.19565217 	0.86500637 	-0.0060160775 	1.6955995e-07
0.20652174 	0.87998097 	-0.0061296844 	3.0408063e-06
0.2173913 	0.89364605 	-0.0062377116 	5.1377681e-07
0.22826087 	0.90947667 	-0.006286345 	2.5890392e-06
0.23913043 	0.92410319 	-0.0063327741 	4.9150421e-07
0.25 	0.94012204 	-0.0063259714 	1.2847189e-06
0.26086957 	0.95605015 	-0.0062982145 	1.3525244e-06
0.27173913 	0.97175247 	-0.0062527605 	5.8764327e-07
0.2826087 	0.98898048 	-0.0061403218 	1.9998641e-06
0.29347826 	1.0046654 	-0.0060430501 	1.7971396e-07
0.30434783 	1.0214138 	-0.0058875152 	3.511596e-07
0.31521739 	1.0384071 	-0.0056997856 	1.1758841e-06
0.32608696 	1.054263 	-0.0055219582 	3.3721077e-06
0.33695652 	1.0707312 	-0.0052923246 	2.9852916e-07
0.34782609 	1.0869489 	-0.0050454595 	6.796841e-07
0.35869565 	1.1020648 	-0.0048117173 	4.7055867e-06
0.36956522 	1.1169993 	-0.0045547294 	1.0688584e-07
0.38043478 	1.1314413 	-0.004286595 	5.0508904e-07
0.39130435 	1.1446683 	-0.0040424636 	1.8532615e-06
0.40217391 	1.1568636 	-0.0038042519 	2.5676542e-06
0.41304348 	1.1681025 	-0.0035723309 	4.2090065e-07
0.42391304 	1.1783499 	-0.003360058 	1.2226717e-07
0.43478261 	1.1870387 	-0.0031657408 	8.617848e-06
0.44565217 	1.1948587 	-0.0029799278 	1.1842851e-07
0.45652174 	1.201167 	-0.0028108835 	4.3096964e-07
0.4673913 	1.2067904 	-0.0026558245 	1.2751675e-06
0.47826087 	1.2107442 	-0.0025087751 	5.3183917e-06
0.48913043 	1.2139864 	-0.0023651401 	1.8625644e-07
0.5 	1.2160163 	-0.0022290031 	3.3411922e-07
0.51086957 	1.2175382 	-0.0020973098 	2.6052798e-06
0.52173913 	1.218096 	-0.0019680133 	3.8283486e-06
0.5326087 	1.2179808 	-0.0018408596 	2.0967877e-07
0.54347826 	1.2170731 	-0.0017145601 	2.0463608e-07
0.55434783 	1.2156195 	-0.0015877857 	4.1029508e-06
0.56521739 	1.2137739 	-0.001461909 	1.5640297e-06
0.57608696 	1.2112039 	-0.0013386829 	3.2206003e-07
0.58695652 	1.2082714 	-0.0012127561 	3.7128465e-07
0.59782609 	1.2046829 	-0.0010873046 	4.219888e-06
0.60869565 	1.2008702 	-0.00096260727 	1.2271491e-07
0.61956522 	1.196471 	-0.00083705476 	9.9188766e-08
0.63043478 	1.1915446 	-0.00070958974 	4.7897268e-06
0.64130435 	1.1864192 	-0.00058246518 	3.6544278e-08
0.65217391 	1.1806504 	-0.00045497322 	1.2253114e-07
0.66304348 	1.174377 	-0.00032580957 	4.0665104e-06
0.67391304 	1.1678859 	-0.00019801089 	3.538185e-08
0.68478261 	1.1607746 	-7.1145521e-05 	7.1043359e-08
0.69565217 	1.1530142 	5.7677601e-05 	3.7304987e-06
0.70652174 	1.144947 	0.00018503483 	9.451049e-08
0.7173913 	1.1360931 	0.00031498626 	5.7117307e-07
0.72826087 	1.1264641 	0.00044616273 	1.5530403e-06
0.73913043 	1.116228 	0.00057673941 	1.1709273e-07
0.75 	1.104887 	0.00071259902 	3.2442363e-06
0.76086957 	1.0930576 	0.00084663174 	5.8356771e-08
0.77173913 	1.0800627 	0.00098342727 	1.2463242e-06
0.7826087 	1.0664366 	0.0011179299 	1.1683307e-09
0.79347826 	1.0518022 	0.0012483929 	1.7711281e-07
0.80434783 	1.0363469 	0.0013730273 	4.8878003e-07
0.81521739 	1.0201518 	0.001488226 	-9.4633283e-10
0.82608696 	1.003138 	0.0015901559 	2.905672e-07
0.83695652 	0.98551923 	0.0016728837 	1.2822325e-07
0.84782609 	0.9673574 	0.0017332231 	-4.8228194e-08
0.85869565 	0.94870056 	0.0017604004 	-1.529341e-07
0.86956522 	0.9299558 	0.001758431 	-3.5714202e-07
0.88043478 	0.91044373 	0.0017221112 	-7.5327622e-07
0.89130435 	0.89076516 	0.0016532366 	-2.7313169e-07
0.90217391 	0.87043111 	0.0015525727 	-3.3970013e-07
0.91304348 	0.84896507 	0.0014226517 	-1.0817116e-06
0.92391304 	0.82686996 	0.0012701229 	-1.8179634e-06
0.93478261 	0.80336609 	0.0010961971 	-4.8361586e-07
0.94565217 	0.77539974 	0.00088747395 	-1.8972872e-06
0.95652174 	0.74412767 	0.00067297811 	-2.1813298e-07
0.9673913 	0.70348048 	0.00044937643 	-3.1192149e-07
0.97826087 	0.64171604 	0.00023830801 	-8.6550829e-08
0.98913043 	0.49907938 	6.8709837e-05 	-2.5860629e-08
