/*--------------------------------*- C++ -*----------------------------------*\
| =========                 |                                                 |
| \\      /  F ield         | OpenFOAM: The Open Source CFD Toolbox           |
|  \\    /   O peration     | Version:  2.4.0                                 |
|   \\  /    A nd           | Web:      www.OpenFOAM.org                      |
|    \\/     M anipulation  |                                                 |
\*---------------------------------------------------------------------------*/
FoamFile
{
    version     2.0;
    format      ascii;
    class       surfaceScalarField;
    location    "2000";
    object      phi;
}
// * * * * * * * * * * * * * * * * * * * * * * * * * * * * * * * * * * * * * //

dimensions      [0 3 -1 0 0 0 0];

internalField   nonuniform List<scalar> 
30289
(
2.0792921e-07
2.7966551e-09
2.0539474e-07
2.534473e-09
2.029252e-07
2.469539e-09
2.004986e-07
2.4265988e-09
1.9808778e-07
2.4108137e-09
1.9565542e-07
2.4323654e-09
1.9316696e-07
2.4884587e-09
1.9058914e-07
2.5778169e-09
1.8789344e-07
2.6957048e-09
1.8506329e-07
2.830147e-09
1.8209774e-07
2.9655554e-09
1.7900962e-07
3.0881207e-09
1.7582076e-07
3.1888582e-09
1.7255875e-07
3.2620062e-09
1.692561e-07
3.3026534e-09
1.6594881e-07
3.3072903e-09
1.6267225e-07
3.2765595e-09
1.5945515e-07
3.217102e-09
1.5631523e-07
3.1399169e-09
1.5325833e-07
3.0568988e-09
1.5027995e-07
2.9783841e-09
1.4736696e-07
2.9129875e-09
1.4449874e-07
2.8682206e-09
1.416465e-07
2.8522389e-09
1.3877333e-07
2.8731712e-09
1.3583262e-07
2.9407147e-09
1.3277306e-07
3.0595581e-09
1.2953999e-07
3.2330686e-09
1.2591262e-07
3.6273723e-09
1.2146211e-07
4.4505051e-09
1.1644541e-07
5.0167019e-09
1.1141681e-07
5.0285968e-09
1.0671355e-07
4.7032618e-09
1.0205421e-07
4.6593416e-09
9.8292138e-08
3.762071e-09
9.4871053e-08
3.4210855e-09
9.6088154e-08
-1.2171015e-09
-3.4609676e-08
1.3069783e-07
6.2378513e-07
1.1142637e-08
6.161813e-07
1.0138304e-08
6.0877214e-07
9.8786944e-09
6.0149165e-07
9.7070945e-09
5.9425859e-07
9.643871e-09
5.8696133e-07
9.7296275e-09
5.7949648e-07
9.9533066e-09
5.7176454e-07
1.0309761e-08
5.6368015e-07
1.0780094e-08
5.5519362e-07
1.1316677e-08
5.4630167e-07
1.1857502e-08
5.3704225e-07
1.2347541e-08
5.2748026e-07
1.2750849e-08
5.1769805e-07
1.3044216e-08
5.077929e-07
1.3207801e-08
4.9787276e-07
1.3227433e-08
4.8804372e-07
1.3105598e-08
4.7839204e-07
1.2868787e-08
4.6897102e-07
1.256094e-08
4.5979827e-07
1.2229648e-08
4.5086032e-07
1.1916331e-08
4.4211776e-07
1.1655543e-08
4.3350859e-07
1.1477396e-08
4.2494633e-07
1.1414493e-08
4.1632032e-07
1.1499186e-08
4.0749109e-07
1.1769939e-08
3.9830583e-07
1.2244819e-08
3.8860379e-07
1.2935117e-08
3.7771125e-07
1.4519912e-08
3.6435919e-07
1.7802563e-08
3.4934456e-07
2.0031335e-08
3.3430164e-07
2.007151e-08
3.2022218e-07
1.8782724e-08
3.0624407e-07
1.8637453e-08
2.94911e-07
1.509514e-08
2.8445563e-07
1.3876456e-08
2.8559542e-07
-2.3568884e-09
-7.3927706e-08
3.2491345e-07
1.0396298e-06
2.4981801e-08
1.0269597e-06
2.2808369e-08
1.0146102e-06
2.2228223e-08
1.0024745e-06
2.1842821e-08
9.9041775e-07
2.1700591e-08
9.7825447e-07
2.1892908e-08
9.6581285e-07
2.2394928e-08
9.5292773e-07
2.319488e-08
9.3945748e-07
2.4250341e-08
9.2531935e-07
2.5454804e-08
9.1050721e-07
2.666965e-08
8.9508315e-07
2.7771598e-08
8.7915426e-07
2.8679737e-08
8.6285704e-07
2.9341431e-08
8.4635329e-07
2.9711552e-08
8.2982281e-07
2.9757913e-08
8.1344246e-07
2.9485954e-08
7.9735608e-07
2.8955163e-08
7.816527e-07
2.8264326e-08
7.6636179e-07
2.7520553e-08
7.5146093e-07
2.6817195e-08
7.3688428e-07
2.6232188e-08
7.2252824e-07
2.5833435e-08
7.0824845e-07
2.5694284e-08
6.9386042e-07
2.5887215e-08
6.7913217e-07
2.6498196e-08
6.638105e-07
2.7566489e-08
6.4763127e-07
2.9114341e-08
6.2945063e-07
3.2700558e-08
6.0718876e-07
4.0064431e-08
5.8222135e-07
4.4998741e-08
5.5722242e-07
4.5070447e-08
5.3380901e-07
4.2196131e-08
5.1051798e-07
4.1928477e-08
4.9155747e-07
3.4055656e-08
4.739215e-07
3.1512424e-08
4.7439509e-07
-2.8304733e-09
-2.0224771e-07
6.0271509e-07
1.4554557e-06
4.4265819e-08
1.4377247e-06
4.0539353e-08
1.420434e-06
3.9518953e-08
1.4034411e-06
3.8835725e-08
1.3865585e-06
3.85832e-08
1.3695271e-06
3.8924259e-08
1.3521075e-06
3.981457e-08
1.3340696e-06
4.1232729e-08
1.3152165e-06
4.3103475e-08
1.2954324e-06
4.5238834e-08
1.2747078e-06
4.7394307e-08
1.2531275e-06
4.9351883e-08
1.2308396e-06
5.0967648e-08
1.2080339e-06
5.2147112e-08
1.1849364e-06
5.2809034e-08
1.1617988e-06
5.2895553e-08
1.1388687e-06
5.2416086e-08
1.1163476e-06
5.147624e-08
1.0943604e-06
5.0251534e-08
1.0729485e-06
4.8932462e-08
1.0520804e-06
4.7685289e-08
1.0316636e-06
4.6648944e-08
1.0115526e-06
4.594446e-08
9.9154462e-07
4.5702261e-08
9.7138122e-07
4.605061e-08
9.5073809e-07
4.7141329e-08
9.2926311e-07
4.9041469e-08
9.0659071e-07
5.1786736e-08
8.8108192e-07
5.8209352e-08
8.4989279e-07
7.1253562e-08
8.1502991e-07
7.9861619e-08
7.8015168e-07
7.9948681e-08
7.4746117e-07
7.4886635e-08
7.1487028e-07
7.451937e-08
6.8821493e-07
6.0711004e-08
6.6317251e-07
5.6554847e-08
6.6068807e-07
-3.4603357e-10
-3.3942962e-07
7.9786999e-07
1.8712572e-06
6.895043e-08
1.8484708e-06
6.3325737e-08
1.8262383e-06
6.1751479e-08
1.8043859e-06
6.0688169e-08
1.7826743e-06
6.0294748e-08
1.7607718e-06
6.0826755e-08
1.7383718e-06
6.2214578e-08
1.7151807e-06
6.4423823e-08
1.6909471e-06
6.7337068e-08
1.6655229e-06
7.0663057e-08
1.6388939e-06
7.4023294e-08
1.6111665e-06
7.7079284e-08
1.5825281e-06
7.9606021e-08
1.553221e-06
8.1454212e-08
1.523535e-06
8.2495047e-08
1.4937936e-06
8.2636968e-08
1.4643154e-06
8.1894322e-08
1.4353596e-06
8.0431979e-08
1.407087e-06
7.8524131e-08
1.3795509e-06
7.6468593e-08
1.3527105e-06
7.45257e-08
1.3264462e-06
7.2913197e-08
1.3005699e-06
7.1820785e-08
1.2748198e-06
7.1452375e-08
1.248863e-06
7.20074e-08
1.2222829e-06
7.372143e-08
1.19463e-06
7.6694402e-08
1.1654373e-06
8.0979401e-08
1.1325391e-06
9.1107547e-08
1.0923909e-06
1.1140173e-07
1.0476954e-06
1.2455715e-07
1.0030286e-06
1.2461549e-07
9.6112948e-07
1.1678576e-07
9.1926413e-07
1.1638473e-07
8.8484667e-07
9.5128456e-08
8.5222359e-07
8.9177926e-08
8.4674151e-07
5.1360502e-09
-4.7982183e-07
9.8713372e-07
3.6934533e-06
1.1738849e-07
3.6484939e-06
1.0828508e-07
3.6046079e-06
1.056375e-07
3.5614623e-06
1.0383381e-07
3.51859e-06
1.0316698e-07
3.4753411e-06
1.0407563e-07
3.4311147e-06
1.0644105e-07
3.385337e-06
1.1020148e-07
3.337518e-06
1.1515611e-07
3.2873671e-06
1.2081399e-07
3.2348518e-06
1.2653859e-07
3.1801736e-06
1.3175744e-07
3.1236942e-06
1.3608537e-07
3.0658865e-06
1.3926195e-07
3.0073204e-06
1.4106111e-07
2.9486347e-06
1.4132276e-07
2.8904586e-06
1.4007042e-07
2.8333044e-06
1.3758612e-07
2.7774896e-06
1.3433896e-07
2.7231192e-06
1.3083902e-07
2.6701116e-06
1.2753329e-07
2.6182285e-06
1.2479627e-07
2.567095e-06
1.2295431e-07
2.5161906e-06
1.2235671e-07
2.464856e-06
1.2334201e-07
2.4122693e-06
1.2630813e-07
2.3575512e-06
1.3141248e-07
2.2997826e-06
1.3874808e-07
2.2345233e-06
1.5636685e-07
2.1551185e-06
1.9080647e-07
2.0672522e-06
2.1242348e-07
1.9795888e-06
2.1227893e-07
1.8972638e-06
1.9911074e-07
1.8147678e-06
1.9888072e-07
1.7464363e-06
1.6345992e-07
1.6808962e-06
1.5471805e-07
1.6657144e-06
2.0317841e-08
-6.2723552e-07
1.8131281e-06
5.3583756e-06
1.8723464e-07
5.2932034e-06
1.7345734e-07
5.2295277e-06
1.6931316e-07
5.1669023e-06
1.6645922e-07
5.1046627e-06
1.6540661e-07
5.0418745e-06
1.6686378e-07
4.9776753e-06
1.7064025e-07
4.9112464e-06
1.7663046e-07
4.84189e-06
1.8451242e-07
4.7691894e-06
1.9351467e-07
4.6930881e-06
2.0263982e-07
4.6138614e-06
2.1098422e-07
4.5320168e-06
2.1792993e-07
4.4482294e-06
2.2304935e-07
4.363322e-06
2.2596847e-07
4.2782212e-06
2.2642359e-07
4.193841e-06
2.2445061e-07
4.1109257e-06
2.2050145e-07
4.0299363e-06
2.1532831e-07
3.9510255e-06
2.0974989e-07
3.8740732e-06
2.0448553e-07
3.7987304e-06
2.0013912e-07
3.7244475e-06
1.9723716e-07
3.6504635e-06
1.9634073e-07
3.575818e-06
1.9798757e-07
3.4993188e-06
2.0280728e-07
3.4197033e-06
2.1102795e-07
3.3356382e-06
2.2281325e-07
3.2404438e-06
2.5156123e-07
3.1250743e-06
3.0617598e-07
2.9982553e-06
3.3924244e-07
2.8719112e-06
3.3862298e-07
2.7531139e-06
3.1790808e-07
2.6336733e-06
3.183213e-07
2.5338702e-06
2.63263e-07
2.4367481e-06
2.5184018e-07
2.4096255e-06
4.7440445e-08
-7.3343748e-07
2.5158275e-06
7.5669437e-06
2.8527717e-07
7.4750066e-06
2.6539448e-07
7.385077e-06
2.5924267e-07
7.2965826e-06
2.5495366e-07
7.2086096e-06
2.533796e-07
7.1198546e-06
2.5561883e-07
7.0291172e-06
2.6137765e-07
6.9352668e-06
2.7048082e-07
6.837344e-06
2.8243522e-07
6.734769e-06
2.9608967e-07
6.6274468e-06
3.0996204e-07
6.5157353e-06
3.2269573e-07
6.4003215e-06
3.3334369e-07
6.2821392e-06
3.4123162e-07
6.1623427e-06
3.4576495e-07
6.04224e-06
3.4652633e-07
5.9231238e-06
3.4356683e-07
5.8060466e-06
3.3757862e-07
5.691661e-06
3.2971393e-07
5.5801826e-06
3.2122824e-07
5.4714405e-06
3.1322763e-07
5.3649364e-06
3.0664324e-07
5.2598867e-06
3.0228692e-07
5.155207e-06
3.010204e-07
5.0495357e-06
3.0365886e-07
4.9411887e-06
3.1115434e-07
4.8284003e-06
3.2381632e-07
4.7092766e-06
3.4193699e-07
4.574089e-06
3.8674877e-07
4.4110147e-06
4.6925027e-07
4.232976e-06
5.1728117e-07
4.0558198e-06
5.1577918e-07
3.8890356e-06
4.8469226e-07
3.7207824e-06
4.865745e-07
3.5788818e-06
4.0516363e-07
3.4384981e-06
3.9222391e-07
3.3941242e-06
9.1814348e-08
-7.9318629e-07
3.453873e-06
1.0480088e-05
4.2020949e-07
1.035291e-05
3.9257198e-07
1.0228349e-05
3.838038e-07
1.0105685e-05
3.7761743e-07
9.9836964e-06
3.753686e-07
9.860606e-06
3.7870924e-07
9.7347844e-06
3.8719929e-07
9.6047119e-06
4.0055327e-07
9.4691061e-06
4.1804101e-07
9.3271813e-06
4.3801448e-07
9.1787801e-06
4.5836323e-07
9.0243465e-06
4.7712933e-07
8.864781e-06
4.9290922e-07
8.701343e-06
5.046696e-07
8.5356173e-06
5.1149072e-07
8.3694139e-06
5.127297e-07
8.2045259e-06
5.0845484e-07
8.0424139e-06
4.9969064e-07
7.8839837e-06
4.8814411e-07
7.7295353e-06
4.7567669e-07
7.5788294e-06
4.6393345e-07
7.4311696e-06
4.5430308e-07
7.2854593e-06
4.4799718e-07
7.1401832e-06
4.462965e-07
6.9934473e-06
4.5039479e-07
6.8429158e-06
4.6168581e-07
6.6861662e-06
4.8056591e-07
6.5205378e-06
5.0756546e-07
6.3322322e-06
5.7505436e-07
6.1063042e-06
6.951782e-07
5.8613575e-06
7.6222787e-07
5.6178716e-06
7.592651e-07
5.3883487e-06
7.1421514e-07
5.1560351e-06
7.1888812e-07
4.9582171e-06
6.0298164e-07
4.7589373e-06
5.9150373e-07
4.6905977e-06
1.6015392e-07
-8.0665438e-07
4.7040658e-06
1.4311251e-05
5.9657769e-07
1.4144567e-05
5.5925535e-07
1.3981147e-05
5.4722456e-07
1.3820081e-05
5.3868346e-07
1.3659769e-05
5.356799e-07
1.3497834e-05
5.4064495e-07
1.3332096e-05
5.5293676e-07
1.3160549e-05
5.7210053e-07
1.2981503e-05
5.9708656e-07
1.2793899e-05
6.2561891e-07
1.2597463e-05
6.5479951e-07
1.2392702e-05
6.818902e-07
1.2180751e-05
7.0485971e-07
1.196327e-05
7.2215136e-07
1.1742398e-05
7.3236206e-07
1.1520615e-05
7.3451253e-07
1.1300389e-05
7.286813e-07
1.1083735e-05
7.1634437e-07
1.0871911e-05
6.9996873e-07
1.0665337e-05
6.822504e-07
1.0463689e-05
6.6558145e-07
1.0266001e-05
6.5199044e-07
1.0070749e-05
6.432498e-07
9.8758163e-06
6.4122905e-07
9.6785684e-06
6.4764269e-07
9.4757547e-06
6.6449951e-07
9.2640309e-06
6.9228967e-07
9.0395973e-06
7.3199904e-07
8.7829867e-06
8.3166501e-07
8.4754956e-06
1.0026693e-06
8.143644e-06
1.0940795e-06
7.813693e-06
1.0892162e-06
7.5021994e-06
1.0257087e-06
7.185444e-06
1.0356435e-06
6.9134678e-06
8.749579e-07
6.6335491e-06
8.7142236e-07
6.5337785e-06
2.5992458e-07
-7.873094e-07
6.5144335e-06
1.9318953e-05
8.2893132e-07
1.9098749e-05
7.7945917e-07
1.8882593e-05
7.6338078e-07
1.8669295e-05
7.5198124e-07
1.8456802e-05
7.4817307e-07
1.824199e-05
7.5545762e-07
1.8022014e-05
7.729128e-07
1.7794293e-05
7.9982139e-07
1.755667e-05
8.3470881e-07
1.7307757e-05
8.7453272e-07
1.7047109e-05
9.1544668e-07
1.6775269e-05
9.5373017e-07
1.6493623e-05
9.8650591e-07
1.6204309e-05
1.0114653e-06
1.5910174e-05
1.0264974e-06
1.5614558e-05
1.0301287e-06
1.5320806e-05
1.0224336e-06
1.5031657e-05
1.0054931e-06
1.4748824e-05
9.8280143e-07
1.4472889e-05
9.5818585e-07
1.4203413e-05
9.3505703e-07
1.3939081e-05
9.1632229e-07
1.3677804e-05
9.045268e-07
1.3416683e-05
9.0235084e-07
1.3152117e-05
9.1220856e-07
1.2879667e-05
9.3694946e-07
1.2594807e-05
9.7714915e-07
1.2292181e-05
1.0346252e-06
1.194517e-05
1.1786759e-06
1.153129e-05
1.4165492e-06
1.1087306e-05
1.5380637e-06
1.0645904e-05
1.5306182e-06
1.0228603e-05
1.4430098e-06
9.8026286e-06
1.4616177e-06
9.4335126e-06
1.2440739e-06
9.0450484e-06
1.2598865e-06
8.8983783e-06
4.0659464e-07
-7.5807349e-07
8.8691424e-06
2.5842545e-05
1.1361559e-06
2.555021e-05
1.0717942e-06
2.526287e-05
1.0507211e-06
2.4978903e-05
1.0359476e-06
2.469571e-05
1.0313664e-06
2.4409263e-05
1.0419046e-06
2.4115929e-05
1.0662471e-06
2.3812476e-05
1.1032736e-06
2.349623e-05
1.1509555e-06
2.3165411e-05
1.2053515e-06
2.2819336e-05
1.2615216e-06
2.2458521e-05
1.3145455e-06
2.20846e-05
1.3604267e-06
2.1700275e-05
1.3957907e-06
2.130927e-05
1.417502e-06
2.0916031e-05
1.4233674e-06
2.0525036e-05
1.4134292e-06
2.0139959e-05
1.3905695e-06
1.9763107e-05
1.3596537e-06
1.9395269e-05
1.3260241e-06
1.9035864e-05
1.2944623e-06
1.8683119e-05
1.2690666e-06
1.8334215e-05
1.2534313e-06
1.7985226e-05
1.2513394e-06
1.7631307e-05
1.2661281e-06
1.7266471e-05
1.3017849e-06
1.6884683e-05
1.3589378e-06
1.6478436e-05
1.4408713e-06
1.6012326e-05
1.6447864e-06
1.5460323e-05
1.9685525e-06
1.4872191e-05
2.1261951e-06
1.4287632e-05
2.115178e-06
1.3734244e-05
1.9963971e-06
1.3167657e-05
2.0282055e-06
1.2672204e-05
1.7395266e-06
1.2139265e-05
1.7928255e-06
1.1922426e-05
6.2343392e-07
-7.3973649e-07
1.1904089e-05
3.4319786e-05
1.5402668e-06
3.3933894e-05
1.4576861e-06
3.3554142e-05
1.4304734e-06
3.3178194e-05
1.4118951e-06
3.2802786e-05
1.4067744e-06
3.2422822e-05
1.4218691e-06
3.2033758e-05
1.455311e-06
3.1631655e-05
1.5053764e-06
3.1213275e-05
1.5693355e-06
3.0776385e-05
1.6422417e-06
3.0319951e-05
1.7179553e-06
2.9844364e-05
1.7901332e-06
2.9351465e-05
1.853325e-06
2.8844591e-05
1.9026647e-06
2.8328547e-05
1.9335458e-06
2.7809183e-05
1.9427321e-06
2.7292434e-05
1.9301781e-06
2.6783192e-05
1.8998116e-06
2.6284536e-05
1.8583098e-06
2.5797534e-05
1.8130254e-06
2.5321428e-05
1.7705684e-06
2.4853855e-05
1.7366394e-06
2.4391041e-05
1.7162459e-06
2.3927717e-05
1.7146628e-06
2.3457409e-05
1.7364361e-06
2.2972099e-05
1.7870948e-06
2.2463784e-05
1.8672532e-06
2.1921948e-05
1.9827078e-06
2.1300517e-05
2.2662165e-06
2.0570372e-05
2.6986979e-06
1.9797645e-05
2.8989225e-06
1.9029704e-05
2.8831185e-06
1.8301751e-05
2.7243505e-06
1.7554551e-05
2.7754054e-06
1.6895693e-05
2.3983845e-06
1.6172342e-05
2.5161762e-06
1.5851973e-05
9.4380328e-07
-7.530637e-07
1.58653e-05
4.532765e-05
2.05047e-06
4.483982e-05
1.9455168e-06
4.435935e-05
1.9109435e-06
4.3882716e-05
1.8885285e-06
4.3405829e-05
1.883662e-06
4.2922343e-05
1.9053545e-06
4.2426688e-05
1.9509668e-06
4.1914154e-05
2.0179101e-06
4.138088e-05
2.1026095e-06
4.0824058e-05
2.1990631e-06
4.0242121e-05
2.2998924e-06
3.9635137e-05
2.3971174e-06
3.9005038e-05
2.4834238e-06
3.8355828e-05
2.551875e-06
3.7693616e-05
2.5957577e-06
3.7026038e-05
2.61031e-06
3.6360936e-05
2.5952798e-06
3.5704817e-05
2.5559306e-06
3.5061812e-05
2.5013151e-06
3.4433392e-05
2.4414453e-06
3.3818589e-05
2.385372e-06
3.3214267e-05
2.3409606e-06
3.2615373e-05
2.3151399e-06
3.2014805e-05
2.3152312e-06
3.1403849e-05
2.3473921e-06
3.077165e-05
2.4192934e-06
3.0107454e-05
2.5314499e-06
2.9396275e-05
2.6938867e-06
2.8578553e-05
3.0839379e-06
2.7622264e-05
3.6549868e-06
2.6614856e-05
3.9063312e-06
2.5612725e-05
3.8852495e-06
2.4661357e-05
3.6757184e-06
2.368145e-05
3.7553119e-06
2.281164e-05
3.2681946e-06
2.1837001e-05
3.4908148e-06
2.1368476e-05
1.4123286e-06
-8.3610219e-07
2.1451515e-05
5.9560343e-05
2.7003877e-06
5.8935798e-05
2.5700616e-06
5.8320285e-05
2.5264567e-06
5.7708352e-05
2.5004612e-06
5.7094788e-05
2.4972265e-06
5.6471902e-05
2.5282397e-06
5.5833058e-05
2.5898112e-06
5.5172807e-05
2.6781612e-06
5.4486674e-05
2.7887423e-06
5.3771205e-05
2.9145327e-06
5.3024123e-05
3.0469744e-06
5.2244974e-05
3.176266e-06
5.1435637e-05
3.292761e-06
5.06008e-05
3.3867123e-06
4.9748101e-05
3.4484562e-06
4.8887365e-05
3.4710462e-06
4.8028812e-05
3.4538326e-06
4.7180987e-05
3.4037558e-06
4.6349363e-05
3.3329392e-06
4.553594e-05
3.2548683e-06
4.47395e-05
3.1818116e-06
4.3955936e-05
3.1245252e-06
4.3178556e-05
3.0925194e-06
4.2397895e-05
3.0958921e-06
4.1602357e-05
3.1429301e-06
4.0777407e-05
3.2442433e-06
3.9908714e-05
3.4001437e-06
3.8975179e-05
3.6274207e-06
3.7902199e-05
4.1569179e-06
3.6656465e-05
4.9007214e-06
3.5351089e-05
5.2117075e-06
3.4051773e-05
5.1845653e-06
3.2816567e-05
4.9109239e-06
3.1541702e-05
5.0301775e-06
3.0402783e-05
4.4071138e-06
2.9108484e-05
4.7851137e-06
2.841903e-05
2.1017824e-06
-9.9682276e-07
2.857975e-05
0.00010679229
3.8232361e-06
0.00010569967
3.6626782e-06
0.00010462393
3.6021939e-06
0.00010355188
3.5725111e-06
0.00010247368
3.5754325e-06
0.00010137745
3.6244653e-06
0.000100253
3.7142661e-06
9.9092171e-05
3.8389875e-06
9.7888243e-05
3.9926707e-06
9.6635536e-05
4.1672391e-06
9.5329585e-05
4.3529258e-06
9.3968528e-05
4.5373234e-06
9.2554367e-05
4.7069219e-06
9.1094246e-05
4.8468333e-06
8.9600886e-05
4.941816e-06
8.8091255e-05
4.9806768e-06
8.658331e-05
4.9617779e-06
8.5092224e-05
4.8948423e-06
8.362784e-05
4.7973231e-06
8.219388e-05
4.6888278e-06
8.078831e-05
4.5873822e-06
7.9403846e-05
4.5089888e-06
7.8028441e-05
4.4679245e-06
7.6644922e-05
4.4794111e-06
7.5232141e-05
4.5557109e-06
7.376362e-05
4.7127644e-06
7.2212689e-05
4.9510743e-06
7.0538839e-05
5.3012709e-06
6.8620146e-05
6.0756107e-06
6.641349e-05
7.1073778e-06
6.4114529e-05
7.5106688e-06
6.1825408e-05
7.4736859e-06
5.9645238e-05
7.0910936e-06
5.7393992e-05
7.2814239e-06
5.536542e-05
6.4356854e-06
5.3049521e-05
7.1010132e-06
5.1633536e-05
3.517767e-06
-1.3174308e-06
5.1954144e-05
0.00013677394
5.182644e-06
0.00013544724
4.9893836e-06
0.00013413882
4.9106148e-06
0.00013283068
4.8806499e-06
0.00013151049
4.8956159e-06
0.00013016528
4.9696829e-06
0.0001287844
5.0951397e-06
0.00012735967
5.2637155e-06
0.00012588399
5.4683528e-06
0.00012435065
5.7005834e-06
0.00012275348
5.9500901e-06
0.00012108889
6.2019135e-06
0.0001193578
6.4380133e-06
0.0001175677
6.6369306e-06
0.00011573343
6.7760894e-06
0.00011387552
6.8385842e-06
0.00011201613
6.8211725e-06
0.00011017423
6.7367399e-06
0.00010836238
6.6091764e-06
0.00010658554
6.4656648e-06
0.00010484143
6.3314984e-06
0.00010312094
6.2294784e-06
0.00010140869
6.1801669e-06
9.9682403e-05
6.2057011e-06
9.7914462e-05
6.3236524e-06
9.6069794e-05
6.557432e-06
9.4113078e-05
6.90779e-06
9.1988606e-05
7.425743e-06
8.9555503e-05
8.5087146e-06
8.6779607e-05
9.8832738e-06
8.3899224e-05
1.0391051e-05
8.1026549e-05
1.0346362e-05
7.8288364e-05
9.8292784e-06
7.545795e-05
1.0111838e-05
7.2888779e-05
9.0048566e-06
6.9957574e-05
1.0032218e-05
6.7915945e-05
5.5593959e-06
-1.4575512e-06
6.8056066e-05
0.00017212401
6.7993473e-06
0.00017054241
6.5709811e-06
0.00016897871
6.4743125e-06
0.00016741012
6.4492403e-06
0.00016582198
6.4837605e-06
0.00016420059
6.5910747e-06
0.00016253544
6.7602819e-06
0.00016081861
6.9805505e-06
0.00015904263
7.2443328e-06
0.0001571996
7.5436089e-06
0.00015528144
7.8682531e-06
0.00015328256
8.2007889e-06
0.00015120271
8.5178731e-06
0.00014904973
8.7899062e-06
0.00014684065
8.9851679e-06
0.00014459961
9.0796225e-06
0.00014235294
9.0678423e-06
0.00014012348
8.9661997e-06
0.00013792661
8.8060502e-06
0.00013576869
8.6235876e-06
0.00013364724
8.452949e-06
0.00013155123
8.3254886e-06
0.00012946155
8.2698457e-06
0.00012734993
8.3173181e-06
0.0001251811
8.4924832e-06
0.00012290936
8.8291733e-06
0.00012048882
9.3283279e-06
0.00011784489
1.0069676e-05
0.00011481928
1.1534318e-05
0.00011139403
1.3308527e-05
0.00010785272
1.3932358e-05
0.00010431576
1.3883328e-05
0.00010094302
1.3202011e-05
9.7457891e-05
1.3596971e-05
9.4268617e-05
1.2194131e-05
9.0668537e-05
1.3632297e-05
8.7850598e-05
8.3773353e-06
-1.194923e-06
8.7587969e-05
0.00021366247
8.699609e-06
0.00021179683
8.4366168e-06
0.00020994648
8.3246683e-06
0.00020808407
8.311647e-06
0.00020619301
8.3748223e-06
0.00020425953
8.5245548e-06
0.00020227371
8.7460971e-06
0.00020022803
9.0262354e-06
0.00019811456
9.3578057e-06
0.00019592399
9.7341793e-06
0.00019364605
1.0146184e-05
0.00019127313
1.0573708e-05
0.00018880391
1.0987099e-05
0.00018624698
1.1346837e-05
0.00018362186
1.1610287e-05
0.00018095633
1.1745147e-05
0.00017828068
1.1743495e-05
0.00017562131
1.1625568e-05
0.00017299627
1.1431089e-05
0.00017041332
1.1206542e-05
0.00016786981
1.099646e-05
0.00016535266
1.0842639e-05
0.00016283865
1.0783856e-05
0.00016029266
1.0863306e-05
0.0001576704
1.1114742e-05
0.00015491327
1.1586305e-05
0.00015196247
1.2279125e-05
0.00014872048
1.3311674e-05
0.00014501372
1.5241072e-05
0.00014084964
1.7472608e-05
0.00013656077
1.8221231e-05
0.00013227309
1.8171008e-05
0.00012818273
1.7292373e-05
0.00012396634
1.7813352e-05
0.00012007011
1.6090366e-05
0.00011575994
1.7942468e-05
0.00011201444
1.2122833e-05
-3.2010595e-07
0.00011113962
0.00026236102
1.0879185e-05
0.00026021275
1.0584892e-05
0.00025807407
1.0463344e-05
0.00025591354
1.0472179e-05
0.00025371334
1.0575019e-05
0.00025146035
1.0777548e-05
0.00024914553
1.1060913e-05
0.00024676167
1.1410097e-05
0.00024430008
1.1819394e-05
0.00024174972
1.2284547e-05
0.00023909787
1.279803e-05
0.00023633489
1.3336693e-05
0.00023345885
1.3863139e-05
0.00023047982
1.4325864e-05
0.00022742045
1.4669659e-05
0.00022431229
1.4853308e-05
0.00022118918
1.4866599e-05
0.00021808054
1.4734212e-05
0.00021500664
1.4504988e-05
0.00021197642
1.4236761e-05
0.00020898701
1.3985868e-05
0.00020602311
1.3806534e-05
0.00020305693
1.3750045e-05
0.00020004541
1.3874825e-05
0.00019693353
1.422662e-05
0.00019364681
1.4873022e-05
0.00019011034
1.5815601e-05
0.00018619859
1.7223418e-05
0.00018172377
1.9715892e-05
0.00017673012
2.2466264e-05
0.00017160611
2.3345233e-05
0.0001664807
2.3296427e-05
0.00016158721
2.2185854e-05
0.0001565651
2.2835468e-05
0.00015187113
2.0784337e-05
0.00014681861
2.2994982e-05
0.00014202007
1.6921374e-05
1.3709572e-06
0.00014032901
0.0003193117
1.3305451e-05
0.0003169092
1.298739e-05
0.00031450644
1.2866106e-05
0.00031206878
1.2909839e-05
0.00030957823
1.3065565e-05
0.000307023
1.3332779e-05
0.00030439506
1.3688853e-05
0.00030168715
1.4118003e-05
0.00029888937
1.4617181e-05
0.00029598851
1.5185399e-05
0.00029296922
1.5817325e-05
0.00028982008
1.6485831e-05
0.00028653948
1.7143741e-05
0.00028314019
1.7725154e-05
0.00027964893
1.8160917e-05
0.00027610123
1.8401007e-05
0.00027253392
1.8433911e-05
0.00026897848
1.8289654e-05
0.00026545663
1.8026833e-05
0.00026197804
1.7715352e-05
0.00025853939
1.7424517e-05
0.00025512291
1.7223013e-05
0.00025169567
1.7177294e-05
0.00024820545
1.7365042e-05
0.00024458443
1.784764e-05
0.0002407386
1.8718853e-05
0.00023657272
1.9981481e-05
0.00023192754
2.1868592e-05
0.00022660115
2.5042283e-05
0.0002206883
2.8379113e-05
0.00021464386
2.9389672e-05
0.00020859783
2.9342462e-05
0.00020281742
2.796626e-05
0.00019692387
2.8729017e-05
0.00019134412
2.6364093e-05
0.00018553093
2.8808173e-05
0.00017958647
2.2865832e-05
4.0764783e-06
0.00017688095
0.00038567604
1.5985919e-05
0.00038300681
1.5656621e-05
0.00038032301
1.554991e-05
0.00037758819
1.5644654e-05
0.00037478537
1.5868384e-05
0.00037190469
1.6213462e-05
0.00036893902
1.6654521e-05
0.00036588055
1.7176473e-05
0.00036271759
1.7780141e-05
0.00035943448
1.8468507e-05
0.00035601321
1.9238599e-05
0.00035244152
2.0057518e-05
0.00034871982
2.0865447e-05
0.00034486553
2.1579439e-05
0.00034091075
2.2115693e-05
0.00033689507
2.2416691e-05
0.00033285737
2.247161e-05
0.00032882984
2.2317187e-05
0.00032483438
2.2022294e-05
0.00032088057
2.1669163e-05
0.00031696424
2.1340847e-05
0.00031306481
2.112244e-05
0.0003091437
2.1098402e-05
0.00030513847
2.1370275e-05
0.00030096651
2.2019598e-05
0.00029651064
2.3174723e-05
0.00029165084
2.4841279e-05
0.00028618913
2.7330309e-05
0.00027990982
3.1321592e-05
0.00027297408
3.5314853e-05
0.00026591496
3.6448794e-05
0.00025886285
3.6394571e-05
0.00025210703
3.4722075e-05
0.00024528287
3.5553177e-05
0.00023873334
3.2913627e-05
0.00023215519
3.5386321e-05
0.00022502875
2.9992269e-05
7.9871812e-06
0.00022111805
0.00046285373
1.8886968e-05
0.00045994788
1.8562478e-05
0.00045700913
1.848866e-05
0.00045399977
1.8654006e-05
0.00045090458
1.8963572e-05
0.00044771591
1.9402138e-05
0.00044442714
1.9943284e-05
0.00044102908
2.0574534e-05
0.00043750756
2.1301662e-05
0.00043384415
2.2131915e-05
0.00043001858
2.3064175e-05
0.00042601945
2.4056651e-05
0.0004218519
2.5032998e-05
0.00041754069
2.5890646e-05
0.00041312471
2.6531674e-05
0.00040864742
2.6893976e-05
0.00040414845
2.6970579e-05
0.00039965893
2.6806711e-05
0.00039519944
2.6481784e-05
0.00039077851
2.609009e-05
0.00038639053
2.5728834e-05
0.0003820116
2.550137e-05
0.00037759685
2.5513153e-05
0.00037307229
2.5894831e-05
0.00036833821
2.6753673e-05
0.00036324988
2.8263062e-05
0.00035765653
3.043462e-05
0.0003513161
3.3670744e-05
0.00034399721
3.8640482e-05
0.00033594378
4.3368282e-05
0.00032778347
4.4609103e-05
0.00031965187
4.4526169e-05
0.00031184134
4.2532602e-05
0.0003040421
4.3352422e-05
0.00029645542
4.0500307e-05
0.00028911789
4.272385e-05
0.00028083543
3.8274734e-05
1.3225523e-05
0.00027559708
0.0005523811
2.1966469e-05
0.00054928159
2.1661993e-05
0.00054612872
2.1641523e-05
0.00054288226
2.1900473e-05
0.00053952859
2.2317235e-05
0.00053606207
2.2868663e-05
0.00053247579
2.3529559e-05
0.00052875802
2.4292308e-05
0.00052489135
2.5168335e-05
0.0005208546
2.6168659e-05
0.00051662645
2.7292324e-05
0.00051219956
2.8483547e-05
0.00050758797
2.9644583e-05
0.00050282719
3.0651433e-05
0.00049796412
3.1394742e-05
0.00049304526
3.1812832e-05
0.00048810892
3.1906922e-05
0.00048318297
3.1732657e-05
0.00047828504
3.1379713e-05
0.00047342155
3.095358e-05
0.00046858466
3.0565726e-05
0.00046374657
3.0339458e-05
0.00045885539
3.0404339e-05
0.00045382434
3.0925881e-05
0.00044853409
3.2043917e-05
0.00044280778
3.3989372e-05
0.00043645673
3.6785679e-05
0.00042918989
4.093758e-05
0.00042075627
4.7074104e-05
0.00041149803
5.2626519e-05
0.00040215698
5.3950158e-05
0.00039288622
5.3796928e-05
0.00038395423
5.1464594e-05
0.00037515245
5.21542e-05
0.00036648668
4.9166074e-05
0.00035840536
5.0805165e-05
0.00034906365
4.761645e-05
1.9842232e-05
0.00034244694
0.00065600446
2.5112356e-05
0.00065281776
2.4848693e-05
0.00064955078
2.4908499e-05
0.00064616167
2.528959e-05
0.00064263867
2.5840227e-05
0.00063897723
2.6530105e-05
0.00063516866
2.733813e-05
0.00063119712
2.8263851e-05
0.00062704121
2.9324244e-05
0.00062267779
3.0532076e-05
0.00061808736
3.1882755e-05
0.00061327212
3.3298784e-05
0.00060826103
3.4655679e-05
0.00060310406
3.5808397e-05
0.0005978566
3.66422e-05
0.00059256602
3.7103412e-05
0.00058726634
3.7206603e-05
0.00058197965
3.7019349e-05
0.00057671905
3.6640314e-05
0.00057148784
3.618479e-05
0.00056627506
3.5778509e-05
0.00056104831
3.5566204e-05
0.00055574792
3.5704734e-05
0.00055027307
3.6400723e-05
0.00054448214
3.783485e-05
0.00053816125
4.0310262e-05
0.00053107484
4.3872092e-05
0.00052287816
4.9134255e-05
0.00051329323
5.6659032e-05
0.00050277292
6.3146829e-05
0.00049219666
6.4526417e-05
0.000481758
6.4235589e-05
0.00047166946
6.1553133e-05
0.00046186838
6.1955289e-05
0.00045212695
5.8907499e-05
0.00044333574
5.9596376e-05
0.00043310685
5.7845339e-05
2.7797931e-05
0.00042515115
0.00077557599
2.8264749e-05
0.00077236815
2.8056531e-05
0.00076905117
2.8225481e-05
0.00076557844
2.8762321e-05
0.00076193837
2.9480297e-05
0.00075812528
3.0343196e-05
0.00075412624
3.1337167e-05
0.00074991928
3.2470815e-05
0.00074547878
3.3764743e-05
0.00074078241
3.5228441e-05
0.00073581874
3.6846432e-05
0.00073060869
3.8508828e-05
0.00072520391
4.0060463e-05
0.00071967209
4.1340222e-05
0.00071407535
4.2238932e-05
0.00070845783
4.2720939e-05
0.00070284504
4.2819393e-05
0.00069725088
4.2613504e-05
0.00069168272
4.2208476e-05
0.00068613952
4.1727994e-05
0.00068060631
4.1311717e-05
0.00067504556
4.1126952e-05
0.00066938934
4.1360955e-05
0.00066352223
4.2267833e-05
0.00065727829
4.407879e-05
0.0006504031
4.7185454e-05
0.0006426052
5.1669994e-05
0.00063348345
5.8255999e-05
0.0006227233
6.7419184e-05
0.00061089295
7.4977179e-05
0.00059903263
7.6386735e-05
0.00058740978
7.5858439e-05
0.00057614856
7.2814357e-05
0.00056536432
7.2739525e-05
0.00055458735
6.9684473e-05
0.00054511892
6.9064801e-05
0.00053422848
6.8735784e-05
3.6981778e-05
0.00052504463
0.00091320067
3.1320384e-05
0.00091007799
3.1179215e-05
0.00090681111
3.1492363e-05
0.00090334683
3.2226604e-05
0.00089967132
3.3155798e-05
0.00089577367
3.4240854e-05
0.00089163267
3.5478163e-05
0.00088721767
3.6885814e-05
0.00088250019
3.8482224e-05
0.00087746585
4.0262777e-05
0.00087212336
4.2188924e-05
0.00086652624
4.4105956e-05
0.00086075716
4.5829534e-05
0.00085490184
4.7195547e-05
0.00084902366
4.8117114e-05
0.00084315646
4.8588139e-05
0.00083731275
4.8663099e-05
0.0008314967
4.8429554e-05
0.00082570882
4.7996359e-05
0.00081994259
4.7494226e-05
0.00081417834
4.7075961e-05
0.00080837312
4.6932173e-05
0.00080245063
4.7283448e-05
0.00079628097
4.8437496e-05
0.00078967273
5.0687022e-05
0.00078232896
5.4529231e-05
0.00077389322
6.0105734e-05
0.00076390616
6.8243056e-05
0.00075200374
7.9321603e-05
0.00073886054
8.8120386e-05
0.00072570033
8.9546944e-05
0.00071290989
8.8648877e-05
0.00070050373
8.5220515e-05
0.00068878165
8.4461606e-05
0.00067706241
8.1403715e-05
0.00066696157
7.9165634e-05
0.00065566868
8.0028674e-05
4.7209643e-05
0.00064544082
0.0010712906
3.4080908e-05
0.0010684703
3.3999493e-05
0.0010654704
3.4492244e-05
0.0010622228
3.5474165e-05
0.0010587041
3.6674541e-05
0.0010548895
3.8055436e-05
0.0010507432
3.9624497e-05
0.0010462232
4.1405752e-05
0.0010413041
4.3401322e-05
0.0010359958
4.5571085e-05
0.0010303486
4.7836134e-05
0.0010244669
4.9987723e-05
0.0010184696
5.1826744e-05
0.0010124543
5.3210877e-05
0.0010064738
5.4097675e-05
0.0010005424
5.4519504e-05
0.00099465688
5.4548613e-05
0.00098881078
5.4275653e-05
0.00098299645
5.381068e-05
0.00097720116
5.3289519e-05
0.00097140015
5.2876972e-05
0.00096554515