/*--------------------------------*- C++ -*----------------------------------*\
| =========                 |                                                 |
| \\      /  F ield         | OpenFOAM: The Open Source CFD Toolbox           |
|  \\    /   O peration     | Version:  2.4.0                                 |
|   \\  /    A nd           | Web:      www.OpenFOAM.org                      |
|    \\/     M anipulation  |                                                 |
\*---------------------------------------------------------------------------*/
FoamFile
{
    version     2.0;
    format      ascii;
    class       volSymmTensorField;
    location    "2000";
    object      Rx;
}
// * * * * * * * * * * * * * * * * * * * * * * * * * * * * * * * * * * * * * //

dimensions      [0 0 0 0 0 0 0];

internalField   nonuniform List<symmTensor> 
15296
(
(-3.5840339 -0.58514588 -9.0915249e-12 1.509531 9.3119499e-10 2.0745029)
(1.1734335 -0.28979466 -1.3170497e-12 -0.50730977 4.1381996e-11 -0.66612373)
(2.1120482 -0.29685317 2.6040803e-10 -0.91356146 2.4420957e-09 -1.1984868)
(2.5963325 -0.33347981 3.4691535e-12 -1.1248337 4.6355334e-10 -1.4714987)
(2.5179079 -0.37342712 3.6750727e-12 -1.0941536 7.4720371e-10 -1.4237543)
(1.7381995 -0.41120894 -2.3123103e-10 -0.76079644 5.00404e-11 -0.97740305)
(0.47630828 -0.43625179 -1.7845587e-12 -0.21861396 6.2654993e-10 -0.25769432)
(-0.9358891 -0.43209247 6.6328426e-13 0.3897901 3.3839654e-10 0.54609899)
(-2.126834 -0.39216999 -1.5257215e-13 0.90417109 2.8577612e-10 1.2226629)
(-2.9031903 -0.32893867 -9.5861864e-13 1.2405433 1.1003367e-10 1.662647)
(-3.3060597 -0.26413969 1.7399265e-10 1.4159935 3.1436612e-10 1.8900662)
(-3.4597217 -0.21376064 1.2433744e-13 1.4837698 2.1337223e-10 1.9759519)
(-3.4625062 -0.1838686 -5.9900941e-11 1.4861956 1.0028065e-10 1.9763106)
(-3.3652759 -0.17259701 -5.2118628e-11 1.4452382 7.9687589e-11 1.9200377)
(-3.1951183 -0.17308917 4.5481613e-11 1.3726363 1.3426496e-10 1.822482)
(-2.9764003 -0.17821794 1.9152577e-13 1.2789541 8.6594668e-11 1.6974462)
(-2.7378775 -0.1845329 -3.1566484e-14 1.1766325 7.150286e-11 1.561245)
(-2.505531 -0.19267747 -3.3000484e-14 1.0768992 8.6681269e-11 1.4286318)
(-2.2958057 -0.20539234 8.9571116e-15 0.98686392 7.7796396e-11 1.3089418)
(-2.1177527 -0.22673002 -6.7396682e-11 0.91044992 6.7532699e-11 1.2073027)
(-1.9789523 -0.26224208 -3.3487538e-11 0.85094993 5.9627016e-11 1.1280024)
(-1.8886669 -0.32031419 6.3415662e-15 0.81237836 6.8611986e-11 1.0762885)
(-1.8588385 -0.41213242 -3.3770754e-11 0.7999049 6.0599263e-11 1.0589336)
(-1.9072709 -0.55310607 -6.2683337e-14 0.82118658 5.9410874e-11 1.0860843)
(-2.0551442 -0.75994071 3.4654346e-11 0.88529902 7.3270975e-11 1.1698452)
(-2.3292636 -1.04796 -1.2488414e-13 1.0035579 6.8835276e-11 1.3257056)
(-2.7387746 -1.4191817 3.5410103e-11 1.1795414 8.0265625e-11 1.5592332)
(-3.2289624 -1.8118842 -3.0519886e-13 1.3886731 8.2874714e-11 1.8402893)
(-3.6943476 -2.0528978 -4.4663627e-13 1.5861585 7.7649006e-11 2.1081891)
(-3.1685963 -1.9578485 -2.8388068e-13 1.3585229 5.7036144e-11 1.8100733)
(-2.2165667 -1.2620073 -1.0371828e-13 0.95089997 3.4465271e-11 1.2656668)
(-1.6893001 -0.79036619 -2.8374034e-14 0.72539719 2.6984387e-11 0.96390288)
(-1.279297 -0.49854686 -5.8858492e-12 0.55024669 2.1267595e-11 0.72905027)
(-1.1010914 -0.37825906 8.8263581e-15 0.47404438 1.841641e-11 0.62704705)
(-0.75611404 -0.27210206 4.783537e-12 0.32550216 1.4928616e-11 0.43061188)
(-0.87849724 -0.5241921 6.5216366e-12 0.36236053 1.9687666e-11 0.51613671)
(3.4398874 -0.91661427 -1.8669424e-11 -1.662925 9.1312183e-12 -1.7769623)
(-17.591968 6.7431638 -1.025555e-10 23.352073 2.5784544e-10 -5.760105)
(-3.4440321 -1.3170145 -2.0065826e-11 1.559898 4.1466782e-10 1.884134)
(1.2152019 -0.69246874 1.567526e-11 -0.58452455 7.8685016e-11 -0.63067737)
(2.1760228 -0.6850405 -8.3721958e-12 -1.0431573 4.5698057e-10 -1.1328655)
(2.6755473 -0.75435781 7.8240986e-11 -1.2830281 8.6359996e-10 -1.3925191)
(2.5964545 -0.83300932 9.1428619e-11 -1.2460005 6.3843651e-10 -1.350454)
(1.7953666 -0.89898173 2.6087996e-12 -0.86321439 -8.2463071e-11 -0.93215222)
(0.49795549 -0.92163729 -1.8487247e-12 -0.24253044 2.5562029e-10 -0.25542505)
(-0.95441558 -0.86767633 5.8337773e-11 0.45262542 3.777299e-10 0.50179015)
(-2.1802733 -0.73604046 -4.8657337e-11 1.0395979 3.2875495e-11 1.1406754)
(-2.9811339 -0.56501092 3.5316658e-11 1.4233596 1.7747309e-10 1.5577743)
(-3.3985797 -0.40185591 2.9551202e-11 1.6237782 1.6881259e-10 1.7748015)
(-3.5595572 -0.27493079 -1.2035585e-12 1.7015214 9.0258253e-11 1.8580359)
(-3.5648298 -0.19169749 -8.0888965e-13 1.7047195 4.5137891e-11 1.8601102)
(-3.4666692 -0.14686074 -5.7265265e-13 1.6583049 5.096112e-11 1.8083643)
(-3.2929252 -0.12848478 1.5193816e-11 1.5755606 6.63768e-11 1.7173646)
(-3.0686881 -0.12445777 2.1637683e-13 1.4685087 4.4792781e-11 1.6001793)
(-2.8236007 -0.1276154 6.5653283e-14 1.3513893 4.4186085e-11 1.4722114)
(-2.5845755 -0.13657755 -2.3717214e-11 1.2371376 3.3107369e-11 1.3474379)
(-2.3687428 -0.15335081 -1.1581693e-11 1.1339943 3.2340665e-11 1.2347486)
(-2.1855766 -0.18215369 1.1156023e-11 1.0465281 3.621702e-11 1.1390485)
(-2.0430146 -0.22932199 2.3060906e-15 0.97857874 3.0659054e-11 1.0644359)
(-1.9507119 -0.30484148 5.5308256e-14 0.93481101 3.3460219e-11 1.0159009)
(-1.9210754 -0.42219179 7.2766851e-14 0.92121459 3.2091635e-11 0.99986085)
(-1.9724894 -0.59989448 -7.7555595e-14 0.94661566 3.1868486e-11 1.0258738)
(-2.12669 -0.85781115 -1.8141583e-13 1.0214081 3.6561291e-11 1.1052819)
(-2.4109828 -1.213087 -3.6988011e-13 1.1585221 3.3209293e-11 1.2524607)
(-2.8339792 -1.6670794 -6.342288e-13 1.3617597 3.8822023e-11 1.4722195)
(-3.3380814 -2.1420242 1.0788012e-11 1.6033415 4.2551916e-11 1.7347399)
(-3.8230978 -2.4228586 -1.2649356e-12 1.8388553 3.8349669e-11 1.9842425)
(-3.2630353 -2.3269343 -8.2040756e-13 1.5662015 2.6001779e-11 1.6968338)
(-2.2823547 -1.4592224 -3.155942e-13 1.0918505 1.7123969e-11 1.1905041)
(-1.7401578 -0.86925869 -8.6011408e-14 0.83108838 1.2931741e-11 0.90906939)
(-1.3196973 -0.51415894 -2.0141046e-12 0.63077496 9.7738964e-12 0.68892237)
(-1.1383606 -0.36689575 1.8144106e-14 0.54474775 8.3263711e-12 0.5936128)
(-0.78443044 -0.26585205 3.053947e-14 0.37637273 6.1048147e-12 0.40805771)
(-0.91507912 -0.62299748 3.7854344e-13 0.43562705 7.5676297e-12 0.47945207)
(2.9291053 -2.0186543 4.3260292e-12 -1.244836 -1.2657747e-11 -1.6842693)
(-12.131589 -19.077588 -6.8790506e-11 27.721899 -5.0641745e-11 -15.59031)
(-3.0993635 -2.0563089 2.7071354e-11 1.3774161 4.9901518e-10 1.7219474)
(1.2060633 -1.1338799 2.2021332e-11 -0.59407227 2.4359474e-11 -0.61199102)
(2.1315429 -1.0836538 -1.2767704e-12 -1.0386971 2.2484916e-10 -1.0928458)
(2.6187468 -1.1672904 -5.1839679e-12 -1.2754412 4.8793088e-10 -1.3433056)
(2.5399209 -1.2753621 -3.6596315e-14 -1.236723 3.712271e-10 -1.303198)
(1.7546818 -1.374501 9.1946889e-11 -0.85400088 2.8036834e-10 -0.90068088)
(0.48535013 -1.4138544 -7.8015684e-11 -0.2356982 -3.5651915e-11 -0.24965193)
(-0.93356491 -1.3393929 -3.6381409e-11 0.45504371 1.063886e-10 0.4785212)
(-2.1310966 -1.1482943 5.1301928e-11 1.0376668 1.0205125e-10 1.0934298)
(-2.9153806 -0.89792687 5.3212269e-13 1.419172 1.5279561e-10 1.4962086)
(-3.3266449 -0.65813565 -1.2491261e-13 1.6194454 1.0204141e-10 1.7071995)
(-3.4874503 -0.46942218 -2.8800812e-12 1.6981225 6.4373807e-11 1.7893277)
(-3.4954668 -0.34115066 -1.3342876e-12 1.7025605 5.4612335e-11 1.7929062)
(-3.4016696 -0.26519168 -5.0443675e-13 1.6573703 4.9043013e-11 1.7442993)
(-3.2332776 -0.22568531 -3.0866142e-15 1.575682 5.2232481e-11 1.6575956)
(-3.0148377 -0.20708905 2.7943158e-13 1.4694483 4.0285965e-11 1.5453894)
(-2.7753316 -0.1999443 -2.0398504e-15 1.3528617 4.2128198e-11 1.42247)
(-2.5413001 -0.20169172 -3.5552548e-14 1.2389319 3.1305548e-11 1.3023682)
(-2.3298007 -0.21382552 -6.7320563e-14 1.1360257 3.0706327e-11 1.1937751)
(-2.1503397 -0.24044252 1.3405703e-11 1.048817 3.5743457e-11 1.1015227)
(-2.0108816 -0.2881152 -2.8505135e-14 0.98123742 3.0705619e-11 1.0296442)
(-1.9210478 -0.36748987 6.8390357e-12 0.93803483 3.43127e-11 0.98301301)
(-1.8931423 -0.4931716 -6.6656483e-12 0.92527777 2.7067815e-11 0.96786452)
(-1.9452821 -0.68532155 -8.717921e-14 0.95184835 2.979239e-11 0.99343373)
(-2.0987394 -0.96593969 -7.2561101e-12 1.0281204 3.0002018e-11 1.070619)
(-2.3800795 -1.3540795 6.4964795e-12 1.1669278 3.536778e-11 1.2131517)
(-2.7968285 -1.852977 -8.0431278e-12 1.371577 3.495849e-11 1.4252515)
(-3.2898553 -2.3786762 -1.4258958e-12 1.6136894 3.9837112e-11 1.676166)
(-3.7599291 -2.7038987 -7.9070963e-12 1.8504199 3.5735543e-11 1.9095092)
(-3.1785268 -2.5678773 2.1483859e-12 1.5589197 2.8898233e-11 1.6196071)
(-2.2332968 -1.6033279 -4.7506467e-13 1.0879446 1.9070434e-11 1.1453522)
(-1.7079043 -0.96403874 1.2892981e-12 0.82939879 1.4796827e-11 0.8785055)
(-1.2989183 -0.57314075 -1.2742449e-12 0.63119034 1.1199836e-11 0.667728)
(-1.1232256 -0.4113939 1.0911093e-14 0.54669841 9.7013056e-12 0.57652715)
(-0.77828672 -0.29561772 9.861748e-13 0.38052002 7.132617e-12 0.3977667)
(-0.91679625 -0.71908042 4.6596654e-13 0.44586864 8.990911e-12 0.4709276)
(2.4359439 -2.164158 6.2386075e-12 -1.029861 -1.0704408e-11 -1.4060829)
(-14.238158 -3.1317214 -8.7330171e-11 40.210409 -3.0499455e-10 -25.972251)
(-2.8669667 -2.7375143 -3.0536903e-11 1.2624219 4.2945478e-10 1.6045448)
(1.232073 -1.5913067 2.7918307e-11 -0.62403815 3.1334346e-11 -0.60803483)
(2.1374043 -1.4938548 -3.709188e-11 -1.0615097 -2.2033956e-11 -1.0758946)
(2.6215293 -1.5975141 -8.0695116e-12 -1.2999823 2.4035872e-10 -1.321547)
(2.539577 -1.7393317 7.4631137e-11 -1.2580372 4.0257891e-10 -1.2815398)
(1.7505379 -1.8710584 -3.8134539e-11 -0.8651648 1.1533153e-10 -0.88537309)
(0.47949095 -1.9220081 5.6706469e-13 -0.23359909 -1.0136732e-10 -0.24589186)
(-0.93758075 -1.8194462 1.3728691e-12 0.46940505 1.7066414e-11 0.4681757)
(-2.1328949 -1.5610266 -3.8511787e-12 1.0615259 1.3174305e-10 1.071369)
(-2.9181495 -1.2242687 3.497474e-13 1.4501708 9.640575e-11 1.4679787)
(-3.3331851 -0.90173014 -4.4095257e-13 1.6557312 6.7541174e-11 1.6774539)
(-3.4983297 -0.64636376 -3.8976158e-12 1.7379134 5.5946579e-11 1.7604163)
(-3.5099646 -0.46997153 -1.8133354e-12 1.7442276 4.9470471e-11 1.7657369)
(-3.4188675 -0.36187341 6.7091619e-12 1.6995287 5.5002027e-11 1.7193387)
(-3.2522797 -0.3019753 2.1616959e-14 1.6171307 4.3403523e-11 1.635149)
(-3.0348008 -0.27064848 6.308318e-12 1.5092324 3.9973809e-11 1.5255685)
(-2.7953782 -0.25560579 1.3947916e-15 1.3903194 3.3510941e-11 1.4050588)
(-2.5608279 -0.25295271 5.0224808e-12 1.2738319 3.3130049e-11 1.286996)
(-2.3486072 -0.26383288 -4.0212049e-14 1.168524 2.7331507e-11 1.1800832)
(-2.1685427 -0.29262562 -1.5224452e-13 1.079335 3.1382666e-11 1.0892077)
(-2.0288667 -0.34675359 -4.8402637e-12 1.0104225 2.4047934e-11 1.0184442)
(-1.9394386 -0.43844848 9.9094611e-14 0.96676725 2.7845178e-11 0.97267138)
(-1.9127871 -0.58469918 9.5881256e-14 0.95469424 2.1392159e-11 0.95809284)
(-1.9672313 -0.80886371 -5.0096786e-12 0.98338672 2.3055352e-11 0.98384455)
(-2.1240956 -1.1367616 -3.2918142e-13 1.0634483 2.4634828e-11 1.0606473)
(-2.409837 -1.5900468 -5.7996145e-12 1.207899 2.9228695e-11 1.201938)
(-2.830792 -2.1732468 -6.3558659e-12 1.419393 2.6121383e-11 1.411399)
(-3.323811 -2.7839172 -1.9221359e-12 1.6677844 3.2569008e-11 1.6560266)
(-3.7785988 -3.1531027 1.7601776e-12 1.9055297 3.202261e-11 1.8730691)
(-3.1520625 -2.9454516 3.1868539e-12 1.5812664 2.574151e-11 1.5707961)
(-2.2331167 -1.8339878 -6.3596424e-13 1.1093791 1.7025742e-11 1.1237376)
(-1.7167052 -1.109858 -2.1209996e-13 0.84923018 1.359697e-11 0.86747504)
(-1.310365 -0.65846881 -1.3077908e-13 0.6486759 1.0323371e-11 0.66168906)
(-1.1368364 -0.47197651 -7.3315754e-13 0.56384278 8.9617861e-12 0.57299362)
(-0.79343937 -0.33594687 1.3015006e-14 0.3961726 6.4966055e-12 0.39726677)
(-0.94550346 -0.83727628 5.2881586e-13 0.47214683 8.3018653e-12 0.47335663)
(2.0738685 -2.7640454 6.7095258e-12 -0.91888445 -9.1608797e-12 -1.1549841)
(-11.188979 -6.8112996 -6.0675984e-11 31.416867 -3.0475023e-10 -20.227888)
(-2.6298398 -3.3659514 -3.4328243e-11 1.1127421 3.300426e-10 1.5170977)
(1.2532429 -2.0506119 5.911337e-11 -0.63922168 2.7452152e-10 -0.61402117)
(2.1284141 -1.9015624 3.2609044e-11 -1.0579388 1.2098586e-10 -1.0704753)
(2.6037969 -2.0244964 -1.9288509e-12 -1.2905066 1.9622353e-10 -1.3132904)
(2.5181174 -2.2002699 8.7946139e-13 -1.2456337 4.0197402e-10 -1.2724837)
(1.7301403 -2.3635406 1.2856095e-11 -0.85225626 1.2037305e-10 -0.87788407)
(0.46701448 -2.4247173 2.5678651e-12 -0.2238374 -5.4248634e-11 -0.24317708)
(-0.93606593 -2.2942846 3.934946e-12 0.47236294 6.5376283e-11 0.46370299)
(-2.118447 -1.971236 -1.968733e-11 1.0576005 2.4486688e-11 1.0608464)
(-2.8981173 -1.5519596 3.6113631e-13 1.4428955 7.7771149e-11 1.4552218)
(-3.3142906 -1.1498464 -5.1099699e-13 1.6487192 6.6389357e-11 1.6655714)
(-3.4834995 -0.82955408 -4.9973479e-12 1.7329337 4.4906555e-11 1.7505658)
(-3.4996187 -0.60560076 4.6026621e-12 1.741657 5.2035551e-11 1.7579617)
(-3.4126985 -0.46531917 -1.2306634e-11 1.6992041 4.351941e-11 1.7134945)
(-3.2497753 -0.38481935 5.0410879e-12 1.6186755 4.3494855e-11 1.6310998)
(-3.0353345 -0.34060676 4.9970574e-13 1.5122061 3.8319848e-11 1.5231283)
(-2.7980314 -0.31762148 -1.3582856e-14 1.3942011 3.2023575e-11 1.4038303)
(-2.5647945 -0.31064827 -1.3271326e-13 1.2782315 3.1530461e-11 1.286563)
(-2.3534367 -0.32051948 -3.9187022e-12 1.1732788 2.3717709e-11 1.1801579)
(-2.1741151 -0.35196141 -7.7803317e-12 1.0844805 2.4105298e-11 1.0896346)
(-2.0353438 -0.41336746 3.6531135e-12 1.0161708 2.3348034e-11 1.019173)
(-1.9472155 -0.51870448 1.247263e-13 0.97349157 2.3927789e-11 0.97372398)
(-1.922451 -0.68760672 8.8580857e-14 0.9629154 2.0378483e-11 0.95953563)
(-1.9794871 -0.94682751 -8.663075e-14 0.9937294 2.0642184e-11 0.98575773)
(-2.1395351 -1.3264135 -8.1486115e-12 1.0764754 2.0611073e-11 1.0630596)
(-2.4286815 -1.850306 -9.5921749e-13 1.2239309 2.447332e-11 1.2047507)
(-2.8515332 -2.5243501 -1.5353838e-12 1.4376052 2.3395074e-11 1.413928)
(-3.3400638 -3.2212392 -2.295428e-12 1.6858888 2.9190293e-11 1.6541749)
(-3.7656987 -3.6183488 -2.9552524e-12 1.9149431 2.9392942e-11 1.8507556)
(-3.091375 -3.3052706 -1.8218748e-12 1.5592071 2.2918277e-11 1.5321679)
(-2.2138975 -2.0599303 2.7397753e-13 1.1005611 1.6050266e-11 1.1133364)
(-1.7132487 -1.2609542 -2.7443483e-13 0.84649256 1.3080603e-11 0.8667561)
(-1.3138021 -0.75055415 -1.7468829e-13 0.6500491 1.003968e-11 0.66375297)
(-1.1446957 -0.53966894 5.5657413e-13 0.56801707 8.7946977e-12 0.57667864)
(-0.80681318 -0.37909074 -3.9630745e-15 0.40512849 6.321978e-12 0.40168469)
(-0.97651079 -0.94411357 1.2875639e-12 0.49504187 8.2637644e-12 0.48146893)
(1.7569761 -3.0988543 6.3437405e-12 -0.78077321 -8.1444411e-12 -0.9762029)
(-12.059304 -3.4349564 -5.3949154e-11 29.40173 -2.3988794e-10 -17.342426)
(-2.3561765 -4.0939861 2.6405051e-11 0.9343158 4.4680269e-10 1.4218607)
(1.2842861 -2.6425682 6.8979096e-11 -0.65876186 6.7550801e-10 -0.62552421)
(2.1194755 -2.4171954 -2.9218142e-11 -1.0524436 -5.8184237e-11 -1.0670319)
(2.5812891 -2.5492228 -2.6598603e-12 -1.2750365 6.2885572e-11 -1.3062526)
(2.4890046 -2.7562479 -5.2272297e-11 -1.2252779 2.5771987e-11 -1.2637266)
(1.7008402 -2.9514637 -2.0987924e-11 -0.83155887 1.5506116e-10 -0.86928129)
(0.4475512 -3.0211726 2.3973242e-11 -0.20892601 1.2989541e-10 -0.23862519)
(-0.93639569 -2.8562856 4.9461244e-12 0.47572666 4.9115171e-11 0.46066902)
(-2.1006851 -2.4586578 -5.0397125e-12 1.0494426 4.8309803e-12 1.0512425)
(-2.8726868 -1.9461442 1.9868994e-12 1.428912 5.9228964e-11 1.4437748)
(-3.2909136 -1.4542144 -3.0081369e-11 1.6347452 3.3353821e-12 1.6561684)
(-3.4664075 -1.0594614 -6.2271855e-12 1.7219172 3.6310582e-11 1.7444903)
(-3.4893055 -0.77882088 -2.5948591e-12 1.7343112 4.6859971e-11 1.7549943)
(-3.4085381 -0.59736106 4.8381997e-12 1.6953493 4.0087302e-11 1.7131888)
(-3.2508585 -0.48767605 1.1055481e-13 1.6177987 4.0690849e-11 1.6330598)
(-3.0406602 -0.4229232 6.0651824e-13 1.5137019 3.3234328e-11 1.5269583)
(-2.8062152 -0.3853847 -2.4219396e-14 1.3973163 3.0019473e-11 1.4088988)
(-2.5746352 -0.36808203 -8.3762104e-12 1.2823622 2.2820867e-11 1.292273)
(-2.3642763 -0.37077888 -1.8799412e-13 1.1781311 2.1580689e-11 1.1861452)
(-2.1858016 -0.39756618 -4.0946093e-12 1.0900398 1.7727914e-11 1.0957619)
(-2.0481646 -0.4565711 7.5542182e-12 1.0226741 2.455365e-11 1.0254905)
(-1.9618287 -0.56174843 1.0550131e-13 0.98140212 2.1458178e-11 0.98042659)
(-1.9398279 -0.73308974 8.0316243e-14 0.97290317 1.9478443e-11 0.96692472)
(-2.00082 -0.99776889 3.7644856e-12 1.0066134 2.1395887e-11 0.99420664)
(-2.1658978 -1.3868274 -4.4142822e-13 1.0930088 1.8362752e-11 1.072889)
(-2.4606748 -1.9241037 -5.1763485e-12 1.2445583 2.0066328e-11 1.2161165)
(-2.8871154 -2.616361 2.1458783e-12 1.4612094 2.5283434e-11 1.425906)
(-3.3693568 -3.3229704 1.1543443e-12 1.708533 2.9508653e-11 1.6608238)
(-3.746726 -3.6876428 -3.5136196e-12 1.9180227 2.6230191e-11 1.8287033)
(-3.0121273 -3.2580441 -2.13163e-12 1.5238549 2.0707591e-11 1.4882724)
(-2.1900207 -2.0365144 -9.571917e-13 1.086252 1.520628e-11 1.1037687)
(-1.7107227 -1.2637569 -3.5557233e-13 0.84150677 1.2573062e-11 0.86921597)
(-1.3206323 -0.75538905 1.1095774e-13 0.65108927 9.8213297e-12 0.66954302)
(-1.1577489 -0.54517915 2.5149198e-13 0.57290698 8.6889341e-12 0.58484193)
(-0.827257 -0.37646785 2.4932551e-13 0.41593575 6.2616103e-12 0.41132125)
(-1.0189205 -0.96774117 6.0118538e-13 0.51749457 8.3657381e-12 0.50142592)
(1.462341 -3.3468603 4.9247061e-12 -0.676004 -6.2872542e-12 -0.78633703)
(-13.750021 -3.4093076 -5.5678713e-11 29.62491 -1.9574402e-10 -15.87489)
(-2.0511762 -4.9240179 -1.7463449e-11 0.74556596 3.7356406e-10 1.3056102)
(1.3293323 -3.3838534 -6.7756949e-12 -0.69095409 3.9060099e-10 -0.63837825)
(2.1056425 -3.0634575 -3.5244669e-11 -1.0462623 -5.34037e-10 -1.0593802)
(2.5445408 -3.1954458 -8.314025e-13 -1.2529997 4.1145694e-11 -1.2915411)
(2.4406116 -3.4307433 5.3133036e-12 -1.1949548 -7.6585016e-11 -1.2456568)
(1.6521245 -3.6556989 -1.922958e-11 -0.79975573 9.6454583e-11 -0.85236874)
(0.41527428 -3.7276064 1.0243298e-12 -0.18540217 1.4513673e-10 -0.22987212)
(-0.93745565 -3.517262 3.419821e-12 0.48199581 2.4898747e-11 0.45545984)
(-2.0722978 -3.0326574 4.7187593e-12 1.0384416 6.507534e-11 1.0338562)
(-2.8310065 -2.4150755 1.2780059e-12 1.4090463 3.7096629e-11 1.4219602)
(-3.2511253 -1.8219427 -1.4374727e-11 1.6146529 -5.3334888e-11 1.6364724)
(-3.4354657 -1.3417127 -6.603122e-12 1.7060359 4.1042359e-11 1.7294298)
(-3.4682911 -0.99396689 -2.9452199e-12 1.7237143 3.9186727e-11 1.7445768)
(-3.3965532 -0.76168626 -1.1237756e-12 1.6897142 4.2338353e-11 1.706839)
(-3.2465265 -0.61421598 4.9046843e-14 1.6163264 3.2034033e-11 1.6302001)
(-3.0425611 -0.52163015 7.1874424e-13 1.5155159 3.02224e-11 1.5270452)
(-2.81252 -0.46348739 -1.7830898e-13 1.401401 2.6207032e-11 1.4111191)
(-2.5836817 -0.43060391 -4.1583548e-13 1.2878722 2.1307752e-11 1.2958095)
(-2.3750693 -0.42106171 -2.553347e-13 1.1846158 2.1563788e-11 1.1904535)
(-2.197989 -0.43758192 -2.6597988e-13 1.0974088 1.6357577e-11 1.1005801)
(-2.0619609 -0.48714546 -1.9078202e-14 1.0311615 2.2027872e-11 1.0307994)
(-1.9779221 -0.58248798 5.3845797e-14 0.99153145 1.95049e-11 0.98639061)
(-1.9592935 -0.74239712 1.3559915e-13 0.98545632 1.8359571e-11 0.97383717)
(-2.0250096 -0.99248149 2.5275721e-12 1.022573 2.2518749e-11 1.0024366)
(-2.1960158 -1.3626477 -6.2566796e-13 1.1132989 1.8279565e-11 1.0827169)
(-2.4974066 -1.875199 -1.366939e-12 1.2698129 1.8318977e-11 1.2275938)
(-2.9280124 -2.5378754 -2.2212137e-12 1.4902663 2.4189475e-11 1.4377461)
(-3.4021998 -3.2060211 -3.4761089e-12 1.7365614 2.6875651e-11 1.6656384)
(-3.7175931 -3.5121858 -4.2000721e-12 1.9182729 2.4048798e-11 1.7993203)
(-2.9295368 -2.9889454 -2.4921402e-12 1.4878694 1.8379495e-11 1.4416674)
(-2.1633283 -1.8713507 -1.1725368e-12 1.0722592 1.412108e-11 1.0910691)
(-1.7072719 -1.1753967 -4.5952496e-13 0.83773415 1.1982201e-11 0.86953774)
(-1.3283458 -0.70448682 -3.0615657e-13 0.65366414 9.4631246e-12 0.67468167)
(-1.1731982 -0.50935148 -8.2266925e-14 0.57979557 8.450432e-12 0.59340259)
(-0.85196517 -0.34234354 -7.1342054e-14 0.42922466 6.0973533e-12 0.42274051)
(-1.0704568 -0.93119582 1.1371461e-12 0.54408332 8.3161815e-12 0.52637351)
(1.166693 -3.4224884 5.6250627e-12 -0.561511 -4.6742793e-12 -0.60518203)
(-17.432968 -3.4633434 -6.1166268e-11 31.937952 -1.7394071e-10 -14.504983)
(-1.7535472 -5.7444874 1.489665e-11 0.56548023 3.4925194e-10 1.188067)
(1.384263 -4.1917437 2.3141882e-11 -0.7302845 1.4277868e-10 -0.65397849)
(2.0887184 -3.7794279 9.7326902e-12 -1.0382286 -2.273194e-10 -1.0504898)
(2.4951171 -3.9065087 1.1869155e-11 -1.2225582 3.9257888e-11 -1.2725589)
(2.3742987 -4.1655581 -1.8830694e-11 -1.152741 -7.7818989e-11 -1.2215577)
(1.5848056 -4.4117533 -2.1539335e-11 -0.75539197 3.3028448e-11 -0.82941365)
(0.36987936 -4.4738043 2.1489686e-11 -0.15239258 2.038454e-10 -0.21748678)
(-0.94150164 -4.2079009 5.0383045e-12 0.49179603 3.0582912e-11 0.44970561)
(-2.0373568 -3.6326314 -6.5659353e-12 1.0251348 8.6138353e-11 1.012222)
(-2.777629 -2.9107609 4.5204158e-12 1.3834159 6.4178997e-11 1.3942131)
(-3.1988873 -2.2170735 -6.3269389e-13 1.5878799 -2.6487539e-11 1.6110074)
(-3.3938379 -1.649853 -6.2933326e-12 1.6841403 3.0996226e-11 1.7096976)
(-3.4391073 -1.2319214 3.0507188e-12 1.7083513 4.3643507e-11 1.730756)
(-3.3787503 -0.94537023 -1.4481388e-12 1.6805711 3.5306203e-11 1.6981792)
(-3.2382938 -0.7570531 2.5310366e-12 1.6124068 3.3496349e-11 1.6258869)
(-3.0420263 -0.63421634 9.5527306e-13 1.5157043 2.9163967e-11 1.526322)
(-2.8175881 -0.55369667 -2.3594026e-12 1.4045309 2.3085931e-11 1.4130572)
(-2.5923598 -0.50399651 -5.269827e-13 1.2929214 2.1122172e-11 1.2994384)
(-2.3861044 -0.48147316 -4.1462613e-13 1.1910005 2.107963e-11 1.1951039)
(-2.2108592 -0.48748837 -3.4058801e-13 1.1049533 1.7021085e-11 1.1059059)
(-2.0768057 -0.52796729 3.7902036e-12 1.0400632 2.1283354e-11 1.0367425)
(-1.995436 -0.61458824 1.9097168e-12 1.0023208 2.0109361e-11 0.99311524)
(-1.9806166 -0.7652109 2.4079393e-13 0.99895169 1.6733256e-11 0.98166494)
(-2.051614 -1.0041962 -2.1281821e-12 1.0398242 1.8983824e-11 1.0117898)
(-2.229204 -1.3607861 -8.5106815e-13 1.1352692 1.707171e-11 1.0939348)
(-2.5379849 -1.8558717 -5.572136e-12 1.2971896 1.7074228e-11 1.2407953)
(-2.9733449 -2.4983372 -2.6397718e-12 1.5217493 2.18518e-11 1.4515956)
(-3.4393922 -3.1353789 -4.1686433e-12 1.767319 2.3643424e-11 1.6720732)
(-3.6870427 -3.386873 -3.3646364e-12 1.9169289 2.2424354e-11 1.7701138)
(-2.8572768 -2.7856253 -2.8635386e-12 1.4559454 1.6775537e-11 1.4013314)
(-2.1385431 -1.7511786 -1.3982095e-12 1.0588282 1.3474541e-11 1.079715)
(-1.7042823 -1.1110087 -5.7574612e-13 0.8342068 1.1627841e-11 0.87007555)
(-1.3368533 -0.66706092 -3.9190673e-13 0.6565965 9.2861031e-12 0.68025678)
(-1.1901909 -0.48226901 1.6735667e-13 0.58740402 8.3974008e-12 0.60278685)
(-0.87960986 -0.31180055 -1.2382707e-13 0.44433113 6.0888892e-12 0.43527873)
(-1.1301768 -0.8882552 6.0807072e-13 0.57744429 8.4690071e-12 0.55273255)
(0.92976095 -3.3716698 5.3943941e-12 -0.47136561 -2.6979208e-12 -0.45839533)
(-20.790329 -3.9776538 -7.0543274e-11 33.887903 -1.5717971e-10 -13.097574)
(-1.4560927 -6.5399978 1.7483572e-11 0.39224574 4.0554687e-10 1.063847)
(1.4451833 -5.0610855 2.1237149e-11 -0.77210728 2.0876425e-10 -0.67307602)
(2.0675891 -4.5636486 -2.6350025e-11 -1.027651 -5.7405394e-11 -1.0399381)
(2.4301328 -4.6780296 9.6282588e-12 -1.181754 -1.2383237e-11 -1.2483788)
(2.2860795 -4.9506501 -1.0627204e-11 -1.095679 -1.8910963e-10 -1.1904005)
(1.4952679 -5.2029199 -1.6140814e-11 -0.6956772 1.0577275e-10 -0.79959067)
(0.30910162 -5.2374042 1.2280673e-12 -0.10795125 1.6828599e-10 -0.20115037)
(-0.94948708 -4.9040215 1.5959004e-11 0.50620571 7.9102513e-11 0.44328137)
(-1.9958783 -4.2371402 -6.1657687e-12 1.0099462 3.0349042e-11 0.98593211)
(-2.7116628 -3.4171785 -2.9921804e-12 1.3518292 6.8445514e-11 1.3598336)
(-3.132519 -2.6292425 -8.3653047e-12 1.5536887 -1.8845947e-11 1.5788303)
(-3.3394628 -1.9778504 -6.4088739e-12 1.6551774 3.393821e-11 1.6842854)
(-3.3997211 -1.4892491 -3.8741439e-12 1.6871024 3.7872174e-11 1.7126188)
(-3.3533383 -1.1461381 -1.74422e-12 1.6668805 3.2029092e-11 1.6864579)
(-3.2246808 -0.91416014 9.6643065e-14 1.6051447 3.4651851e-11 1.6195361)
(-3.0378086 -0.75843519 -6.8268751e-13 1.5134941 2.5058895e-11 1.5243145)
(-2.8204458 -0.65338817 -1.9458282e-12 1.4060838 1.9266983e-11 1.414362)
(-2.5999268 -0.5851468 -6.2404358e-13 1.2970167 1.9337329e-11 1.3029101)
(-2.3968171 -0.54824904 -1.9258637e-12 1.1968911 1.8596262e-11 1.199926)
(-2.2239712 -0.54259028 -3.7692009e-13 1.1123447 1.7194069e-11 1.1116265)
(-2.0923345 -0.5729541 1.1876387e-13 1.0490852 2.0218913e-11 1.0432492)
(-2.0140452 -0.64985885 -1.4514742e-12 1.0134835 1.7731032e-11 1.0005617)
(-2.0034777 -0.79014086 2.0787133e-13 1.0130856 1.5905156e-11 0.99039204)
(-2.0802955 -1.0167785 -2.3472148e-13 1.0580308 1.6658223e-11 1.0222647)
(-2.2650867 -1.35829 -1.0381846e-12 1.1585529 1.6217787e-11 1.1065338)
(-2.582009 -1.8340278 -1.8759623e-12 1.3263314 1.6052361e-11 1.2556776)
(-3.0226984 -2.4541127 -1.6246846e-13 1.5554114 2.171238e-11 1.467287)
(-3.4804017 -3.0563658 -3.4948176e-12 1.8006964 2.352107e-11 1.6797053)
(-3.6528736 -3.2509365 -4.4762826e-12 1.9126815 2.1582188e-11 1.7401921)
(-2.7927651 -2.5897234 -3.2486143e-12 1.4268082 1.5511807e-11 1.3659568)
(-2.1149574 -1.636028 -2.0167447e-12 1.0453605 1.2756532e-11 1.0695969)
(-1.7016226 -1.0465397 -4.1241892e-13 0.83044833 1.1346883e-11 0.87117428)
(-1.3460042 -0.62872064 -4.8950177e-13 0.65956048 9.1550198e-12 0.68644376)
(-1.2084224 -0.45373788 -1.92641e-13 0.59524138 8.3733012e-12 0.61318103)
(-0.90958118 -0.27801313 -1.89857e-13 0.46036629 6.129898e-12 0.44921489)
(-1.197287 -0.82921248 5.7331729e-13 0.61540255 8.6607622e-12 0.58188447)
(0.71159186 -3.156289 5.2974774e-12 -0.37197101 -7.6680511e-13 -0.33962085)
(-24.502336 -4.627807 -8.1994243e-11 36.114718 -1.4530772e-10 -11.612382)
(-1.1988733 -7.306821 1.2493182e-11 0.25182099 3.8566561e-10 0.94705235)
(1.5071873 -5.9821236 -4.4608119e-12 -0.81273784 -1.3919665e-11 -0.69444944)
(2.0411021 -5.4113822 -3.8659113e-11 -1.0145832 -1.8781322e-10 -1.026519)
(2.3471473 -5.5035079 2.3463111e-11 -1.1303598 5.0631666e-11 -1.2167875)
(2.172747 -5.773528 1.5934418e-11 -1.0233086 -2.4711403e-10 -1.1494384)
(1.3810221 -6.009694 -1.1131582e-11 -0.62066359 8.9431796e-11 -0.76035853)
(0.23186008 -5.9941201 3.9511813e-13 -0.052910453 1.2565363e-10 -0.17894963)
(-0.96170069 -5.5813985 1.9161973e-12 0.52411227 9.0740081e-11 0.43758842)
(-1.947852 -4.8263651 -7.6645276e-12 0.99187181 1.5259256e-11 0.95598015)
(-2.632433 -3.9210063 -4.3279561e-12 1.3131848 4.9835298e-11 1.3192482)
(-3.0503955 -3.0517123 -1.8271755e-12 1.5106341 -1.7310784e-11 1.5397615)
(-3.2700404 -2.3242989 -6.0940573e-12 1.6174225 3.2226627e-11 1.6526179)
(-3.3476512 -1.7681269 -4.6336263e-12 1.6581908 3.8094925e-11 1.6894604)
(-3.318006 -1.3681977 -1.8862253e-12 1.6469932 2.6797313e-11 1.6710128)
(-3.2037042 -1.0906716 1.6581482e-14 1.5931023 3.0838913e-11 1.610602)
(-3.028249 -0.89964959 9.3064774e-13 1.507658 2.272874e-11 1.5205909)
(-2.8197522 -0.76779017 -4.9638355e-13 1.4050333 1.796703e-11 1.4147189)
(-2.6053495 -0.67896348 -7.1440938e-13 1.2993268 1.9116715e-11 1.3060227)
(-2.4064293 -0.62588137 -2.6989544e-12 1.2016232 1.6283593e-11 1.2048061)
(-2.2367478 -0.60690755 1.5998878e-12 1.1190584 1.7848227e-11 1.1176895)
(-2.1081299 -0.62561026 1.1946562e-13 1.0578222 1.8896106e-11 1.0503076)
(-2.0334676 -0.69123885 1.8211484e-12 1.0247228 1.7111823e-11 1.0087447)
(-2.0277187 -0.81946847 1.2956151e-12 1.0276679 1.688024e-11 1.0000508)
(-2.1110281 -1.0317253 -1.2822417e-12 1.0771187 1.5366684e-11 1.0339095)
(-2.3037809 -1.355636 -2.2920848e-12 1.1832058 1.5022307e-11 1.1205751)
(-2.6297793 -1.8089189 -2.1204464e-12 1.3574498 1.5632348e-11 1.2723295)
(-3.0765401 -2.4027979 -5.5524476e-12 1.5916192 1.979502e-11 1.4849208)
(-3.5257719 -2.9650967 -5.6628754e-12 1.8371366 2.1885271e-11 1.6886354)
(-3.6149942 -3.0989148 -6.2533305e-12 1.9053224 2.0157907e-11 1.7096718)
(-2.7345911 -2.3951453 -4.0778785e-12 1.3995964 1.3930848e-11 1.3349947)
(-2.0920272 -1.5214325 -1.9159166e-12 1.0315114 1.2182247e-11 1.0605158)
(-1.6991492 -0.97953341 -6.4227313e-13 0.8262467 1.1151873e-11 0.87290249)
(-1.3557161 -0.587766 -6.0360509e-13 0.66240263 9.0877268e-12 0.69331348)
(-1.2277939 -0.42232975 -4.2995109e-13 0.60310054 8.377891e-12 0.62469335)
(-0.94158834 -0.24010002 -4.2665659e-13 0.47694167 6.2124459e-12 0.46464667)
(-1.2705909 -0.75491126 1.0028378e-13 0.65603875 8.9011731e-12 0.6145522)
(0.51028772 -2.7854723 5.3224308e-12 -0.27525588 1.2400307e-12 -0.23503184)
(-27.238521 -5.1378518 -9.39824e-11 37.213224 -1.3383484e-10 -9.9747031)
(-0.99525127 -8.0896956 -3.0461076e-12 0.14730798 7.7369876e-11 0.84794329)
(1.5633943 -6.9346132 -4.1356834e-12 -0.84624383 -7.426514e-11 -0.71715045)
(2.0060958 -6.3132897 -2.5590762e-11 -0.99560774 3.7094625e-11 -1.010488)
(2.2428538 -6.3727901 1.964055e-11 -1.065358 2.8605122e-10 -1.1774959)
(2.031121 -6.6175054 1.6138998e-11 -0.93282381 -1.5663938e-10 -1.0982972)
(1.2403898 -6.8075978 -1.5640547e-12 -0.52861318 3.4528885e-11 -0.71177658)
(0.1379762 -6.7144187 2.8709858e-12 0.013386372 1.5725382e-10 -0.15136257)
(-0.9782952 -6.2100675 -6.7233854e-12 0.54601641 5.5843144e-13 0.43227879)
(-1.8940662 -5.3731228 -1.4234794e-11 0.97175977 -3.3862483e-11 0.92230638)
(-2.5405565 -4.3993908 -5.9780228e-12 1.268281 3.5139432e-11 1.2722755)
(-2.9521119 -3.4666801 -2.3222464e-12 1.4589502 -9.4118939e-13 1.4931617)
(-3.1840796 -2.6762252 -5.6097679e-12 1.5704544 2.6095421e-11 1.6136253)
(-3.2807874 -2.059359 -5.338831e-12 1.6207778 3.4192583e-11 1.6600096)
(-3.2705148 -1.6048694 1.9968901e-12 1.6199365 3.8333422e-11 1.6505783)
(-3.1732991 -1.2814275 2.0927837e-12 1.5753624 3.2266716e-11 1.5979367)
(-3.0116673 -1.0536122 9.3965848e-13 1.4974648 2.2035366e-11 1.5142025)