/*--------------------------------*- C++ -*----------------------------------*\
| =========                 |                                                 |
| \\      /  F ield         | OpenFOAM: The Open Source CFD Toolbox           |
|  \\    /   O peration     | Version:  2.4.0                                 |
|   \\  /    A nd           | Web:      www.OpenFOAM.org                      |
|    \\/     M anipulation  |                                                 |
\*---------------------------------------------------------------------------*/
FoamFile
{
    version     2.0;
    format      ascii;
    class       volVectorField;
    location    "2000";
    object      U;
}
// * * * * * * * * * * * * * * * * * * * * * * * * * * * * * * * * * * * * * //

dimensions      [0 1 -1 0 0 0 0];

internalField   nonuniform List<vector> 
15296
(
(1.2142031 5.8950878e-06 -8.788521e-15)
(1.214373 -1.9116771e-06 -1.7265892e-15)
(1.2149201 -3.5026643e-06 -1.0390957e-14)
(1.2156868 -4.4169863e-06 -6.485986e-15)
(1.216591 -4.4703983e-06 -5.9318184e-15)
(1.2173951 -3.3004463e-06 -1.5489213e-15)
(1.2178723 -9.6051702e-07 -4.9594824e-15)
(1.2177966 2.5435206e-06 -4.4633038e-15)
(1.2169341 7.0904372e-06 -3.612399e-15)
(1.2150959 1.2311055e-05 -4.8473629e-15)
(1.2121835 1.7699675e-05 -6.6165612e-15)
(1.208201 2.2791722e-05 -6.8154561e-15)
(1.2032318 2.7269228e-05 -5.931315e-15)
(1.1974086 3.0912439e-05 -6.3673765e-15)
(1.1909078 3.3521397e-05 -8.6438154e-15)
(1.1839489 3.4936326e-05 -7.1048887e-15)
(1.1767811 3.513702e-05 -6.7658884e-15)
(1.1696416 3.4316297e-05 -7.3372899e-15)
(1.1627098 3.2831999e-05 -7.0406766e-15)
(1.1560835 3.1090062e-05 -7.1494947e-15)
(1.1497789 2.9457052e-05 -6.7083778e-15)
(1.1437422 2.825228e-05 -7.1943979e-15)
(1.1378534 2.7768031e-05 -6.5234069e-15)
(1.1319303 2.8334511e-05 -6.5352571e-15)
(1.1257048 3.0296792e-05 -7.214065e-15)
(1.1188366 3.4081172e-05 -7.4471301e-15)
(1.1108622 3.9948162e-05 -8.6709546e-15)
(1.1013157 4.8169402e-05 -1.0168047e-14)
(1.0896174 6.5283522e-05 -1.2453592e-14)
(1.0723855 9.9536953e-05 -1.6833511e-14)
(1.0451944 0.00012444535 -1.9960125e-14)
(1.0163077 0.00012809441 -2.1590126e-14)
(0.98692216 0.00011855236 -2.1437184e-14)
(0.96188287 0.00011985608 -2.2403969e-14)
(0.93138478 8.7872686e-05 -2.0069453e-14)
(0.92119986 8.2327244e-05 -2.0542453e-14)
(0.89598703 -8.0804062e-05 -7.5896909e-15)
(0.97267245 0.0013673501 -1.0412178e-14)
(1.2141937 1.7135996e-05 -1.7573005e-14)
(1.2143682 -5.7384378e-06 -5.725856e-15)
(1.2149145 -1.0532159e-05 1.1915368e-15)
(1.2156798 -1.3306238e-05 -1.6145964e-14)
(1.2165825 -1.3515947e-05 -8.8406805e-15)
(1.2173856 -1.0066553e-05 -4.7981186e-15)
(1.2178624 -3.1148825e-06 -4.9920537e-15)
(1.2177875 7.3244732e-06 -7.8671263e-15)
(1.2169276 2.0894205e-05 -4.2371226e-15)
(1.2150944 3.6494644e-05 -1.3353387e-14)
(1.2121889 5.2614411e-05 -8.1604492e-15)
(1.2082144 6.7860358e-05 -1.154021e-14)
(1.2032532 8.1276055e-05 -1.4213429e-14)
(1.1974369 9.2199261e-05 -1.6352964e-14)
(1.1909414 0.00010002897 -1.8185246e-14)
(1.1839862 0.00010428678 -1.6332067e-14)
(1.1768201 0.00010491281 -1.6031442e-14)
(1.1696807 0.0001024836 -1.552713e-14)
(1.1627472 9.8068888e-05 -1.5158687e-14)
(1.1561175 9.2883067e-05 -1.6721354e-14)
(1.1498076 8.8024344e-05 -1.6101039e-14)
(1.1437632 8.4449888e-05 -1.6541554e-14)
(1.1378637 8.3036043e-05 -1.5249168e-14)
(1.1319259 8.4768132e-05 -1.5498738e-14)
(1.1256808 9.0671504e-05 -1.6074555e-14)
(1.1187878 0.00010199505 -1.7628683e-14)
(1.1107841 0.00011947746 -2.0531502e-14)
(1.1012085 0.00014376855 -2.5398665e-14)
(1.0894851 0.00019437132 -3.248356e-14)
(1.0721391 0.00029596733 -4.452541e-14)
(1.044961 0.00037049764 -5.4598685e-14)
(1.0162115 0.00038202068 -5.9496304e-14)
(0.98693936 0.00035426656 -5.9626307e-14)
(0.96197373 0.0003587862 -6.2849299e-14)
(0.93144626 0.00026336919 -5.6941497e-14)
(0.9210906 0.00023822751 -5.8855929e-14)
(0.8952089 -0.00029212878 -2.5270913e-14)
(0.96041908 -0.0028203203 6.1753457e-14)
(1.2141742 2.5065922e-05 -2.2772548e-14)
(1.214358 -8.9443391e-06 -7.7511337e-15)
(1.2149037 -1.6363247e-05 3.6288119e-15)
(1.2156673 -2.0679508e-05 -9.5572792e-15)
(1.2165679 -2.1020967e-05 -2.8866589e-15)
(1.2173689 -1.5688015e-05 -9.7704931e-15)
(1.2178441 -4.9222781e-06 -3.7848186e-15)
(1.2177687 1.1250983e-05 -2.3808363e-15)
(1.2169103 3.2278388e-05 -7.1851758e-15)
(1.2150814 5.6462257e-05 -1.3283199e-14)
(1.2121828 8.1469342e-05 -5.3811525e-15)
(1.2082168 0.00010514418 -1.3922598e-14)
(1.2032641 0.00012600104 -1.9929878e-14)
(1.1974553 0.00014300468 -2.1911002e-14)
(1.1909655 0.00015521339 -2.3363057e-14)
(1.1840143 0.00016187802 -2.1731653e-14)
(1.1768506 0.00016290157 -2.0576098e-14)
(1.1697117 0.00015917639 -2.1609373e-14)
(1.1627771 0.00015236236 -2.0763151e-14)
(1.1561445 0.00014434688 -2.2217443e-14)
(1.1498297 0.00013683998 -2.1939869e-14)
(1.143778 0.00013133342 -2.2371284e-14)
(1.1378681 0.00012919301 -2.0336832e-14)
(1.1319157 0.00013194932 -2.0751571e-14)
(1.125651 0.0001411888 -2.1236788e-14)
(1.1187329 0.0001588329 -2.420457e-14)
(1.110699 0.00018599125 -2.8158877e-14)
(1.1010915 0.00022352519 -3.5215531e-14)
(1.0893356 0.0003023153 -4.6229388e-14)
(1.0718649 0.00045971445 -6.455191e-14)
(1.0447021 0.00057430382 -7.9294363e-14)
(1.0160896 0.00059186074 -8.719705e-14)
(0.98693397 0.00054930341 -8.8154122e-14)
(0.96204266 0.00055772269 -9.3416535e-14)
(0.93149446 0.00041129762 -8.5821907e-14)
(0.92094248 0.00037614134 -8.9682294e-14)
(0.89458636 -0.00035293658 -4.6710234e-14)
(0.95636756 -0.004533586 8.4063156e-14)
(1.2141459 3.3053888e-05 -2.4428083e-14)
(1.2143423 -1.2580344e-05 -1.117701e-14)
(1.2148879 -2.2829222e-05 9.1080701e-15)
(1.2156493 -2.8840593e-05 -1.0676979e-14)
(1.2165471 -2.9315469e-05 -9.8101081e-16)
(1.2173449 -2.1878698e-05 -5.8747272e-15)
(1.2178172 -6.8691966e-06 -8.4232627e-15)
(1.2177402 1.5672008e-05 -4.7303985e-15)
(1.2168826 4.4973323e-05 -5.6699765e-15)
(1.2150581 7.8679614e-05 -1.4517413e-14)
(1.2121672 0.00011355531 -4.3994948e-15)
(1.2082108 0.00014660434 -1.6492605e-14)
(1.203268 0.00017575141 -2.4117508e-14)
(1.1974678 0.00019954021 -2.7380862e-14)
(1.1909846 0.00021664324 -2.892874e-14)
(1.184038 0.00022600618 -2.6947555e-14)
(1.1768769 0.00022749 -2.4758357e-14)
(1.1697388 0.00022233859 -2.6757615e-14)
(1.162803 0.00021286882 -2.5545211e-14)
(1.1561672 0.00020171799 -2.7012886e-14)
(1.1498468 0.00019127923 -2.7140342e-14)
(1.1437865 0.00018364206 -2.717683e-14)
(1.137864 0.00018071972 -2.5664744e-14)
(1.1318938 0.00018465198 -2.5734969e-14)
(1.1256048 0.00019764935 -2.6612901e-14)
(1.118655 0.00022238285 -2.9594486e-14)
(1.1105823 0.00026036676 -3.5591784e-14)
(1.100933 0.00031270665 -4.4805523e-14)
(1.0891286 0.00042339299 -5.9965521e-14)
(1.071494 0.00064279375 -8.273097e-14)
(1.0443474 0.00080051475 -1.0246e-13)
(1.0158931 0.00082441309 -1.1318613e-13)
(0.98687895 0.00076548734 -1.1527209e-13)
(0.96207354 0.00077895824 -1.225346e-13)
(0.93151715 0.00057695975 -1.1375928e-13)
(0.92072387 0.00053082331 -1.1973309e-13)
(0.89384641 -0.00042052876 -6.9371167e-14)
(0.9500948 -0.0071085089 6.6235915e-14)
(1.2141097 3.9981158e-05 -2.652366e-14)
(1.2143212 -1.6275266e-05 -1.3512028e-14)
(1.214867 -2.9198087e-05 8.8256957e-15)
(1.2156259 -3.685862e-05 -9.8472189e-15)
(1.21652 -3.7455292e-05 6.5183011e-15)
(1.2173137 -2.7938579e-05 -9.1883165e-15)
(1.217782 -8.7469495e-06 -1.1939475e-14)
(1.2177021 2.0056751e-05 -4.6752321e-15)
(1.2168446 5.7484961e-05 -4.104445e-15)
(1.2150242 0.0001005452 -1.5707787e-14)
(1.2121416 0.00014512988 -2.7585442e-15)
(1.2081958 0.00018742525 -1.8056215e-14)
(1.2032638 0.00022477404 -2.8076224e-14)
(1.1974731 0.00025529562 -3.0484954e-14)
(1.1909972 0.00027727108 -3.3448343e-14)
(1.1840556 0.00028933773 -3.0568023e-14)
(1.1768974 0.00029131237 -2.8588634e-14)
(1.1697601 0.00028478555 -3.0512943e-14)
(1.162823 0.00027272338 -2.9799429e-14)
(1.1561836 0.00025850567 -3.1091085e-14)
(1.1498568 0.00024520404 -3.2307452e-14)
(1.1437866 0.00023550305 -3.193016e-14)
(1.1378493 0.00023186063 -3.0470303e-14)
(1.1318578 0.00023701975 -3.0538549e-14)
(1.1255392 0.00025380113 -3.1249557e-14)
(1.1185507 0.0002856063 -3.4876513e-14)
(1.11043 0.00033431844 -4.2863151e-14)
(1.1007281 0.00040128719 -5.3615313e-14)
(1.0888571 0.00054409592 -7.1972844e-14)
(1.0710196 0.00082426234 -9.9461179e-14)
(1.0438915 0.0010228998 -1.2381914e-13)
(1.0156129 0.0010526836 -1.371637e-13)
(0.98676384 0.00097790805 -1.4044073e-13)
(0.96205431 0.00099736839 -1.4971014e-13)
(0.93150768 0.00074256776 -1.4020462e-13)
(0.92044381 0.0006915138 -1.4835211e-13)
(0.89308797 -0.00043569401 -9.2727426e-14)
(0.94570993 -0.0079540422 2.6454201e-14)
(1.2140536 4.78513e-05 -2.8962632e-14)
(1.214287 -2.1156835e-05 -1.0285485e-14)
(1.2148338 -3.7461708e-05 1.7363599e-14)
(1.2155887 -4.7220602e-05 -1.0150136e-14)
(1.2164772 -4.7952235e-05 1.4281249e-14)
(1.2172642 -3.5721948e-05 -6.2647044e-15)
(1.2177257 -1.1096036e-05 -1.6503523e-14)
(1.2176407 2.5824009e-05 -4.2554373e-15)
(1.2167822 7.3766559e-05 -6.5935688e-15)
(1.214967 0.00012892732 -1.7058207e-14)
(1.2120956 0.00018609314 1.0202935e-16)
(1.2081648 0.00024040547 -2.0709623e-14)
(1.2032482 0.00028845036 -3.1503365e-14)
(1.197471 0.00032778082 -3.6369337e-14)
(1.1910053 0.00035615097 -3.8404265e-14)
(1.1840707 0.00037178624 -3.5148919e-14)
(1.1769166 0.00037444442 -3.2521513e-14)
(1.1697805 0.00036616983 -3.5187998e-14)
(1.1628417 0.00035077667 -3.5140566e-14)
(1.156197 0.00033261537 -3.7041529e-14)
(1.1498609 0.0003156476 -3.7815913e-14)
(1.1437757 0.00030334085 -3.7542251e-14)
(1.1378161 0.00029886992 -3.616217e-14)
(1.1317923 0.00030576682 -3.6204512e-14)
(1.1254286 0.00032763779 -3.7485921e-14)
(1.1183808 0.00036881745 -4.1300736e-14)
(1.1101855 0.00043161217 -5.1528004e-14)
(1.1004014 0.00051778397 -6.4508151e-14)
(1.0884207 0.0007038562 -8.7203255e-14)
(1.0702753 0.0010623693 -1.2008314e-13)
(1.04318 0.0013106683 -1.4989194e-13)
(1.0151486 0.0013468673 -1.6651508e-13)
(0.9865409 0.0012523905 -1.7141583e-13)
(0.96196698 0.0012813 -1.8314953e-13)
(0.93145829 0.00096209715 -1.7316467e-13)
(0.92001781 0.00091126302 -1.8408197e-13)
(0.89206038 -0.00044948397 -1.2325048e-13)
(0.94079616 -0.008430782 -1.9481665e-14)
(1.2139655 5.581838e-05 -2.5533796e-14)
(1.2142297 -2.7572776e-05 5.2616724e-15)
(1.2147791 -4.7965602e-05 1.5224396e-14)
(1.2155286 -6.0292578e-05 -1.2774603e-14)
(1.2164083 -6.1143494e-05 1.4507293e-14)
(1.2171846 -4.5443252e-05 -5.8855353e-15)
(1.2176348 -1.3919708e-05 -1.3952186e-14)
(1.2175406 3.3255332e-05 -4.1080253e-15)
(1.2166789 9.4443565e-05 -6.9940685e-15)
(1.2148697 0.0001648465 -1.9089081e-14)
(1.2120133 0.00023790658 -2.5090395e-15)
(1.2081032 0.00030747428 -2.331729e-14)
(1.2032086 0.0003691719 -3.6217393e-14)
(1.1974508 0.00041980313 -4.111208e-14)
(1.1910006 0.00045641831 -4.4010858e-14)
(1.1840771 0.00047669787 -4.0315321e-14)
(1.1769303 0.00048031903 -3.7066033e-14)
(1.1697977 0.00046990505 -4.1895114e-14)
(1.1628583 0.00045035241 -4.1203709e-14)
(1.1562089 0.00042725247 -4.448615e-14)
(1.1498627 0.00040571024 -4.3879692e-14)
(1.1437608 0.00039020298 -4.4339785e-14)
(1.1377757 0.00038483136 -4.2794184e-14)
(1.1317145 0.0003941402 -4.2264616e-14)
(1.1252984 0.00042272909 -4.4574367e-14)
(1.1181813 0.00047610425 -4.9549616e-14)
(1.1098988 0.00055705477 -6.0957328e-14)
(1.1000173 0.00066790596 -7.6531464e-14)
(1.0879022 0.00091062781 -1.0520798e-13)
(1.0694209 0.00136722 -1.4454738e-13)
(1.0424067 0.0016739009 -1.8100895e-13)
(1.0146637 0.0017168838 -2.0179456e-13)
(0.98633543 0.0015984598 -2.0875544e-13)
(0.96192428 0.0016414831 -2.2360992e-13)
(0.93146436 0.001244828 -2.1352565e-13)
(0.91955188 0.0011992619 -2.2803924e-13)
(0.89077585 -0.00042868699 -1.6275926e-13)
(0.93625757 -0.0079725201 -7.4973912e-14)
(1.2138477 6.2667939e-05 -2.5459324e-14)
(1.2141478 -3.520001e-05 8.7992322e-15)
(1.2147018 -5.9795644e-05 1.9261257e-15)
(1.2154444 -7.483841e-05 -1.4412353e-14)
(1.2163124 -7.5725823e-05 1.7525672e-14)
(1.2170738 -5.6059979e-05 -4.0999917e-15)
(1.2175079 -1.6762211e-05 -1.4725797e-14)
(1.2174001 4.1882028e-05 -4.5177967e-15)
(1.2165323 0.00011781372 -4.2630814e-15)
(1.2147289 0.0002051717 -2.2074401e-14)
(1.2118904 0.00029597765 -8.3703391e-15)
(1.2080057 0.00038268625 -2.4641455e-14)
(1.2031385 0.00045983244 -4.0698831e-14)
(1.1974056 0.00052333342 -4.5952288e-14)
(1.1909755 0.00056939681 -5.0795111e-14)
(1.1840672 0.00059505634 -4.5438534e-14)
(1.1769309 0.00059988945 -4.1664446e-14)
(1.1698044 0.00058717504 -4.7731073e-14)
(1.1628665 0.00056303603 -4.6949696e-14)
(1.1562133 0.00053447191 -5.2101868e-14)
(1.1498574 0.00050789166 -5.042145e-14)
(1.1437385 0.00048892968 -5.128606e-14)
(1.1377263 0.00048274883 -4.9624722e-14)
(1.1316253 0.00049504929 -4.7854109e-14)
(1.1251529 0.0005315404 -5.1751386e-14)
(1.1179613 0.00059903423 -5.7790645e-14)
(1.109584 0.00070078235 -7.1060263e-14)
(1.0995954 0.00083987061 -8.973405e-14)
(1.0873257 0.001148462 -1.2420163e-13)
(1.0685056 0.0017132256 -1.7055892e-13)
(1.0416114 0.0020803387 -2.1397679e-13)
(1.014179 0.0021297948 -2.3914195e-13)
(0.98615039 0.0019854476 -2.4858897e-13)
(0.96191934 0.0020470577 -2.6683117e-13)
(0.93152738 0.0015693056 -2.5719934e-13)
(0.91910262 0.0015377147 -2.7569817e-13)
(0.88937012 -0.00040221114 -2.0733753e-13)
(0.93242783 -0.0073753328 -1.2913181e-13)
(1.2136938 6.8014315e-05 -2.0050309e-14)
(1.214034 -4.4300978e-05 1.5772236e-14)
(1.2145947 -7.3124933e-05 4.8843819e-15)
(1.2153288 -9.0953842e-05 -1.7010777e-14)
(1.2161813 -9.1726862e-05 1.7874723e-14)
(1.2169225 -6.7501267e-05 -5.5639286e-15)
(1.2173344 -1.9433134e-05 -6.8688345e-15)
(1.2172073 5.2013576e-05 -3.6900748e-15)
(1.2163298 0.00014429601 -1.6122689e-16)
(1.2145319 0.00025043841 -2.05064e-14)
(1.2117141 0.00036099479 -1.0298323e-14)
(1.2078603 0.00046693052 -2.7663959e-14)
(1.2030271 0.00056155407 -4.3567707e-14)
(1.1973257 0.00063972664 -5.1400831e-14)
(1.1909219 0.00069663915 -5.5785821e-14)
(1.1840339 0.00072855183 -5.0199394e-14)
(1.1769125 0.00073491644 -4.6530911e-14)
(1.1697955 0.00071975363 -5.4129631e-14)
(1.1628616 0.00069057652 -5.2779215e-14)
(1.1562064 0.00065598275 -5.9731064e-14)
(1.1498418 0.00062386841 -5.6587113e-14)
(1.1437057 0.00060119461 -5.786595e-14)
(1.1376657 0.00059434286 -5.707458e-14)
(1.1315226 0.00061033278 -5.4776059e-14)
(1.1249902 0.00065611055 -5.9462955e-14)
(1.1177189 0.00073994859 -6.6868962e-14)
(1.1092392 0.00086552739 -8.1714474e-14)
(1.099134 0.0010370121 -1.0366241e-13)
(1.0866871 0.001421812 -1.4414622e-13)
(1.0675324 0.0021053361 -1.9798959e-13)
(1.0407981 0.0025345124 -2.4880619e-13)
(1.0137006 0.0025904153 -2.7896614e-13)
(0.98599303 0.0024180049 -2.9124294e-13)
(0.96196202 0.0025034439 -3.131656e-13)
(0.93166496 0.0019415493 -3.0454929e-13)
(0.91870492 0.0019389281 -3.274776e-13)
(0.88788849 -0.00035111442 -2.5751888e-13)
(0.92913488 -0.0065840162 -1.8319082e-13)
(1.2134976 7.1626844e-05 -1.1781087e-14)
(1.2138792 -5.5158563e-05 2.6273083e-14)
(1.2144487 -8.8131984e-05 7.741634e-16)
(1.2151722 -0.00010867164 -2.1872489e-14)
(1.2160044 -0.00010905091 1.3063723e-14)
(1.2167189 -7.9524869e-05 8.3796678e-16)
(1.2171009 -2.153473e-05 -4.5585035e-15)
(1.2169474 6.4185818e-05 1.2590654e-15)
(1.2160556 0.00017453991 -7.053725e-16)
(1.2142623 0.0003014171 -2.018044e-14)
(1.2114686 0.00043390655 -1.5788745e-14)
(1.207652 0.00056141406 -2.7860428e-14)
(1.2028608 0.00067586583 -4.7887583e-14)
(1.1971991 0.00077085302 -5.6565729e-14)
(1.1908291 0.00084032345 -6.1130575e-14)
(1.1839682 0.0008795963 -5.5990071e-14)
(1.1768673 0.00088795591 -5.213862e-14)
(1.1697645 0.00087025875 -6.0641394e-14)
(1.1628382 0.00083559689 -5.9306223e-14)
(1.1561835 0.00079438776 -6.7669752e-14)
(1.1498116 0.0007562314 -6.3304841e-14)
(1.1436587 0.00072962044 -6.5766621e-14)
(1.1375898 0.0007223465 -6.4740042e-14)
(1.1314026 0.0007429539 -6.1636624e-14)
(1.1248062 0.00079978243 -6.7444196e-14)
(1.1174494 0.00090276983 -7.630354e-14)
(1.1088584 0.0010559941 -9.2450954e-14)
(1.0986249 0.0012652432 -1.178099e-13)
(1.0859734 0.0017387467 -1.6499697e-13)
(1.066492 0.0025529632 -2.2740551e-13)
(1.0399591 0.0030456703 -2.8649362e-13)
(1.0132267 0.0031082166 -3.2179398e-13)
(0.98586604 0.0029054392 -3.374507e-13)
(0.9620598 0.003021243 -3.6344172e-13)
(0.93189493 0.0023721703 -3.5645727e-13)
(0.91838891 0.0024194233 -3.8431394e-13)
(0.88638279 -0.00028299143 -3.1439024e-13)
(0.92609935 -0.0058806414 -2.3838142e-13)
(1.2132511 7.3484913e-05 -1.1403613e-15)
(1.2136725 -6.8045491e-05 2.4586948e-14)
(1.2142524 -0.00010505862 -6.5737411e-15)
(1.2149626 -0.00012805901 -2.179879e-14)
(1.2157687 -0.00012761397 5.3001176e-15)
(1.2164481 -9.1888621e-05 1.7416041e-15)
(1.2167912 -2.2676203e-05 2.6555325e-15)
(1.2166027 7.889225e-05 6.5356222e-15)
(1.215691 0.00020909052 1.7971663e-15)
(1.2139011 0.00035869928 -1.9458187e-14)
(1.2111349 0.00051541418 -1.9694691e-14)
(1.2073628 0.00066704809 -2.9565741e-14)
(1.2026228 0.0008039767 -4.9719692e-14)
(1.1970108 0.00091825793 -6.3078712e-14)
(1.1906841 0.0010023102 -6.6589097e-14)
(1.1838589 0.0010502978 -6.1411363e-14)
(1.176786 0.001061275 -5.7490077e-14)
(1.1697036 0.0010410372 -6.7117243e-14)
(1.1627898 0.001000467 -6.6332098e-14)
(1.1561394 0.00095205362 -7.5410834e-14)
(1.1497625 0.00090734982 -7.0076425e-14)
(1.1435942 0.00087661851 -7.3114951e-14)
(1.1374965 0.00086928557 -7.2207254e-14)
(1.1312638 0.0008956632 -6.9464666e-14)
(1.1246004 0.00096566274 -7.6268756e-14)
(1.1171537 0.0010911362 -8.6430786e-14)
(1.1084439 0.0012765169 -1.0462929e-13)
(1.0980721 0.001529993 -1.3342747e-13)
(1.085189 0.0021060893 -1.8735041e-13)
(1.0654038 0.0030631565 -2.5950464e-13)
(1.0391159 0.0036204 -3.2687899e-13)
(1.0127805 0.0036901577 -3.6795585e-13)
(0.98579202 0.0034545868 -3.8753656e-13)
(0.9622385 0.0036083279 -4.181112e-13)
(0.93225073 0.0028694927 -4.134244e-13)
(0.91821065 0.0029958207 -4.4672817e-13)
(0.88495652 -0.00017901161 -3.7875585e-13)
(0.92318772 -0.0053024393 -2.9577894e-13)
(1.2129426 7.3339694e-05 -6.9834487e-15)
(1.2134013 -8.3121888e-05 2.9681752e-14)
(1.2139921 -0.00012400102 1.3446289e-15)
(1.2146854 -0.00014894196 -7.8416932e-15)
(1.2154582 -0.00014698627 2.126751e-15)
(1.216093 -0.00010393965 4.5792149e-15)
(1.2163863 -2.2041075e-05 1.2822546e-14)
(1.2161534 9.7008488e-05 3.5745376e-15)
(1.2152152 0.00024877661 -5.2489231e-15)
(1.2134269 0.00042302268 -1.9887073e-14)
(1.2106912 0.00060620999 -2.2830067e-14)
(1.2069708 0.00078458462 -3.033303e-14)
(1.2022922 0.0009468065 -5.3319348e-14)
(1.1967413 0.0010830924 -6.3533184e-14)
(1.1904694 0.001183983 -7.0392595e-14)
(1.1836904 0.0012422241 -6.7049812e-14)
(1.1766549 0.0012565571 -6.1814452e-14)
(1.1696009 0.001233827 -7.3034004e-14)
(1.1627062 0.0011869375 -7.3446473e-14)
(1.1560652 0.001130726 -8.4045238e-14)
(1.1496872 0.0010789708 -7.720835e-14)
(1.1435058 0.0010439695 -8.1107328e-14)
(1.1373806 0.0010370298 -8.0930489e-14)
(1.1311026 0.0010705042 -7.7677755e-14)
(1.1243709 0.0011560597 -8.5237046e-14)
(1.1168315 0.0013077499 -9.6802136e-14)
(1.1079972 0.001530292 -1.1675286e-13)
(1.0974787 0.0018353791 -1.4934781e-13)
(1.0843387 0.0025283904 -2.1095262e-13)
(1.0642855 0.0036390375 -2.9326675e-13)
(1.0382852 0.0042604213 -3.699468e-13)
(1.0123784 0.004337986 -4.1748473e-13)
(0.98578609 0.0040671627 -4.4142332e-13)
(0.96251497 0.0042667408 -4.7696436e-13)
(0.93275765 0.0034364743 -4.7535876e-13)
(0.9182247 0.0036776191 -5.1448715e-13)
(0.88375887 -2.7778002e-05 -4.506252e-13)
(0.92032417 -0.004971139 -3.5567358e-13)
(1.2125607 7.1130698e-05 -7.9071063e-15)
(1.2130498 -0.00010049439 2.6855768e-14)
(1.2136504 -0.00014502502 8.4756652e-16)
(1.2143223 -0.00017105781 -1.4504612e-14)
(1.2150534 -0.00016658691 -2.2715503e-15)
(1.2156326 -0.00011482905 7.3649377e-15)
(1.2158642 -1.860308e-05 6.2174328e-15)
(1.2155762 0.00011960369 6.0503129e-15)
(1.2146045 0.00029459181 -2.2544517e-15)
(1.2128151 0.00049526264 -2.2129006e-14)
(1.2101124 0.000707106 -2.7629084e-14)
(1.2064508 0.00091489644 -3.0839343e-14)
(1.2018442 0.0011054245 -5.5518423e-14)
(1.196367 0.0012667124 -6.5452647e-14)
(1.1901631 0.0013870025 -7.3983633e-14)
(1.1834433 0.0014572944 -7.1902425e-14)
(1.176457 0.0014759038 -6.7714578e-14)
(1.1694417 0.001450837 -7.988899e-14)
(1.1625747 0.0013972693 -8.0233363e-14)
(1.15595 0.0013326907 -9.160192e-14)
(1.1495762 0.0012734077 -8.4249128e-14)
(1.1433857 0.0012340513 -8.9347242e-14)
(1.1372357 0.00122809 -8.8760698e-14)
(1.1309139 0.0012702326 -8.7073941e-14)
(1.124114 0.001374101 -9.4473601e-14)
(1.1164808 0.0015563028 -1.076895e-13)
(1.1075176 0.0018217371 -1.2938074e-13)
(1.0968455 0.0021871452 -1.6718125e-13)
(1.0834253 0.0030120567 -2.3611007e-13)
(1.0631489 0.004286002 -3.2977472e-13)
(1.037478 0.0049701528 -4.1539714e-13)
(1.0120323 0.0050563588 -4.7039169e-13)
(0.98586121 0.0047476326 -4.9918829e-13)
(0.96290457 0.0050013072 -5.4018655e-13)
(0.93344014 0.0040779647 -5.423991e-13)
(0.918478 0.0044766224 -5.8764516e-13)
(0.88294608 0.00019716958 -5.3031504e-13)
(0.91745267 -0.0048518035 -4.1891646e-13)
(1.2120901 6.7254492e-05 3.570963e-15)
(1.2125989 -0.00011991847 1.5991819e-14)
(1.2132061 -0.00016803737 6.2467379e-15)
(1.2138502 -0.00019388083 -2.6341222e-15)
(1.2145297 -0.00018543163 -3.1587725e-15)
(1.2150407 -0.00012321626 -2.8735275e-15)
(1.2151976 -1.0800498e-05 -8.9706744e-16)
(1.2148434 0.00014829696 3.4269843e-16)
(1.2138306 0.00034808784 -1.1901417e-15)
(1.2120369 0.00057686994 -2.5577907e-14)
(1.2093687 0.00081952341 -2.5457844e-14)
(1.2057723 0.0010595261 -3.1391988e-14)
(1.2012484 0.0012816714 -6.0567598e-14)
(1.1958587 0.0014713895 -6.686281e-14)
(1.1897383 0.0016141168 -7.7995813e-14)
(1.1830932 0.0016986894 -7.490239e-14)
(1.1761709 0.0017228307 -7.3372129e-14)
(1.1692075 0.0016958047 -8.5947454e-14)
(1.1623795 0.0016353316 -8.6691514e-14)
(1.1557803 0.001561897 -9.845979e-14)
(1.1494181 0.0014946851 -9.2543253e-14)
(1.1432243 0.0014510152 -9.8249662e-14)
(1.1370536 0.0014468542 -9.7083594e-14)
(1.1306912 0.0014996625 -9.6268861e-14)
(1.1238245 0.0016252654 -1.0440383e-13)
(1.1160979 0.0018432979 -1.1878669e-13)
(1.1070025 0.002158739 -1.4300721e-13)
(1.0961708 0.0025955324 -1.8493255e-13)
(1.0824492 0.0035693802 -2.628613e-13)
(1.0620015 0.0050169319 -3.6851788e-13)
(1.0367045 0.0057622603 -4.6409104e-13)
(1.0117564 0.0058589319 -5.2720757e-13)
(0.98603691 0.0055090162 -5.61638e-13)
(0.96343262 0.0058261104 -6.0860046e-13)
(0.93433575 0.0048070458 -6.1556762e-13)
(0.91902109 0.0054130677 -6.6735595e-13)
(0.88268575 0.00052959428 -6.1917454e-13)
(0.91452341 -0.0049856574 -4.8709968e-13)
(1.2115041 6.0775547e-05 -1.1541165e-15)
(1.2120259 -0.00014070095 2.5490279e-14)
(1.2126334 -0.00019276096 9.386344e-15)
(1.2132413 -0.00021672388 1.5848635e-15)
(1.2138576 -0.00020231464 -2.1511391e-15)
(1.2142869 -0.00012757207 -4.6069526e-15)
(1.2143558 3.0222635e-06 -2.1294624e-15)
(1.2139245 0.00018467407 -4.1013128e-15)
(1.212863 0.00041065278 -1.2926395e-15)
(1.2110611 0.00066900494 -2.4028261e-14)
(1.2084275 0.00094445959 -2.6699075e-14)
(1.2049012 0.0012194462 -3.4208496e-14)
(1.2004698 0.0014766766 -6.1336754e-14)
(1.1951817 0.0016985699 -7.0512748e-14)
(1.1891618 0.0018671816 -8.2154061e-14)
(1.1826098 0.0019686846 -7.7944724e-14)
(1.1757694 0.0019999814 -8.03581e-14)
(1.1688745 0.0019716612 -9.2049033e-14)
(1.1620999 0.0019042687 -9.4807313e-14)
(1.1555384 0.0018216481 -1.0562513e-13)
(1.1491977 0.0017462494 -1.0118945e-13)
(1.1430089 0.0016984849 -1.0716325e-13)
(1.1368244 0.0016972151 -1.0598173e-13)
(1.1304271 0.0017631221 -1.0678388e-13)
(1.1234981 0.001914545 -1.1423855e-13)
(1.1156816 0.0021747152 -1.3017099e-13)
(1.1064542 0.0025486857 -1.5696871e-13)
(1.0954609 0.0030701859 -2.0194961e-13)
(1.0814253 0.0042104244 -2.9018328e-13)
(1.0608686 0.0058409552 -4.0921987e-13)
(1.0359916 0.0066455878 -5.1630275e-13)
(1.0115781 0.0067541978 -5.8823525e-13)
(0.98634262 0.0063607204 -6.2911322e-13)
(0.96413274 0.0067506599 -6.8267828e-13)
(0.93548886 0.0056324873 -6.9536351e-13)
(0.91990995 0.006498525 -7.5400691e-13)
(0.88321238 0.0010206212 -7.1789364e-13)
(0.91158105 -0.0054785987 -5.6147786e-13)
(1.2106433 4.5178393e-05 3.0021394e-15)
(1.211164 -0.00016464859 1.479461e-14)
(1.211762 -0.00022297097 1.2223135e-15)
(1.2123145 -0.00024254564 2.8433208e-15)
(1.2128406 -0.00021767036 -3.6471865e-16)
(1.2131561 -0.00012514625 -2.3037465e-14)
(1.2131047 2.9501501e-05 -1.9698312e-14)
(1.2125696 0.0002397829 3.465639e-16)
(1.2114416 0.00049820026 -2.8990538e-15)
(1.2096246 0.0007930355 -3.0760232e-14)
(1.2070304 0.0011094958 -2.8485281e-14)
(1.2035904 0.0014291301 -3.5195547e-14)
(1.1992781 0.0017321479 -6.5716086e-14)
(1.1941263 0.001996887 -7.3121373e-14)
(1.1882468 0.0022006582 -8.6595711e-14)
(1.1818297 0.0023258022 -8.1719932e-14)
(1.1751119 0.0023679083 -8.6643783e-14)
(1.1683224 0.0023391865 -9.9482499e-14)
(1.1616329 0.0022638576 -1.0368344e-13)
(1.1551349 0.0021702033 -1.1514862e-13)
(1.1488359 0.0020850518 -1.1292318e-13)
(1.1426667 0.0020330249 -1.1698127e-13)
(1.1364778 0.0020369713 -1.1630601e-13)
(1.1300501 0.0021220321 -1.1883214e-13)
(1.1230572 0.0023100115 -1.2755168e-13)
(1.1151433 0.0026290747 -1.4489344e-13)
(1.1057645 0.0030846837 -1.7435859e-13)
(1.0945827 0.0037260765 -2.2326259e-13)
(1.0801733 0.0050843411 -3.2450687e-13)
(1.059569 0.0069377915 -4.6083464e-13)
(1.0352458 0.0078073285 -5.820574e-13)
(1.0115035 0.0079292949 -6.65813e-13)
(0.98688547 0.0074842811 -7.1548256e-13)
(0.96519635 0.0079696616 -7.7755606e-13)
(0.93720542 0.006733102 -7.9841683e-13)
(0.92141111 0.0079519368 -8.6544476e-13)
(0.88506282 0.0018647392 -8.4666172e-13)
(0.9081926 -0.0063604423 -6.596822e-13)
(1.209443 2.2430289e-05 9.3643231e-15)
(1.2099381 -0.00018822603 2.9824189e-14)
(1.2105053 -0.00025337785 2.0890273e-14)
(1.2109784 -0.00026486856 1.0199021e-14)
(1.211387 -0.00022345606 -9.4167561e-15)
(1.2115608 -0.00010749708 -2.1658347e-14)
(1.2113647 7.5994125e-05 -1.1858096e-14)
(1.210707 0.00031865969 2.5715551e-15)
(1.2094999 0.00061262402 -3.4891843e-15)
(1.2076597 0.00094727937 -3.3408243e-14)
(1.205102 0.0013092805 -2.4353971e-14)
(1.2017526 0.0016797991 -3.6611354e-14)
(1.1975731 0.0020364411 -6.6037646e-14)
(1.1925824 0.0023526139 -7.7172193e-14)
(1.1868789 0.002599661 -8.7783898e-14)
(1.1806405 0.0027549633 -8.6726192e-14)
(1.1740929 0.0028121935 -9.2008903e-14)
(1.1674558 0.0027852238 -1.047691e-13)
(1.1608951 0.0027024574 -1.1050798e-13)
(1.1544998 0.0025974176 -1.2451017e-13)
(1.1482774 0.0025022116 -1.2462744e-13)
(1.1421598 0.002446666 -1.2711873e-13)
(1.1359974 0.0024586846 -1.273395e-13)
(1.1295708 0.0025691296 -1.3185341e-13)
(1.1225468 0.0028043572 -1.4157814e-13)
(1.1145702 0.0031989393 -1.6264485e-13)
(1.1050727 0.0037596243 -1.9254298e-13)
(1.0937313 0.0045557842 -2.4735128e-13)
(1.0789971 0.0061675913 -3.6139479e-13)
(1.0584875 0.0082650535 -5.1572135e-13)
(1.0348128 0.0092038573 -6.564741e-13)
(1.0117892 0.0093468018 -7.5456367e-13)
(0.98786546 0.0088369663 -8.1570838e-13)
(0.96679227 0.0094306687 -8.8792314e-13)
(0.93963015 0.0080640576 -9.1951232e-13)
(0.92368067 0.0096795215 -9.9607447e-13)
(0.8887432 0.0031879045 -9.9989241e-13)
(0.90523698 -0.0069958759 -7.8265045e-13)
(1.2079844 4.5091606e-06 3.9995712e-15)
(1.2084426 -0.00020684605 1.0421699e-14)
(1.2089625 -0.00027632999 1.4477526e-14)
(1.2093418 -0.00027576687 5.6802682e-15)
(1.2096222 -0.00021380069 -1.0929763e-15)
(1.2096493 -7.1818462e-05 -2.2447078e-14)
(1.2093084 0.00014119349 -5.7939818e-15)
(1.2085306 0.00041526553 6.6438087e-16)
(1.2072447 0.00074288433 -1.0423728e-14)
(1.205377 0.0011152628 -3.117968e-14)
(1.2028461 0.0015211007 -3.5439228e-14)
(1.199575 0.0019416123 -3.9805758e-14)
(1.1955179 0.0023519779 -6.3929439e-14)
(1.1906849 0.0027205807 -7.830874e-14)
(1.1851648 0.0030125938 -8.7838272e-14)
(1.1791232 0.0032002257 -9.1350297e-14)
(1.1727719 0.0032749911 -1.0023052e-13)
(1.1663174 0.0032521574 -1.1280001e-13)
(1.1599167 0.0031640938 -1.2033274e-13)
(1.1536544 0.0030495099 -1.307644e-13)
(1.1475378 0.0029458973 -1.3356391e-13)
(1.1415009 0.0028886081 -1.3722678e-13)
(1.1353951 0.0029110391 -1.3813841e-13)
(1.1290026 0.0030505046 -1.4317899e-13)
(1.1219849 0.0033384583 -1.5175176e-13)
(1.1139874 0.0038171697 -1.7733596e-13)
(1.104417 0.0044945683 -2.0876635e-13)
(1.0929642 0.0054637662 -2.6882737e-13)
(1.0779799 0.0073355478 -3.9503081e-13)
(1.0576436 0.0096661633 -5.6966801e-13)
(1.034637 0.010666925 -7.2874852e-13)
(1.0123285 0.010835836 -8.4242826e-13)
(0.98912377 0.010253598 -9.162353e-13)
(0.96869332 0.010953148 -9.9913957e-13)
(0.94247637 0.0094653962 -1.0424631e-12)
(0.92638901 0.011429642 -1.1281186e-12)
(0.89362811 0.0048230945 -1.1569408e-12)
(0.90336592 -0.0070411281 -9.1816332e-13)
(1.2062157 -8.6347417e-06 1.3387811e-15)
(1.2066335 -0.0002191791 4.3780574e-15)
(1.2070946 -0.00028897593 8.4775196e-15)
(1.2073694 -0.00027231934 8.9784124e-15)
(1.2075151 -0.00018617795 -1.2826849e-15)
(1.2073954 -1.6108057e-05 -1.1924605e-14)
(1.2069145 0.00022668813 -9.029142e-16)
(1.2060223 0.00053110445 -3.9127876e-16)
(1.2046603 0.00089071723 -9.1504074e-15)
(1.2027619 0.0012990987 -2.4682631e-14)
(1.2002484 0.0017473725 -3.3935047e-14)
(1.1970418 0.0022169738 -4.0018785e-14)
(1.1930937 0.0026806462 -6.3331117e-14)
(1.1884104 0.0031016298 -7.6292244e-14)
(1.1830752 0.0034389587 -8.742746e-14)
(1.1772434 0.0036598663 -9.5902003e-14)
(1.171111 0.0037538047 -1.0400757e-13)
(1.1648677 0.0037372365 -1.1894784e-13)
(1.1586579 0.0036461619 -1.2743494e-13)
(1.15256 0.0035241969 -1.3887925e-13)
(1.1465801 0.0034141454 -1.3927183e-13)
(1.1406544 0.003357102 -1.445681e-13)
(1.1346367 0.0033923581 -1.4538992e-13)
(1.1283122 0.0035644573 -1.5072199e-13)
(1.1213385 0.0039106074 -1.6143831e-13)
(1.1133622 0.0044823344 -1.8894709e-13)
(1.1037646 0.0052886915 -2.2372291e-13)
(1.0922498 0.0064499762 -2.8904572e-13)
(1.0770896 0.0085888076 -4.2315068e-13)
(1.0569884 0.011139071 -6.2002845e-13)
(1.0346697 0.012193372 -7.9904452e-13)
(1.0130949 0.012389175 -9.2888684e-13)
(0.99064113 0.01173037 -1.0167781e-12)
(0.97087825 0.012526245 -1.1106549e-12)
(0.94574276 0.010935822 -1.1666639e-12)