0.47777778 	1.9741595e-10 	-1.5035255e-15 	-5.3371288e-17 	1.9707925e-10 	-1.3416556e-12 	2.078759e-11
0.48888889 	2.944308e-11 	-3.6793822e-20 	-1.031273e-21 	2.9409076e-11 	-6.2052521e-13 	1.1605489e-11
0.5 	1.6398467e-12 	-2.315492e-17 	-1.7428252e-19 	1.6385546e-12 	4.887428e-16 	9.6213114e-13
0.51111111 	1.5886468e-13 	-4.0401474e-17 	6.1763859e-19 	1.587413e-13 	2.2590266e-16 	9.4261751e-14
0.52222222 	1.5909344e-13 	-1.286958e-16 	5.5204468e-18 	1.5882635e-13 	-2.9098524e-15 	1.9050888e-14
0.53333333 	8.9728562e-14 	-1.54387e-17 	6.6902567e-19 	8.9680124e-14 	-3.7622931e-16 	6.4312767e-14
0.54444444 	9.6535303e-13 	2.5742577e-15 	-1.1075646e-16 	9.6516598e-13 	-5.3509472e-15 	6.8984977e-13
0.55555556 	3.8342973e-12 	3.6388001e-14 	-1.3946286e-15 	3.8334426e-12 	-2.2399862e-14 	1.6387124e-12
0.56666667 	8.1423812e-11 	1.0237885e-12 	-7.8000625e-15 	8.1357191e-11 	-2.5655811e-13 	8.8333667e-12
0.57777778 	3.6799105e-09 	2.6122977e-10 	4.8156974e-12 	3.6875602e-09 	1.9442854e-11 	3.7878965e-10
0.58888889 	5.54262e-08 	1.9916453e-09 	1.827256e-12 	5.5441994e-08 	2.5694477e-11 	1.591728e-08
0.6 	5.8239648e-07 	2.2063283e-08 	9.9079212e-12 	5.8322136e-07 	1.3932303e-10 	5.1404922e-07
0.61111111 	1.0752695e-05 	5.5113076e-07 	5.1684458e-10 	1.0763633e-05 	2.6059551e-09 	6.0410375e-06
0.62222222 	8.5679309e-05 	5.3270247e-06 	-3.937375e-11 	8.5695973e-05 	-1.0416302e-07 	1.2961635e-06
0.63333333 	0.00024465641 	1.602162e-05 	-8.3714657e-09 	0.00024489653 	-1.4911167e-07 	0.00010903845
0.64444444 	0.00055517111 	3.758675e-05 	-6.3022525e-09 	0.00055605371 	-1.1225506e-07 	0.00044484345
0.65555556 	0.00087565286 	7.7301731e-05 	-1.5036294e-07 	0.00087488797 	-6.4627468e-07 	4.8190505e-05
0.66666667 	0.0011608278 	0.00012893175 	-5.97119e-08 	0.0011596911 	-5.9020836e-08 	0.00080561403
0.67777778 	0.0013746044 	0.00022013849 	-1.3764111e-07 	0.0013686299 	-1.3604814e-07 	0.00070645671
0.68888889 	0.0015533437 	0.00031600669 	-2.298609e-07 	0.0015395764 	1.3966681e-08 	0.00053238016
0.7 	0.0017019504 	0.00041255206 	-7.1281994e-08 	0.0016800309 	4.3311971e-09 	0.0012772922
0.71111111 	0.0018373835 	0.00053963249 	-3.8084522e-07 	0.0018040441 	9.820093e-08 	0.00031221203
0.72222222 	0.0019620727 	0.00066563611 	-3.7349229e-08 	0.0019216205 	9.6304976e-09 	0.0016414767
0.73333333 	0.00207969 	0.00082785656 	-1.6238125e-07 	0.0020376071 	1.4606352e-07 	0.00030152224
0.74444444 	0.002195947 	0.00099469405 	-1.2107084e-08 	0.0021589054 	1.089044e-08 	0.0018672075
0.75555556 	0.0023147561 	0.0010684198 	1.1663427e-07 	0.0022826613 	2.1156725e-07 	0.00030372596
0.76666667 	0.0024407505 	0.0011302141 	4.1473921e-08 	0.0024210779 	9.1694904e-08 	0.0022154199
0.77777778 	0.002584932 	0.0011970683 	1.6876182e-07 	0.0025641641 	3.4045497e-07 	4.0620342e-05
0.78888889 	0.002743737 	0.0012726137 	1.7499268e-08 	0.0027301862 	3.7146156e-08 	0.0022614933
0.8 	0.002929951 	0.0013597118 	1.3255995e-07 	0.002919303 	2.813885e-07 	0.0010535687
0.81111111 	0.003144397 	0.0014610523 	1.438886e-07 	0.0031414418 	3.1192298e-07 	0.0012615611
0.82222222 	0.0033910185 	0.0015785893 	8.3916028e-09 	0.0034010642 	1.819139e-08 	0.0030046382
0.83333333 	0.003683619 	0.0015893394 	1.2714673e-07 	0.0036896903 	5.0220979e-07 	0.00086499112
0.84444444 	0.0040016715 	0.0015978727 	5.5329713e-08 	0.0040064922 	4.1904367e-07 	0.0013839153
0.85555556 	0.0043398173 	0.0016183697 	6.1209985e-09 	0.0043453879 	3.2253464e-08 	0.0037223552
0.86666667 	0.0046661997 	0.0016574132 	2.7213388e-08 	0.0046696592 	1.4339589e-07 	0.0033396617
0.87777778 	0.0049692058 	0.0016976696 	6.3881051e-08 	0.0049672455 	3.4010433e-07 	0.0018363436
0.88888889 	0.005255915 	0.0017426445 	8.8616829e-08 	0.0052496167 	4.5044196e-07 	0.00062042039
0.9 	0.0055301692 	0.001791824 	9.1590923e-08 	0.0055220197 	4.9163453e-07 	0.00010324284
0.91111111 	0.0057888239 	0.0018418578 	8.1033245e-08 	0.0057807403 	4.7756417e-07 	0.00010410141
0.92222222 	0.0060182147 	0.0018904991 	6.1759273e-08 	0.0060120421 	3.8986269e-07 	0.00083643064
0.93333333 	0.0062005629 	0.0019381687 	3.2174956e-08 	0.0061991209 	2.081675e-07 	0.0028909096
0.94444444 	0.0063157336 	0.001985033 	2.7265851e-08 	0.0063201751 	-9.0332942e-09 	0.005741329
0.95555556 	0.0063296649 	0.0020282804 	3.6919636e-08 	0.0063270028 	2.1786962e-07 	0.0016674223
0.96666667 	0.006232642 	0.0020602812 	1.5589702e-09 	0.0062366349 	8.3932613e-09 	0.0054813167
0.97777778 	0.0058368249 	0.0020904528 	1.9135333e-08 	0.0058354855 	9.1725854e-08 	0.0029577604
0.98888889 	0.0047035641 	0.0019855112 	1.3859978e-08 	0.004698911 	4.2812203e-08 	0.0028277369
