0 	0.0079464293 	-5.3882128e-16 	3.7341078e-20 	2.4936238e-18 	1.0887397e-19 	4.7535401e-21
0.010869565 	0.0071495778 	0.0093066514 	-4.0321221e-05 	0.011540125 	-5.2644228e-05 	0.0021900911
0.02173913 	0.0083932593 	0.0042633425 	-4.7240267e-05 	0.0097100183 	-4.3804662e-05 	0.0025564898
0.032608696 	0.0053100407 	-2.6898821e-05 	-6.2203816e-06 	0.0052021558 	-7.6016032e-06 	0.004538433
0.043478261 	0.0053366948 	-0.0021476387 	1.5440918e-05 	0.0045316971 	-2.8432782e-05 	0.0030223663
0.054347826 	0.00035177381 	-0.00049688459 	2.1624998e-05 	0.00017773812 	-4.8292095e-06 	1.8933076e-05
0.065217391 	1.3548751e-05 	-3.0030322e-07 	1.308873e-08 	1.350094e-05 	-5.7586545e-07 	2.5938337e-08
0.076086957 	5.5281764e-09 	-8.218532e-12 	3.5402858e-13 	5.5217236e-09 	-2.148662e-10 	1.2932622e-10
0.086956522 	3.5622034e-10 	-6.5168246e-15 	7.4159733e-18 	3.5597799e-10 	-2.809634e-14 	2.2652567e-10
0.097826087 	3.6401925e-10 	-2.6137451e-14 	-1.7928166e-17 	3.6383324e-10 	-1.2945189e-13 	2.5473523e-10
0.10869565 	3.6340321e-10 	-1.4220287e-14 	-9.2848868e-17 	3.6285651e-10 	-6.8478758e-14 	7.204172e-11
0.11956522 	3.6341448e-10 	-7.8332821e-15 	-7.5164768e-17 	3.6307786e-10 	-3.3098003e-14 	1.8503947e-10
0.13043478 	3.6356581e-10 	-3.6693193e-15 	-3.070779e-17 	3.6338198e-10 	-1.3521848e-14 	2.6649778e-10
0.14130435 	3.6286574e-10 	-1.3964711e-15 	-3.7051549e-17 	3.6220401e-10 	-1.4896755e-13 	1.5574906e-11
0.15217391 	3.6162491e-10 	-1.638803e-16 	-1.6331932e-19 	3.6157776e-10 	-3.0157737e-15 	3.3684196e-10
0.16304348 	3.5866424e-10 	-2.5850259e-16 	-7.3899203e-18 	3.581154e-10 	-1.3645861e-13 	7.0719738e-11
0.17391304 	3.5490908e-10 	-1.5540934e-16 	-1.7114291e-18 	3.5475299e-10 	-2.9701247e-14 	2.7298971e-10
0.18478261 	3.4889485e-10 	-2.5027465e-16 	-5.6425434e-18 	3.4840902e-10 	-9.7924346e-14 	9.3997415e-11
0.19565217 	3.4204343e-10 	-2.3183479e-16 	-1.6666617e-18 	3.418916e-10 	-1.3760825e-14 	2.6233602e-10
0.20652174 	3.3249286e-10 	-4.5568043e-16 	-8.9130218e-18 	3.3198899e-10 	-7.3590535e-14 	6.8088174e-11
0.2173913 	3.2256736e-10 	-4.6568181e-16 	-7.3456733e-19 	3.2244949e-10 	-1.1505102e-13 	2.6058691e-10
0.22826087 	3.0948848e-10 	-1.2442153e-15 	-2.5356901e-17 	3.0891485e-10 	-4.4131301e-14 	8.3488165e-12
0.23913043 	2.9682445e-10 	-1.4264899e-15 	-6.3009187e-18 	2.9667197e-10 	-1.9094544e-13 	2.1640247e-10
0.25 	2.8200323e-10 	-3.7297307e-15 	-5.0256725e-17 	2.8162912e-10 	1.9531889e-14 	8.4927691e-11
0.26086957 	2.6729782e-10 	-5.6019795e-15 	-1.8573105e-17 	2.6704611e-10 	7.2182944e-15 	1.3376082e-10
0.27173913 	3.0138567e-10 	-1.699352e-14 	-3.9490849e-17 	3.011373e-10 	9.3176727e-14 	1.6543785e-10
0.2826087 	3.4538464e-10 	-4.8081512e-14 	-4.5485869e-16 	3.4478268e-10 	-1.0026577e-12 	1.837729e-11
0.29347826 	7.6994736e-10 	-1.1080852e-12 	-4.6585693e-14 	7.6923284e-10 	2.143982e-11 	1.1369029e-10
0.30434783 	2.6459305e-09 	-5.3735353e-12 	-1.3488818e-14 	2.6434339e-09 	4.3607241e-13 	9.1167505e-11
0.31521739 	6.0522878e-09 	-1.3895965e-11 	-3.2368237e-14 	6.0513384e-09 	1.0464146e-12 	2.6707549e-09
0.32608696 	1.8894313e-07 	-3.9793307e-09 	-1.730033e-10 	1.9023584e-07 	7.9836228e-09 	5.3581982e-09
0.33695652 	5.3745094e-07 	-1.1494137e-08 	-4.8186665e-12 	5.4086487e-07 	4.1073461e-10 	4.6278665e-09
0.34782609 	1.1245682e-06 	-2.3137628e-08 	-6.6480173e-12 	1.1311278e-06 	5.6666524e-10 	5.3735344e-07
0.35869565 	1.7263966e-06 	-1.9783066e-07 	-7.5083696e-09 	1.7828166e-06 	2.2115161e-08 	7.9537028e-07
0.36956522 	2.3459913e-06 	-4.2801209e-07 	-1.2704072e-10 	2.4677424e-06 	3.7418589e-10 	7.6024047e-07
0.38043478 	3.4004054e-06 	-7.8910425e-07 	6.6557829e-10 	3.5806674e-06 	6.0907838e-09 	1.0999294e-06
0.39130435 	3.5495915e-06 	-8.8603166e-07 	6.1737948e-10 	3.7413597e-06 	-8.9920547e-09 	2.1469239e-06
0.40217391 	3.286677e-06 	-8.7848771e-07 	3.5033192e-10 	3.4764468e-06 	-5.1025405e-09 	2.0511424e-06
0.41304348 	2.3376395e-06 	-7.0278842e-07 	1.0516677e-09 	2.5039567e-06 	8.9455179e-09 	1.1021332e-07
0.42391304 	1.2076908e-06 	-4.2083014e-07 	3.274239e-09 	1.3191931e-06 	-1.0170448e-08 	5.0038957e-08
0.43478261 	6.7265554e-07 	-2.3163651e-07 	9.0687424e-09 	7.3155822e-07 	-2.8169348e-08 	4.6924795e-08
0.44565217 	1.3762028e-07 	-4.2442874e-08 	7.9976064e-10 	1.4392338e-07 	-2.4842183e-09 	4.3810634e-08
0.45652174 	5.9531896e-08 	-1.571762e-08 	-5.2061845e-12 	6.0618342e-08 	7.7754642e-11 	4.1489936e-09
0.4673913 	4.1869117e-08 	-9.9916295e-09 	1.8191294e-10 	4.264292e-08 	-5.62938e-10 	6.3564597e-09
0.47826087 	2.8021522e-08 	-5.3378537e-09 	2.0633232e-10 	2.8347514e-08 	-6.385049e-10 	6.079509e-09
0.48913043 	1.4173926e-08 	-6.8407786e-10 	3.0074017e-12 	1.4052107e-08 	-9.3065437e-12 	5.8025583e-09
0.5 	1.0818621e-08 	-4.1458188e-10 	-4.7752541e-14 	1.0709448e-08 	8.9874841e-13 	2.4461223e-09
0.51086957 	9.9085469e-09 	-3.4041365e-10 	3.6858928e-12 	9.8008633e-09 	-4.9849439e-11 	2.3844727e-09
0.52173913 	9.018584e-09 	-2.6744696e-10 	3.1518405e-12 	8.911902e-09 	-4.2626709e-11 	2.2969261e-09
0.5326087 	8.2205313e-09 	-1.9814036e-10 	-1.1888955e-13 	8.1129344e-09 	4.2949325e-12 	1.9839224e-09
0.54347826 	8.6415098e-09 	-1.7619533e-10 	2.5871257e-13 	8.5243063e-09 	6.8721233e-12 	2.4261079e-09
0.55434783 	9.5225416e-09 	-1.5200093e-10 	1.4638653e-12 	9.3905087e-09 	3.8884322e-11 	2.3528155e-09
0.56521739 	1.0403573e-08 	-1.2780654e-10 	7.0788857e-13 	1.0256711e-08 	1.8803484e-11 	2.2795232e-09
0.57608696 	1.2198761e-08 	-1.0594419e-10 	-7.0842407e-13 	1.2018558e-08 	5.4203172e-11 	3.7535668e-11
0.58695652 	1.4738223e-08 	2.2196583e-11 	4.5120799e-12 	1.4545835e-08 	9.3939809e-11 	3.6100125e-09
0.59782609 	1.817238e-08 	1.7576983e-10 	6.7601406e-12 	1.7949283e-08 	1.4074359e-10 	3.5201094e-09
0.60869565 	2.1606538e-08 	3.2934308e-10 	4.8656422e-13 	2.1352731e-08 	1.0130084e-11 	3.4302064e-09
0.61956522 	3.0612272e-08 	9.8620845e-10 	1.747978e-11 	3.0323075e-08 	1.8216061e-10 	7.771257e-09
0.63043478 	4.3429644e-08 	2.1830258e-09 	6.1941023e-11 	4.3068613e-08 	6.4550095e-10 	7.6248452e-09
0.64130435 	5.6247016e-08 	3.3798431e-09 	1.3231218e-11 	5.5814152e-08 	1.3788542e-10 	7.4784333e-09
0.65217391 	8.1049866e-08 	6.5440592e-09 	4.9644392e-11 	8.0528133e-08 	2.8840655e-10 	2.1780887e-08
0.66304348 	1.1283879e-07 	1.1802323e-08 	2.6793476e-10 	1.1164544e-07 	1.5565532e-09 	2.1454801e-08
0.67391304 	1.4462771e-07 	1.7060586e-08 	5.3101894e-11 	1.4276276e-07 	3.0849273e-10 	2.1128716e-08
0.68478261 	1.8154397e-07 	2.5649342e-08 	4.272325e-11 	1.7871876e-07 	1.7497794e-11 	4.8330187e-08
0.69565217 	1.8653629e-07 	2.9142775e-08 	1.3776954e-10 	1.821999e-07 	5.6425083e-11 	4.7662079e-08
0.70652174 	1.9152862e-07 	3.2636208e-08 	2.8188335e-12 	1.8568104e-07 	1.1544854e-12 	4.6993971e-08
0.7173913 	6.3925088e-07 	1.3417497e-07 	4.4307532e-09 	5.4360957e-07 	1.6275637e-08 	3.1809552e-08
0.72826087 	1.44472e-06 	3.1144153e-07 	4.4948911e-09 	1.195709e-06 	1.6511237e-08 	3.2718644e-08
0.73913043 	2.6611003e-06 	6.7740947e-07 	6.384492e-09 	2.1581519e-06 	1.1513324e-08 	3.6885057e-07
0.75 	1.7436925e-05 	6.6593052e-06 	2.5645845e-07 	1.2959915e-05 	4.6247833e-07 	3.8646696e-07
0.76086957 	3.2212749e-05 	1.2641201e-05 	5.2155979e-09 	2.3761679e-05 	9.4054259e-09 	4.0408334e-07
0.77173913 	0.00022183038 	0.0001047284 	3.764339e-06 	0.000154579 	5.2962797e-06 	1.1369694e-05
0.7826087 	0.00049734554 	0.00023911974 	1.5443804e-06 	0.0003437585 	2.1728836e-06 	1.1663263e-05
0.79347826 	0.0010586078 	0.00049042667 	5.0518477e-06 	0.00074958836 	9.5924203e-06 	0.00017114769
0.80434783 	0.0017763067 	0.00077181381 	4.3953566e-06 	0.0012819838 	8.3458787e-06 	0.0001714177
0.81521739 	0.0025548654 	0.0010360443 	3.3411795e-06 	0.0018943256 	8.675975e-06 	0.00039725927
0.82608696 	0.0033172345 	0.0012737449 	3.2200316e-06 	0.0025010794 	8.3613925e-06 	0.00039718548
0.83695652 	0.0039312502 	0.0014244974 	1.4249776e-06 	0.0030404001 	8.0298108e-06 	0.00053738289
0.84782609 	0.0044535038 	0.0015243179 	5.8206943e-07 	0.0035380523 	3.2799865e-06 	0.00053717179
0.85869565 	0.0048634673 	0.001525909 	-9.2232777e-07 	0.0040314419 	1.1280752e-05 	0.0006483908
0.86956522 	0.0052345217 	0.0014991277 	-9.1121018e-07 	0.0045147879 	1.2093893e-06 	4.2364039e-05
0.88043478 	0.0054985209 	0.0013998386 	-2.4076165e-06 	0.0049675548 	7.8896428e-06 	0.00073728704
0.89130435 	0.0057059366 	0.0012576621 	-2.7373677e-06 	0.0053777882 	4.1221471e-06 	0.00080047014
0.90217391 	0.0058433789 	0.0010731293 	-5.0721054e-07 	0.0057386144 	3.5454277e-07 	0.00050681174
0.91304348 	0.0058814675 	0.00080630443 	-4.3035633e-06 	0.0060046239 	2.8944433e-06 	0.00083879011
0.92391304 	0.0058677464 	0.00052057804 	-5.8203498e-06 	0.0061946259 	1.4350378e-06 	0.00085528105
0.93478261 	0.0057930763 	0.00026024098 	-1.7548532e-06 	0.0063009169 	-4.9124029e-07 	0.00085503371
0.94565217 	0.0055965126 	0.0001605731 	2.0985313e-07 	0.0062297199 	-3.4134783e-06 	0.00083798349
0.95652174 	0.0052508663 	0.00028843172 	-2.9713993e-07 	0.005894813 	4.6785211e-08 	0.00039846202
0.9673913 	0.0046862229 	0.00064796666 	1.8864994e-06 	0.0052083129 	-3.9495171e-06 	0.0007115019
0.97826087 	0.0038474938 	0.0011398188 	1.1413329e-07 	0.0041239196 	-5.152986e-08 	0.00033119461
0.98913043 	0.0022951777 	0.0010730572 	-2.4357106e-08 	0.0023199332 	-5.3232208e-08 	0.00028597172
