0.47777778 	0.33023624 	-1.6760139e-05 	-5.9913287e-08
0.48888889 	0.79527732 	4.1773073e-05 	1.7943026e-07
0.5 	1.1541255 	0.00023812925 	4.3627787e-07
0.51111111 	1.3850161 	0.00044284811 	6.5333471e-07
0.52222222 	1.5009494 	0.00052435246 	-4.2315151e-07
0.53333333 	1.542216 	0.00049571446 	-8.3309383e-07
0.54444444 	1.5519057 	0.00038464569 	-1.2635783e-06
0.55555556 	1.5502837 	0.00024928835 	-8.7855048e-07
0.56666667 	1.5452041 	0.00011034526 	-7.8710732e-07
0.57777778 	1.5385981 	-2.4038184e-05 	-1.0859724e-06
0.58888889 	1.5304095 	-0.00015610795 	-1.771962e-06
0.6 	1.5203387 	-0.00028265715 	-1.3391539e-06
0.61111111 	1.5086763 	-0.00038145695 	-3.5312793e-07
0.62222222 	1.4950236 	-0.00055860105 	-9.168527e-07
0.63333333 	1.4803156 	-0.00067111536 	-7.6070944e-07
0.64444444 	1.4657782 	-0.0006768048 	1.0673057e-06
0.65555556 	1.4534639 	-0.00059949091 	-1.6430169e-06
0.66666667 	1.4443421 	-0.00049983177 	1.2212244e-06
0.67777778 	1.4370245 	-0.00043440326 	3.889663e-07
0.68888889 	1.430735 	-0.00037853852 	9.9754538e-08
0.7 	1.4251144 	-0.00032494455 	7.6382676e-07
0.71111111 	1.4195935 	-0.00029188088 	-5.4069217e-07
0.72222222 	1.4143003 	-0.00026222638 	7.3344761e-07
0.73333333 	1.4088823 	-0.00023642507 	-5.872644e-07
0.74444444 	1.4028337 	-0.00019441006 	1.0563602e-06
0.75555556 	1.3962861 	-0.00015303773 	-5.8034881e-07
0.76666667 	1.3880757 	-8.7001016e-05 	1.7605876e-06
0.77777778 	1.3790804 	-1.6783715e-05 	-8.9690749e-07
0.78888889 	1.3687977 	5.4554221e-05 	1.1135772e-06
0.8 	1.3584536 	9.7300265e-05 	9.0783209e-09
0.81111111 	1.3483713 	0.00010795223 	3.0485977e-08
0.82222222 	1.3387496 	0.00010494694 	-8.4173393e-08
0.83333333 	1.3291515 	0.00010509315 	-2.189643e-07
0.84444444 	1.3191228 	0.00011305175 	6.1800456e-09
0.85555556 	1.3083962 	0.00012154381 	5.8171198e-08
0.86666667 	1.2969372 	0.00012555314 	1.2380489e-08
0.87777778 	1.2845528 	0.00013066477 	2.6813017e-09
0.88888889 	1.2710314 	0.0001335382 	-3.2363975e-07
0.9 	1.2562039 	0.00013536849 	-4.3000568e-07
0.91111111 	1.2398125 	0.0001358051 	-3.8910632e-07
0.92222222 	1.2214259 	0.00013373325 	-2.1207402e-07
0.93333333 	1.2003442 	0.00012815861 	-3.412243e-08
0.94444444 	1.1754825 	0.00011589687 	-1.6807137e-07
0.95555556 	1.1452545 	0.00010012813 	-4.0495094e-08
0.96666667 	1.1054424 	7.7439557e-05 	-1.3520369e-07
0.97777778 	1.0440304 	5.2080606e-05 	-3.5506248e-08
0.98888889 	0.90691992 	4.1517958e-05 	2.0839692e-07
