0 	0.019520122 	-1.3257073e-15 	-4.818595e-22 	9.0035288e-29 	3.2725444e-35 	1.1894833e-41
0.010869565 	0.019572934 	-0.00089270699 	1.7226733e-07 	0.02122789 	-7.3765103e-05 	0.0072195308
0.02173913 	0.019688929 	-0.0018135261 	-8.4277664e-08 	0.021380438 	-5.1948725e-05 	0.0084344434
0.032608696 	0.019852261 	-0.0027539916 	-2.9978476e-08 	0.021568609 	-1.089002e-05 	0.009631361
0.043478261 	0.020059307 	-0.0037031588 	-9.1689513e-08 	0.021788809 	-3.0218655e-05 	0.010851489
0.054347826 	0.020308882 	-0.0046587221 	9.2260573e-08 	0.022028378 	-2.880254e-06 	0.0052795702
0.065217391 	0.020610808 	-0.0056687841 	3.6219256e-07 	0.022314286 	-4.2760454e-06 	0.0032805976
0.076086957 	0.02089321 	-0.0065239665 	5.4386236e-07 	0.022579679 	-3.7129806e-06 	0.0058147392
0.086956522 	0.021206359 	-0.0074131129 	9.0213545e-08 	0.022879163 	-5.3063e-06 	0.015669402
0.097826087 	0.021540157 	-0.0082875221 	8.5559985e-08 	0.023173721 	-4.0981612e-07 	0.016003687
0.10869565 	0.021885721 	-0.009118879 	1.862038e-06 	0.023435407 	-6.9744589e-06 	0.0020511984
0.11956522 	0.022202896 	-0.0098582505 	5.9196233e-07 	0.02370742 	-1.8212698e-06 	0.01508802
0.13043478 	0.022517744 	-0.010510702 	7.8634496e-07 	0.023937036 	-2.4193201e-06 	0.014905845
0.14130435 	0.022803104 	-0.011022188 	2.9075557e-06 	0.024115731 	-7.5975336e-06 	0.0041186288
0.15217391 	0.02305053 	-0.01145307 	5.3030672e-07 	0.024311853 	-1.8565635e-06 	0.022578932
0.16304348 	0.023253935 	-0.011751222 	3.9668891e-06 	0.024375945 	-9.3010672e-06 	0.0021031101
0.17391304 	0.023418463 	-0.012020916 	4.8905311e-07 	0.02447776 	-1.082989e-06 	0.021910796
0.18478261 	0.02351515 	-0.012211624 	3.8814861e-06 	0.024422102 	-8.5953997e-06 	0.0040021351
0.19565217 	0.023580903 	-0.012388828 	3.1578084e-07 	0.024406769 	-6.7245016e-07 	0.021712612
0.20652174 	0.023542567 	-0.01248121 	3.8720636e-06 	0.024209661 	-8.2454964e-06 	0.0025103122
0.2173913 	0.023489906 	-0.012572966 	3.2648922e-06 	0.0240765 	-7.9795166e-06 	0.021631037
0.22826087 	0.023287537 	-0.01254934 	3.5224898e-06 	0.023713999 	-7.2385512e-06 	0.002106476
0.23913043 	0.023087629 	-0.012535427 	3.5749256e-07 	0.023427689 	-7.3463044e-07 	0.017863873
0.25 	0.022720012 	-0.012399221 	1.6676762e-06 	0.022925189 	-3.3286671e-06 	0.0093663119
0.26086957 	0.022307308 	-0.012232196 	1.4701069e-06 	0.022398078 	-2.9343204e-06 	0.0094146478
0.27173913 	0.021818111 	-0.012015075 	1.6062115e-06 	0.021813157 	-3.3140618e-06 	0.017020708
0.2826087 	0.021119969 	-0.011646699 	2.2822483e-06 	0.020978512 	-4.5039267e-06 	5.7857708e-05
0.29347826 	0.020477955 	-0.011322686 	4.0718066e-07 	0.020266809 	-7.7438666e-07 	0.014599635
0.30434783 	0.01958014 	-0.010821452 	2.4100825e-07 	0.019280686 	-5.1253112e-07 	0.011040194
0.31521739 	0.018573197 	-0.010242248 	7.6568904e-07 	0.018190308 	-1.6283238e-06 	0.0032547119
0.32608696 	0.017560911 	-0.009660875 	1.400201e-05 	0.017133111 	-2.4686081e-05 	0.011437017
0.33695652 	0.016308141 	-0.0089108459 	-1.385408e-07 	0.015831345 	6.7368232e-08 	0.0078587306
0.34782609 	0.014957798 	-0.0080896562 	-2.9555978e-07 	0.014442874 	1.4372185e-07 	0.0029463301
0.35869565 	0.013596546 	-0.0072566156 	2.0441874e-05 	0.013078372 	-3.3354985e-05 	0.008030424
0.36956522 	0.012050194 	-0.0062867469 	-2.6544014e-07 	0.011547245 	3.4244996e-07 	0.0067374922
0.38043478 	0.010369715 	-0.0052099701 	-1.4532445e-06 	0.0099039738 	1.8748615e-06 	0.0010203299
0.39130435 	0.0088149487 	-0.0042322912 	1.2211421e-05 	0.0084044465 	-1.9937979e-05 	0.0044656185
0.40217391 	0.0072629767 	-0.0032983171 	1.0332798e-05 	0.0069180099 	-1.6870691e-05 	0.0043578679
0.41304348 	0.00572681 	-0.0024070803 	-1.4233481e-06 	0.0054557345 	2.3701827e-06 	0.00071131494
0.42391304 	0.0043096564 	-0.0015961806 	-1.8377598e-07 	0.0041186178 	3.060268e-07 	0.0013817769
0.43478261 	0.0033119388 	-0.0010598147 	1.9077968e-05 	0.0031725287 	-3.5023894e-05 	0.0015177818
0.44565217 	0.002419086 	-0.00059187359 	-8.9110415e-08 	0.002323724 	2.2702688e-07 	0.0012500317
0.45652174 	0.0018862943 	-0.00035516612 	-4.0939983e-07 	0.0018104137 	1.0430292e-06 	0.00013590186
0.4673913 	0.001464312 	-0.00015311945 	2.1647693e-06 	0.0014050418 	-3.6760458e-06 	0.00050667252
0.47826087 	0.0012286386 	9.5562205e-07 	4.6713392e-06 	0.001174717 	-7.9325114e-06 	0.00049712405
0.48913043 	0.0010580548 	0.00013931226 	-2.5228093e-08 	0.0010056965 	8.6357463e-08 	0.0003382411
0.5 	0.0010565351 	0.00023592653 	-4.5939263e-08 	0.0009967607 	1.572532e-07 	0.00020263263
0.51086957 	0.0010662045 	0.00031570474 	1.3128908e-06 	0.0010006677 	-1.2680882e-07 	0.00046179422
0.52173913 	0.0010879226 	0.00037964993 	1.5232917e-06 	0.0010168887 	-1.4713091e-07 	0.00045488793
0.5326087 	0.0011157244 	0.00043275682 	-1.2734992e-08 	0.0010396127 	1.2376987e-08 	0.00025802774
0.54347826 	0.0011549327 	0.0004675572 	-1.0010432e-08 	0.0010755959 	9.7290194e-09 	0.00033056101
0.55434783 	0.0011908379 	0.00049168049 	3.5657194e-07 	0.0011091612 	3.516576e-07 	0.00049341198
0.56521739 	0.0012253531 	0.000511636 	1.5097551e-07 	0.0011412883 	1.4889474e-07 	0.00048744874
0.57608696 	0.0012553415 	0.00052154412 	-8.9081016e-09 	0.0011688603 	-1.7654772e-08 	5.9495503e-05
0.58695652 	0.0012826558 	0.00052619422 	-7.9411159e-08 	0.0011960655 	4.2486958e-09 	0.00051507081
0.59782609 	0.0013053565 	0.00052732399 	-2.7737623e-07 	0.0012185591 	1.4840323e-08 	0.0005101399
0.60869565 	0.0013266592 	0.00052754703 	5.8132675e-10 	0.0012395814 	-1.0018421e-08 	0.00034501413
0.61956522 	0.001343225 	0.00052487546 	2.719973e-10 	0.0012572717 	-4.6875244e-09 	0.00044417264
0.63043478 	0.0013570006 	0.00052231593 	-4.7234643e-07 	0.0012725104 	-2.8887198e-07 	0.00051843718
0.64130435 	0.0013704228 	0.00051973235 	8.8103416e-11 	0.0012872716 	-4.300616e-10 	0.00050728261
0.65217391 	0.0013805869 	0.0005173667 	1.9948648e-09 	0.0012989691 	-9.7375876e-09 	0.00035595924
0.66304348 	0.0013909157 	0.00051693379 	-3.1328697e-07 	0.0013119576 	-3.1938826e-07 	0.00052120832
0.67391304 	0.0014012369 	0.0005168729 	2.3191355e-10 	0.0013246859 	-7.9098462e-10 	0.00050065246
0.68478261 	0.0014120207 	0.00051907208 	9.9177461e-10 	0.0013383488 	-3.3826332e-09 	0.00045234534
0.69565217 	0.001428256 	0.00052590675 	-3.5495961e-08 	0.0013580354 	-4.1856035e-08 	0.00052704262
0.70652174 	0.0014464692 	0.00053417135 	5.0194554e-09 	0.0013791281 	-3.1065432e-09 	0.00029285753
0.7173913 	0.001474197 	0.00054966804 	1.6046784e-07 	0.0014107954 	2.2160219e-07 	0.00054933744
0.72826087 	0.0015153192 	0.00057460036 	2.5811538e-07 	0.0014550949 	3.5645107e-07 	0.0005475964
0.73913043 	0.0015688127 	0.00060776037 	1.7104659e-08 	0.001510672 	1.8846998e-08 	0.00020035513
0.75 	0.0016569069 	0.0006633075 	1.6204666e-06 	0.0016014016 	2.3836192e-06 	0.00060389892
0.76086957 	0.0017642886 	0.00073037356 	2.3691335e-08 	0.0017094514 	4.3316691e-08 	0.00032848439
0.77173913 	0.0019301281 	0.00083200722 	1.6822468e-06 	0.0018758788 	2.6922021e-06 	0.0007260475
0.7826087 	0.0021392284 	0.00095741378 	2.8891172e-07 	0.0020842683 	4.6236306e-07 	0.00072513952
0.79347826 	0.0024323633 	0.0011269735 	1.1022885e-06 	0.0023761771 	1.9984519e-06 	0.00095415379
0.80434783 	0.0028103561 	0.001332058 	1.4009848e-06 	0.0027526747 	2.5399892e-06 	0.00095363769
0.81521739 	0.0032850066 	0.0015764062 	8.8498628e-07 	0.0032266363 	1.8190371e-06 	0.0013166845
0.82608696 	0.0038861817 	0.0018683274 	1.6900576e-06 	0.0038266001 	3.4738138e-06 	0.0013166225
0.83695652 	0.0046203253 	0.0022104388 	2.4512564e-06 	0.0045606191 	5.3655575e-06 	0.0018309293
0.84782609 	0.0054808348 	0.0026049379 	8.2534478e-09 	0.005420611 	2.0997914e-08 	0.0017641633
0.85869565 	0.0065082372 	0.0030709729 	7.0941558e-06 	0.0064506988 	1.5769582e-05 	0.0024848838
0.86956522 	0.0075995451 	0.0035644873 	1.9936061e-07 	0.0075415501 	5.0534977e-07 	0.0001828361
0.88043478 	0.0087471354 	0.0040868956 	6.2474067e-06 	0.0087047316 	1.3947217e-05 	0.0031956861
0.89130435 	0.009818892 	0.0045763871 	1.8918469e-06 	0.0097937864 	4.2479538e-06 	0.0038132886
0.90217391 	0.010687319 	0.0049751498 	-2.4552068e-08 	0.01068164 	-3.2727056e-08 	0.001192564
0.91304348 	0.011229863 	0.005231079 	1.3754386e-06 	0.011263579 	3.2112444e-06 	0.0041979974
0.92391304 	0.011359659 	0.0052980709 	-1.4256939e-06 	0.011432321 	-2.78157e-06 	0.0042790878
0.93478261 	0.011035488 	0.0051559905 	-1.5112996e-06 	0.011149044 	-3.1631102e-06 	0.0040905871
0.94565217 	0.010125726 	0.0047423288 	-5.5681039e-06 	0.010280333 	-1.1806775e-05 	0.0038103387
0.95652174 	0.0087658015 	0.0041153849 	-2.0588803e-07 	0.0089439184 	-4.5549954e-07 	0.00089125528
0.9673913 	0.0070221266 	0.0033066814 	-1.9216006e-06 	0.0072093185 	-4.1491544e-06 	0.0027235291
0.97826087 	0.0050495209 	0.0022971808 	2.4983358e-08 	0.0051756401 	-8.0729819e-08 	0.00054922008
0.98913043 	0.0020688501 	0.00071057378 	9.8216429e-08 	0.002084209 	4.4314751e-08 	0.00019929671
