0 	0.024329291 	-1.6523216e-15 	-6.0057516e-22 	1.1221727e-28 	4.0788007e-35 	1.4825361e-41
0.010869565 	0.024444275 	0.003150763 	-3.5676659e-06 	0.043914727 	-3.0047172e-05 	0.036732477
0.02173913 	0.024592754 	0.00036547851 	-3.1806016e-06 	0.044127662 	-2.3085033e-05 	0.033534231
0.032608696 	0.024894555 	-0.0023595294 	1.028284e-06 	0.044369962 	-1.8236716e-05 	0.019059354
0.043478261 	0.025320415 	-0.0047535426 	-4.7892561e-06 	0.044672527 	-4.9145097e-05 	0.027612521
0.054347826 	0.025874692 	-0.0069613459 	4.8978368e-06 	0.045013576 	-3.4198867e-05 	0.0028258699
0.065217391 	0.026536154 	-0.0089678484 	2.7475586e-06 	0.045424904 	-1.6278259e-05 	0.011561721
0.076086957 	0.027197584 	-0.010617151 	4.0730255e-06 	0.045811226 	-2.1023159e-05 	0.0055486789
0.086956522 	0.027928667 	-0.012179684 	-3.7940782e-08 	0.046234411 	-3.7537201e-05 	0.016840459
0.097826087 	0.028686275 	-0.013615734 	3.4251209e-06 	0.046647074 	-8.5204895e-05 	0.014351801
0.10869565 	0.029449587 	-0.014932733 	5.739042e-07 	0.047038276 	-2.5946231e-06 	0.0100863
0.11956522 	0.030183893 	-0.016026461 	3.5235342e-06 	0.047382647 	-3.715743e-05 	0.009345695
0.13043478 	0.030868901 	-0.016963686 	1.3942477e-05 	0.047663946 	-9.0036965e-05 	0.0069739915
0.14130435 	0.031524599 	-0.017794951 	1.0839399e-06 	0.047898156 	-5.1041236e-06 	0.0010078707
0.15217391 	0.032084826 	-0.018452922 	2.1010054e-05 	0.047968744 	-0.00010649114 	0.0023214706
0.16304348 	0.032612971 	-0.019079795 	7.1171209e-06 	0.047973017 	-3.217383e-05 	9.6776934e-05
0.17391304 	0.033033944 	-0.019608356 	1.9652439e-05 	0.047793437 	-8.8841292e-05 	0.0023445646
0.18478261 	0.033399465 	-0.020096406 	7.8591657e-06 	0.047516292 	-3.1514652e-05 	0.0044851993
0.19565217 	0.033599876 	-0.020459314 	2.0477686e-05 	0.047004562 	-8.2113952e-05 	0.0065368307
0.20652174 	0.033744393 	-0.020780055 	2.7386814e-06 	0.046393836 	-9.3393608e-06 	0.0082978725
0.2173913 	0.033610748 	-0.020888578 	2.8747822e-05 	0.045457185 	-9.8034874e-05 	0.010123107
0.22826087 	0.033419584 	-0.020949417 	5.1836098e-06 	0.044413634 	-1.3571076e-05 	0.0020472968
0.23913043 	0.032901738 	-0.020761377 	3.9730731e-05 	0.043037056 	-0.00011317214 	0.012848474
0.25 	0.032284772 	-0.020495271 	1.3655194e-06 	0.041545426 	-3.1092725e-06 	0.012218064
0.26086957 	0.03135493 	-0.019977467 	1.6632538e-05 	0.039681175 	-3.9823519e-05 	0.014355898
0.27173913 	0.030155553 	-0.019255941 	2.3923967e-05 	0.03760517 	-5.7281491e-05 	0.015625908
0.2826087 	0.028742701 	-0.018357452 	9.1599659e-06 	0.035251807 	-1.8325969e-05 	0.003746614
0.29347826 	0.0270667 	-0.017251942 	4.6012293e-05 	0.032730341 	-9.5232342e-05 	0.015177087
0.30434783 	0.025211842 	-0.016015876 	1.1033794e-06 	0.03006532 	-1.9621685e-06 	0.014872076
0.31521739 	0.0230591 	-0.014526318 	6.3695191e-06 	0.027072019 	-1.1327083e-05 	0.0073835022
0.32608696 	0.020837445 	-0.013003489 	5.9473463e-05 	0.024155229 	-0.00011164709 	0.013449829
0.33695652 	0.018501312 	-0.011406773 	5.2492601e-06 	0.021172392 	-8.4844286e-06 	0.0090967424
0.34782609 	0.016070865 	-0.0097236636 	6.9494268e-06 	0.018120385 	-1.1232424e-05 	0.0051229793
0.35869565 	0.013781173 	-0.0081726732 	4.4183753e-05 	0.015334913 	-7.9807851e-05 	0.0096338708
0.36956522 	0.011585288 	-0.0067220993 	3.864443e-06 	0.012730191 	-5.8940139e-06 	0.0068501641
0.38043478 	0.0094943622 	-0.0053511889 	8.5008959e-06 	0.01027853 	-1.296549e-05 	0.0017098525
0.39130435 	0.0075672037 	-0.0040987722 	1.271208e-05 	0.0080465639 	-2.3407318e-05 	0.0052571857
0.40217391 	0.0059816736 	-0.0031242148 	5.8586875e-07 	0.0062614124 	-8.7428526e-07 	0.0049715744
0.41304348 	0.0047099985 	-0.0023795641 	7.5297379e-06 	0.0048504785 	-1.1236542e-05 	6.9132165e-05
0.42391304 	0.0034805158 	-0.0016544523 	1.749124e-06 	0.0034993644 	-2.6101978e-06 	0.0016039421
0.43478261 	0.0025505616 	-0.0011270168 	7.184156e-06 	0.0024892955 	-1.4122995e-05 	0.0021087149
0.44565217 	0.0019655026 	-0.00081792907 	1.5093136e-06 	0.0018656352 	-2.0728708e-06 	0.0010429885
0.45652174 	0.0015033896 	-0.00058419347 	2.206653e-06 	0.0013813372 	-3.0305871e-06 	0.00018612723
0.4673913 	0.0010468547 	-0.00035293411 	1.9827199e-07 	0.00090796714 	-2.7230406e-07 	0.00067289848
0.47826087 	0.00082042405 	-0.00021450715 	2.4468882e-07 	0.00064484461 	-4.694803e-07 	0.00073058163
0.48913043 	0.00081565419 	-0.00016018705 	6.5876904e-07 	0.00057725811 	1.3411421e-07 	0.00024992476
0.5 	0.00081607245 	-0.00010925529 	6.7561198e-07 	0.00051520371 	1.3754314e-07 	0.00025714375
0.51086957 	0.00081304986 	-5.8437997e-05 	3.3651601e-08 	0.00045108651 	6.8508954e-09 	0.00076465997
0.52173913 	0.00088322695 	-7.1076945e-06 	9.8099988e-08 	0.00045226028 	1.5021877e-07 	0.00071519066
0.5326087 	0.001004782 	4.5748163e-05 	7.1313965e-07 	0.00049580125 	1.0920181e-06 	0.0001936687
0.54347826 	0.0011325841 	9.8555985e-05 	5.4762937e-07 	0.00053477487 	8.3857512e-07 	0.00053251497
0.55434783 	0.0012597606 	0.00014849654 	1.427883e-07 	0.00057286131 	2.1118127e-07 	0.0012749622
0.56521739 	0.0013439281 	0.00016737089 	2.4541583e-07 	0.00062902588 	6.0944428e-07 	0.00085381327
0.57608696 	0.0014161094 	0.00017559256 	7.2968927e-07 	0.00069025443 	1.8120467e-06 	1.3976514e-05
0.58695652 	0.0014972673 	0.00018344038 	2.2088743e-07 	0.00074225617 	5.4853258e-07 	0.0010660784
0.59782609 	0.0015592373 	0.00018719077 	1.5366246e-08 	0.00079421469 	8.4806264e-08 	0.0014696312
0.60869565 	0.00158705 	0.00018622342 	2.9917751e-07 	0.00084129692 	1.6511598e-06 	0.00039586812
0.61956522 	0.0016146131 	0.00018312125 	2.1760141e-07 	0.00089105841 	1.2009415e-06 	0.00072543053
0.63043478 	0.0016397232 	0.00018092564 	4.1516167e-09 	0.00093852271 	1.448987e-07 	0.0015751327
0.64130435 	0.0016518722 	0.00019298942 	2.0660039e-07 	0.00096559739 	1.238402e-06 	0.00061035319
0.65217391 	0.0016603167 	0.00020449606 	2.1290609e-07 	0.00099674667 	1.2761996e-06 	0.00057644408
0.66304348 	0.0016662444 	0.00021468702 	9.2459382e-08 	0.0010324463 	7.2895295e-08 	0.0015653493
0.67391304 	0.0016713194 	0.00023601 	1.7976888e-07 	0.0010551857 	1.0472794e-06 	0.0005752829
0.68478261 	0.0016735919 	0.00025690845 	1.6041497e-07 	0.0010830508 	9.345294e-07 	0.0006717234
0.69565217 	0.0016749379 	0.00027704424 	1.0557059e-08 	0.0011145601 	6.002175e-09 	0.0015440268
0.70652174 	0.0016803287 	0.00030324086 	1.7302429e-07 	0.0011422478 	1.1325622e-06 	0.00028313533
0.7173913 	0.0016825886 	0.0003273411 	6.7673371e-08 	0.0011786656 	4.4296845e-07 	0.0010391665
0.72826087 	0.0016913724 	0.00035465743 	6.013884e-08 	0.0012176329 	3.6032017e-07 	0.0010631648
0.73913043 	0.0017060594 	0.00038566198 	1.5854859e-07 	0.0012603932 	9.4993942e-07 	0.00030488097
0.75 	0.001721157 	0.00041652208 	1.7679319e-07 	0.0013130848 	2.0123911e-07 	0.0015373795
0.76086957 	0.0017642743 	0.00046316 	2.5333087e-07 	0.0013768086 	9.2273252e-07 	0.00027141839
0.77173913 	0.0018084679 	0.00051048313 	5.8653676e-08 	0.0014516957 	2.1364019e-07 	0.0013038973
0.7826087 	0.0018991146 	0.00058509078 	3.4601223e-07 	0.0015553883 	7.6789476e-07 	0.00068961572
0.79347826 	0.0020108448 	0.00067247444 	2.3467913e-07 	0.00167896 	5.2081649e-07 	0.0011062699
0.80434783 	0.00218557 	0.00079715107 	5.029304e-07 	0.0018532355 	8.9729364e-07 	0.0010017281
0.81521739 	0.0024170419 	0.00095584656 	5.0484902e-07 	0.0020746872 	9.0071671e-07 	0.0012155565
0.82608696 	0.0027373488 	0.0011663988 	7.9328369e-07 	0.0023761597 	1.4801766e-06 	0.0011822744
0.83695652 	0.0031455318 	0.0014303362 	5.9965906e-07 	0.0027572241 	1.1188952e-06 	0.0018562428
0.84782609 	0.0036734166 	0.0017115422 	1.5011476e-06 	0.0032599702 	3.0257373e-06 	0.0010183838
0.85869565 	0.0042908344 	0.0020135357 	1.6949953e-07 	0.0038590966 	3.4164599e-07 	0.0035131443
0.86956522 	0.0050736478 	0.0023767078 	2.9512621e-06 	0.0046060515 	6.1754312e-06 	7.5583186e-05
0.88043478 	0.0059548462 	0.0027846669 	6.4967022e-07 	0.0054592976 	1.4203193e-06 	0.0040580093
0.89130435 	0.0069211308 	0.0032161664 	1.2892656e-06 	0.0063911481 	2.8186128e-06 	0.0039704345
0.90217391 	0.0078651737 	0.0036269191 	3.355296e-06 	0.0073036142 	7.6466563e-06 	0.00059663246
0.91304348 	0.0087677918 	0.0040179955 	1.0043044e-06 	0.0081961488 	2.3658611e-06 	0.0053896686
0.92391304 	0.009473264 	0.0043165895 	1.7523098e-07 	0.0089062176 	4.1279533e-07 	0.0079182785
0.93478261 	0.0097389058 	0.0044227041 	9.9237826e-07 	0.0092001656 	2.40523e-06 	0.0058128787
0.94565217 	0.0095229822 	0.0043219529 	-1.6483809e-07 	0.0090559629 	-3.2073331e-07 	0.0083735649
0.95652174 	0.0084993572 	0.0038633821 	7.3122738e-07 	0.0081276992 	2.2533281e-06 	0.00057108115
0.9673913 	0.0066823371 	0.0030533007 	-3.9368871e-08 	0.0064577292 	1.5668276e-07 	0.0036332932
0.97826087 	0.0042861362 	0.0019686281 	-3.1450747e-08 	0.0041902314 	4.0029959e-07 	0.00035315027
0.98913043 	0.0013419726 	0.00034465775 	-1.7060448e-07 	0.0013370277 	5.3946795e-07 	0.00014561176
