1.4101108e-19 	0.022370227 	-1.5190801e-15 	3.4731428e-21 	1.104943e-17 	2.4001489e-19 	5.7519677e-18
0.010869565 	0.022422681 	0.00014649405 	-1.1997145e-06 	0.025599128 	-2.5089087e-05 	0.018856865
0.02173913 	0.022545431 	-0.0010869848 	-1.7979177e-06 	0.025786743 	-2.9965086e-05 	0.017353399
0.032608696 	0.022736977 	-0.0023630122 	-8.6100011e-08 	0.026013239 	-1.7073153e-06 	0.01363639
0.043478261 	0.022990066 	-0.0036168683 	-2.0767748e-06 	0.026280951 	-3.7479819e-05 	0.014549698
0.054347826 	0.023305028 	-0.0048647772 	4.4893769e-07 	0.02657755 	-6.5657361e-06 	0.0043211623
0.065217391 	0.023685767 	-0.0061369373 	5.5979985e-07 	0.02693023 	-4.9578943e-06 	0.0051866189
0.076086957 	0.024055652 	-0.0072188231 	6.1281057e-07 	0.027256757 	-3.7920417e-06 	0.0053842907
0.086956522 	0.024471588 	-0.0083187005 	-4.9658907e-07 	0.02761658 	-3.0340186e-05 	0.009322616
0.097826087 	0.024902238 	-0.0093719032 	5.0518034e-07 	0.027972913 	-4.3010134e-05 	0.0081101134
0.10869565 	0.025338086 	-0.010377384 	5.0161842e-07 	0.028318699 	-2.0284993e-06 	0.0040259888
0.11956522 	0.025756582 	-0.011275117 	1.6022373e-06 	0.028630561 	-2.7575433e-05 	0.005579155
0.13043478 	0.02614989 	-0.012067973 	6.1706356e-06 	0.028897872 	-4.4629095e-05 	0.0043858632
0.14130435 	0.026520886 	-0.012773697 	1.2951147e-08 	0.029129753 	-3.9407018e-08 	0.0030722807
0.15217391 	0.026809864 	-0.013263348 	1.597194e-05 	0.029267896 	-6.5695861e-05 	0.0019670462
0.16304348 	0.027072357 	-0.013704471 	3.1910443e-06 	0.029375932 	-9.844359e-06 	0.00078730496
0.17391304 	0.027223318 	-0.013978765 	1.9189378e-05 	0.029360568 	-5.9199154e-05 	0.00045820833
0.18478261 	0.027341197 	-0.014224663 	5.4118226e-06 	0.029310821 	-1.4812137e-05 	0.0015884911
0.19565217 	0.027328715 	-0.014361029 	2.0643447e-05 	0.029116545 	-5.6501034e-05 	0.0026536637
0.20652174 	0.027283293 	-0.014475516 	1.2823661e-06 	0.028884572 	-3.2260449e-06 	0.0036304835
0.2173913 	0.027055107 	-0.014466982 	2.6480182e-05 	0.028465367 	-6.6616119e-05 	0.0045875635
0.22826087 	0.026802083 	-0.014442006 	1.1967868e-06 	0.028011566 	-2.9496656e-06 	0.000868547
0.23913043 	0.026337476 	-0.014275008 	2.7536095e-05 	0.027361308 	-6.3227412e-05 	0.0061484457
0.25 	0.025832534 	-0.014080082 	3.8382649e-06 	0.026666461 	-8.8132886e-06 	0.0069808653
0.26086957 	0.025126525 	-0.013749918 	1.1299638e-05 	0.025768479 	-2.3629032e-05 	0.0071835136
0.27173913 	0.024274348 	-0.013318826 	2.2845053e-05 	0.024741728 	-4.7772018e-05 	0.0078749182
0.2826087 	0.023300864 	-0.012806018 	1.3182719e-06 	0.023581296 	-3.1464083e-06 	0.001100653
0.29347826 	0.022130747 	-0.012156139 	3.0753107e-05 	0.022272519 	-5.8690411e-05 	0.0080249297
0.30434783 	0.020864794 	-0.011439355 	7.6865467e-06 	0.020869536 	-1.4669301e-05 	0.0085603931
0.31521739 	0.019359533 	-0.010557114 	2.9291886e-07 	0.019232778 	-9.2733448e-07 	0.0041394666
0.32608696 	0.017729236 	-0.0095807859 	4.391665e-05 	0.017526079 	-7.6852272e-05 	0.0075753134
0.33695652 	0.016023743 	-0.0085506804 	-5.2986104e-08 	0.015752368 	2.0602722e-08 	0.0073816974
0.34782609 	0.014069199 	-0.0073428715 	-3.3755962e-07 	0.013761182 	1.3125417e-07 	0.0031211426
0.35869565 	0.012186211 	-0.0061960451 	3.9956272e-05 	0.011882451 	-6.7024387e-05 	0.0057082535
0.36956522 	0.010281221 	-0.005042994 	-7.5155747e-08 	0.0099928169 	1.0445861e-07 	0.0056141244
0.38043478 	0.008325244 	-0.0038848698 	-1.0348231e-06 	0.0080793465 	1.4382957e-06 	0.0009280354
0.39130435 	0.0066126686 	-0.0028943675 	1.5721791e-05 	0.0064168448 	-2.8182395e-05 	0.0029898136
0.40217391 	0.0050888824 	-0.0020507465 	7.2953049e-06 	0.004938828 	-1.3077337e-05 	0.0030721066
0.41304348 	0.0038556408 	-0.0014354077 	-7.4304393e-07 	0.0037372981 	1.584924e-06 	0.00031066762
0.42391304 	0.0027742619 	-0.00091361814 	-1.0648778e-07 	0.0026892176 	2.2714005e-07 	0.00088112417
0.43478261 	0.0020264221 	-0.00055114697 	9.7832575e-06 	0.0019626514 	-2.0199367e-05 	0.0010285806
0.44565217 	0.0014836703 	-0.00028750863 	-2.0721584e-08 	0.0014319426 	2.1552371e-07 	0.00069277436
0.45652174 	0.0012305348 	-0.00016387131 	-4.6185542e-08 	0.0011782758 	4.8037253e-07 	0.00012990825
0.4673913 	0.0010040627 	-4.7915577e-05 	4.5107815e-07 	0.00095238166 	-5.5984577e-07 	0.00051033489
0.47826087 	0.00090220235 	5.7046398e-05 	1.6196716e-06 	0.00084398256 	-2.01022e-06 	0.00051832165
0.48913043 	0.00090066258 	0.00015121808 	7.3533355e-08 	0.00082946265 	1.3219536e-07 	0.00024551181
0.5 	0.00095568701 	0.00023862215 	9.1223526e-08 	0.00086885983 	1.6399805e-07 	0.00023020519
0.51086957 	0.0010097765 	0.00032098408 	3.7481147e-07 	0.00090918208 	1.6442268e-07 	0.00067180324
0.52173913 	0.0010635129 	0.00038078418 	3.7817373e-07 	0.0009519854 	1.6589764e-07 	0.00067982228
0.5326087 	0.0011195387 	0.00041654787 	1.1375966e-07 	0.00099901904 	9.997711e-08 	0.00023422579
0.54347826 	0.0011772895 	0.00044884668 	9.3834856e-08 	0.0010494697 	8.2466296e-08 	0.00038268051
0.55434783 	0.0012318384 	0.00047685003 	1.1231459e-07 	0.0010982044 	2.8660572e-07 	0.00083704627
0.56521739 	0.0012757481 	0.00049059916 	2.8636016e-08 	0.0011375136 	1.1289149e-08 	0.00071967335
0.57608696 	0.0013103958 	0.00048996511 	1.8786036e-07 	0.001168399 	7.406001e-08 	3.347315e-05
0.58695652 	0.0013464453 	0.00049074796 	3.8822787e-08 	0.0012035802 	1.530507e-08 	0.00074971424
0.59782609 	0.0013756016 	0.00048944513 	-1.1428068e-07 	0.0012316073 	3.6357324e-08 	0.00094005663
0.60869565 	0.0013961341 	0.00048493121 	1.4277911e-07 	0.0012503216 	2.7605191e-08 	0.00033797354
0.61956522 	0.0014150428 	0.00048037557 	1.0844434e-07 	0.0012692699 	2.096684e-08 	0.00050806971
0.63043478 	0.0014320665 	0.00047692548 	-2.1449672e-07 	0.0012874461 	-1.38508e-07 	0.00099244514
0.64130435 	0.0014436899 	0.00047495071 	1.0492845e-07 	0.0012992511 	1.6939853e-08 	0.00050892389
0.65217391 	0.0014532964 	0.0004742938 	1.2846967e-07 	0.0013103021 	2.0740392e-08 	0.00041038102
0.66304348 	0.0014627269 	0.0004750059 	-9.954906e-08 	0.0013231073 	-1.6189241e-07 	0.0010219639
0.67391304 	0.0014707814 	0.00047777767 	9.5800004e-08 	0.0013334819 	1.8369577e-08 	0.00049735621
0.68478261 	0.0014784206 	0.0004823529 	9.6105075e-08 	0.0013451859 	1.8428074e-08 	0.00050607813
0.69565217 	0.0014880999 	0.00048904496 	3.441085e-09 	0.0013604227 	-5.428418e-08 	0.0010465153
0.70652174 	0.0015024924 	0.00049947041 	1.1875182e-07 	0.0013785129 	3.4672672e-08 	0.00027444394
0.7173913 	0.0015182853 	0.00051230661 	3.5091505e-08 	0.0014012429 	1.0245874e-08 	0.00084784893
0.72826087 	0.0015463268 	0.0005333133 	1.9709858e-08 	0.0014350959 	1.068532e-08 	0.0009552315
0.73913043 	0.0015884146 	0.00056415684 	1.3108363e-07 	0.0014813496 	7.106447e-08 	0.00023401487
0.75 	0.0016412886 	0.00060334389 	5.6532553e-07 	0.0015414905 	7.2271966e-07 	0.0011703281
0.76086957 	0.0017358318 	0.00066910725 	1.6031644e-07 	0.0016369431 	1.4904971e-07 	0.00029342023
0.77173913 	0.0018445252 	0.00074587568 	1.2809388e-08 	0.0017499088 	1.1909169e-08 	0.0012759103
0.7826087 	0.0020307435 	0.0008653528 	1.3594345e-07 	0.0019341641 	1.8647082e-07 	0.00075075467
0.79347826 	0.0022609357 	0.0010110872 	9.0261911e-08 	0.0021626437 	1.238104e-07 	0.0012124258
0.80434783 	0.0025812401 	0.0012012389 	1.0479824e-07 	0.0024800853 	2.1991897e-07 	0.0012140641
0.81521739 	0.0029929716 	0.0014383807 	1.2987353e-07 	0.002888841 	2.7253943e-07 	0.0014802525
0.82608696 	0.0035143808 	0.0017093633 	1.3786914e-07 	0.003408188 	3.698824e-07 	0.0015954685
0.83695652 	0.0041535483 	0.0020172493 	1.0713168e-07 	0.0040477479 	2.8741835e-07 	0.0024334197
0.84782609 	0.004949892 	0.0023886675 	3.2871119e-07 	0.0048410064 	8.955368e-07 	0.0014926445
0.85869565 	0.0058775244 	0.0028170137 	1.0794335e-06 	0.005773284 	2.3888126e-06 	0.0044295556
0.86956522 	0.0069530076 	0.0033008754 	7.8307275e-07 	0.0068412449 	2.1177485e-06 	7.0127322e-05
0.88043478 	0.0081261248 	0.003831156 	1.2626111e-07 	0.0080297071 	2.846459e-07 	0.0058260245
0.89130435 	0.0093102336 	0.0043598399 	2.41782e-07 	0.0092226062 	6.3843936e-07 	0.0052874699
0.90217391 	0.010329167 	0.0048154344 	7.441715e-07 	0.010252387 	1.9256463e-06 	0.00099679747
0.91304348 	0.011166902 	0.0051970661 	6.8725222e-08 	0.011131856 	1.7908988e-07 	0.0073285601
0.92391304 	0.011557049 	0.0053793654 	-7.5907585e-08 	0.011567036 	-7.0705484e-08 	0.008648497
0.93478261 	0.011343525 	0.0052873074 	7.7238643e-08 	0.011400088 	2.1321827e-07 	0.0066650154
0.94565217 	0.010507349 	0.0049110079 	-1.9276966e-06 	0.010622188 	-4.0616536e-06 	0.0078914398
0.95652174 	0.009039028 	0.004235197 	1.3944665e-07 	0.0091843172 	4.3773756e-07 	0.00079738847
0.9673913 	0.0070803048 	0.0033326845 	8.1357771e-08 	0.0072630822 	2.0291183e-07 	0.0040622918
0.97826087 	0.0049036284 	0.0022032756 	3.1909372e-07 	0.0050421136 	8.3001477e-07 	0.00048200668
0.98913043 	0.001876855 	0.00053109077 	3.790909e-07 	0.0018969774 	5.9008917e-07 	0.0001937966
