0.26666667 	2.6018729e-05 	3.3593284e-07 	8.9604031e-09 	2.5158769e-05 	6.0593052e-07 	4.9085538e-08
0.27777778 	0.0069929581 	0.0009151952 	1.0663701e-05 	0.0041749274 	4.9266192e-05 	0.00052924775
0.28888889 	0.010280483 	-0.00013877548 	-9.9286396e-06 	0.0076694085 	7.7558584e-05 	0.0021328486
0.3 	0.011299202 	-0.0014670172 	-1.469079e-06 	0.010124892 	5.5384334e-06 	0.0084242058
0.31111111 	0.012554066 	-0.0031860809 	-3.8847147e-05 	0.013262321 	0.0001138416 	0.0055631183
0.32222222 	0.012578039 	-0.0039181839 	-4.9825223e-06 	0.014599913 	1.378796e-05 	0.011614399
0.33333333 	0.012913566 	-0.0048059299 	-1.1700096e-06 	0.015989182 	3.4119409e-06 	0.012386459
0.34444444 	0.013353804 	-0.0058487715 	-2.7132022e-06 	0.016936133 	3.6931498e-06 	0.012673895
0.35555556 	0.014269447 	-0.0070926668 	-5.1319286e-06 	0.017943216 	1.619256e-05 	0.011774048
0.36666667 	0.016154016 	-0.0082176552 	-1.8613747e-05 	0.020246714 	6.8388209e-05 	0.007711741
0.37777778 	0.018460674 	-0.0098425701 	-2.3300121e-05 	0.023015912 	0.0001165797 	0.0010727288
0.38888889 	0.019097504 	-0.010607918 	-5.3938152e-06 	0.023168436 	3.8819327e-05 	0.0089474013
0.4 	0.020332675 	-0.012167871 	-5.0591808e-06 	0.024329728 	-8.3956974e-06 	0.015058237
0.41111111 	0.020873299 	-0.013494428 	-7.9942718e-06 	0.024402352 	4.1489903e-05 	0.0091540577
0.42222222 	0.01967385 	-0.013022419 	-2.2822955e-05 	0.022532095 	6.3590721e-05 	0.0070583702
0.43333333 	0.018289841 	-0.012507339 	2.9442373e-05 	0.020237652 	-5.0366321e-05 	0.012010309
0.44444444 	0.015280706 	-0.010050895 	-4.4812397e-05 	0.016661663 	8.4174652e-05 	0.0031496231
0.45555556 	0.012581619 	-0.0080310376 	1.1512873e-05 	0.013265174 	-1.7863547e-05 	0.008125043
0.46666667 	0.0092422198 	-0.0056148751 	4.2816466e-07 	0.0095220805 	-6.7788294e-07 	0.0047137316
0.47777778 	0.0069450504 	-0.0040769887 	-3.6259873e-06 	0.0071009704 	6.1245552e-06 	0.0041627793
0.48888889 	0.00446892 	-0.0024447239 	7.2928619e-06 	0.0044992432 	-1.183348e-05 	0.0020490786
0.5 	0.0031606208 	-0.0016229761 	-3.9541031e-06 	0.003178639 	6.936201e-06 	0.001644541
0.51111111 	0.0018496169 	-0.00082705633 	3.8017053e-06 	0.0018484889 	-5.8536589e-06 	0.00069850073
0.52222222 	0.0013076851 	-0.00047046459 	3.5381562e-07 	0.0013126312 	-5.4478603e-07 	0.00067498265
0.53333333 	0.0009153317 	-0.00022626431 	9.4254455e-07 	0.00093170728 	-5.9192537e-07 	0.00029530204
0.54444444 	0.00083247564 	-7.9858414e-05 	1.5624965e-06 	0.00086006372 	-9.8126003e-07 	0.00028807933
0.55555556 	0.00083758053 	3.7341313e-05 	-5.0893021e-07 	0.00089288919 	4.3100802e-07 	0.00025622892
0.56666667 	0.00087653906 	0.0001466171 	2.6279724e-06 	0.00093865309 	1.1077376e-06 	0.00032116881
0.57777778 	0.00094867912 	0.00025320553 	-7.9421259e-07 	0.0010032627 	-8.2636681e-07 	2.989451e-05
0.58888889 	0.0010237903 	0.00036029535 	1.3368601e-06 	0.0010916882 	5.9447504e-07 	0.00042821316
0.6 	0.001091841 	0.00042503176 	3.4748333e-07 	0.0011377771 	1.5451891e-07 	0.00042617896
0.61111111 	0.0011667142 	0.00047064896 	-5.2766465e-09 	0.0011710403 	-1.9625278e-08 	0.00043177082
0.62222222 	0.0012203063 	0.00050341864 	7.6211564e-07 	0.0011935365 	-5.5299547e-08 	0.00048915935
0.63333333 	0.0012706179 	0.00052864976 	1.2869189e-07 	0.0012088928 	1.9735242e-07 	0.00030900826
0.64444444 	0.0013197629 	0.0005501635 	1.4783804e-07 	0.0012199474 	-7.1852688e-08 	0.00052267948
0.65555556 	0.0013570132 	0.00057467586 	3.3576531e-07 	0.0012335958 	-1.6318967e-07 	0.00052961471
0.66666667 	0.0013929866 	0.00059363968 	3.0546208e-07 	0.0012459096 	5.833859e-07 	1.1944793e-05
0.67777778 	0.0014262045 	0.00061824876 	2.2287885e-07 	0.001257666 	-1.362158e-07 	0.00056263663
0.68888889 	0.0014551284 	0.00063804136 	2.8141154e-08 	0.0012724362 	-1.7198894e-08 	0.00057352999
0.7 	0.0014835238 	0.00064766839 	2.1133358e-10 	0.0012870254 	-1.433275e-09 	0.00059448987
0.71111111 	0.0015062962 	0.00065888746 	1.6671107e-08 	0.0013015346 	-1.1306429e-07 	0.00060853783
0.72222222 	0.0015289865 	0.00066608787 	1.0538897e-07 	0.0013129907 	2.7192976e-07 	0.00013886529
0.73333333 	0.0015489618 	0.00067404341 	-1.2210296e-07 	0.0013279365 	-1.9140921e-07 	0.00064505519
0.74444444 	0.0015675197 	0.00067812054 	1.0900469e-07 	0.001338385 	2.036635e-07 	0.00016081969
0.75555556 	0.0015854355 	0.00068460316 	-1.3172307e-07 	0.0013531539 	-9.3210538e-08 	0.00068350044
0.76666667 	0.0016024768 	0.00068654889 	1.1916503e-07 	0.001366407 	1.0471302e-07 	0.00026894396
0.77777778 	0.0016211873 	0.0006943492 	-9.9317475e-08 	0.0013846932 	4.3851517e-08 	0.00072584222
0.78888889 	0.0016416831 	0.00069570182 	1.9007656e-07 	0.0014057494 	2.6534174e-08 	0.00016805315
0.8 	0.0016679899 	0.00070663343 	-4.5651277e-08 	0.0014379508 	3.8520523e-07 	0.00077604417
0.81111111 	0.0017016367 	0.00071057924 	2.0648425e-07 	0.0014781805 	-1.1258999e-07 	0.00020053636
0.82222222 	0.0017523497 	0.00072973739 	8.5807223e-08 	0.0015416305 	3.3689595e-07 	0.00084248011
0.83333333 	0.0018211508 	0.00075660408 	2.3270531e-08 	0.0016208078 	4.3730498e-08 	0.00091806227
0.84444444 	0.0019382959 	0.00082246816 	-4.092036e-08 	0.0017414743 	-4.2135188e-07 	0.00035384165
0.85555556 	0.0020997556 	0.00091492446 	9.686145e-07 	0.0019087832 	1.6976726e-06 	0.001073067
0.86666667 	0.0023214249 	0.0010343511 	-8.4420934e-09 	0.0021320655 	-2.1966694e-08 	0.0012506245
0.87777778 	0.0026529178 	0.001194522 	-6.661212e-07 	0.0024597103 	-1.5069649e-06 	1.385755e-05
0.88888889 	0.0030951188 	0.0014026726 	-2.1292613e-07 	0.0029034118 	-4.8171219e-07 	0.0012215794
0.9 	0.0036747039 	0.0016729456 	1.4842973e-06 	0.0034781342 	3.1618205e-06 	0.0020596088
0.91111111 	0.0043930543 	0.002005687 	2.615565e-06 	0.0041866876 	5.591001e-06 	0.0026101959
0.92222222 	0.0052193558 	0.0023870184 	1.1307629e-06 	0.0050019711 	2.4315811e-06 	0.0032344594
0.93333333 	0.006089517 	0.0027874969 	5.8845742e-07 	0.0058638525 	1.2751319e-06 	0.0038731625
0.94444444 	0.0069024052 	0.0031621544 	8.7133247e-07 	0.0066761679 	1.9072659e-06 	0.0044643232
0.95555556 	0.007492556 	0.0034358538 	1.3672145e-07 	0.0072758053 	2.3027226e-07 	0.0035228292
0.96666667 	0.0075408312 	0.0034659312 	2.9511037e-08 	0.0073653152 	5.6119812e-08 	0.0049163145
0.97777778 	0.0064000445 	0.0029500631 	5.1581789e-07 	0.0062892802 	1.0123948e-06 	0.0019339819
0.98888889 	0.0030316261 	0.0014012529 	3.1357357e-07 	0.0030032555 	6.0274377e-07 	0.0016043237
