0.47777778 	0.0033406279 	-0.0015529024 	1.2899012e-07 	0.0033370892 	-2.4763941e-07 	4.6820211e-05
0.48888889 	0.0075221733 	-0.0034989665 	5.0422712e-08 	0.0075249839 	-6.9746243e-08 	0.0035276501
0.5 	0.0074440148 	-0.0034621017 	-5.164712e-08 	0.0074418676 	1.5167638e-07 	0.0036025469
0.51111111 	0.0062290446 	-0.002897928 	-1.3280525e-07 	0.0062222198 	3.1351844e-07 	0.0036701193
0.52222222 	0.0046132795 	-0.0021491917 	-3.3133914e-07 	0.0046031941 	7.6120784e-07 	0.0011911547
0.53333333 	0.003157628 	-0.001478648 	-1.3063743e-08 	0.0031522784 	2.9758033e-08 	0.0026572514
0.54444444 	0.002100517 	-0.00090246031 	-7.2532659e-08 	0.0020984475 	1.1527989e-07 	0.001651417
0.55555556 	0.0014577047 	-0.00045086879 	-1.129314e-07 	0.0014613977 	1.6157048e-07 	0.00085873582
0.56666667 	0.0011619653 	-0.00018956176 	-7.7281889e-08 	0.0011704359 	5.1142707e-08 	0.00061746331
0.57777778 	0.0010781902 	-2.1008254e-05 	-3.6031944e-08 	0.001092885 	-1.7556596e-08 	0.00066448241
0.58888889 	0.0010872579 	0.00011248812 	-4.030328e-09 	0.001109995 	-1.0671132e-08 	0.00090563142
0.6 	0.0011262858 	0.00021815073 	-2.3671945e-09 	0.0011553755 	-6.2676397e-09 	0.00098696165
0.61111111 	0.0011710093 	0.00030253959 	5.9105308e-09 	0.0012038786 	-7.4700405e-08 	0.00055506264
0.62222222 	0.0012151266 	0.00037410328 	5.5476704e-08 	0.0012502369 	-1.5967483e-07 	2.5232788e-05
0.63333333 	0.0012559805 	0.00043397842 	3.0328328e-08 	0.0012955726 	-5.8180897e-08 	0.00076396791
0.64444444 	0.0012944348 	0.00048652 	1.4326794e-08 	0.0013362837 	-2.7484065e-08 	0.0010172374
0.65555556 	0.001330212 	0.00053295322 	1.016472e-07 	0.0013701908 	-1.6035709e-07 	0.00012206779
0.66666667 	0.001362057 	0.00057282254 	3.2035134e-08 	0.0014043963 	-4.6284764e-08 	0.00094140877
0.67777778 	0.0013912347 	0.00060786343 	5.3801994e-08 	0.0014326485 	-7.7733797e-08 	0.00074915484
0.68888889 	0.0014175854 	0.00063824817 	8.525888e-08 	0.0014572915 	-1.1965763e-07 	0.00046480303
0.7 	0.0014409818 	0.00066465566 	1.9823117e-08 	0.0014814654 	-2.7820997e-08 	0.0011447653
0.71111111 	0.0014621342 	0.00068260085 	4.1400154e-08 	0.0014981514 	-1.5701987e-07 	0.00021570229
0.72222222 	0.0014805775 	0.00069794357 	2.2888337e-09 	0.0015177376 	-8.6809426e-09 	0.0013137086
0.73333333 	0.0014965067 	0.00070477476 	-2.8941656e-08 	0.0015282055 	-1.5923674e-07 	0.00018683647
0.74444444 	0.0015109187 	0.00071163079 	-1.0201877e-09 	0.001543448 	-5.6130637e-09 	0.0013570606
0.75555556 	0.0015226611 	0.00071586272 	-2.5324411e-08 	0.0015497423 	-1.5613637e-07 	0.00017038251
0.76666667 	0.0015334898 	0.00072110374 	-1.315457e-08 	0.0015616452 	-3.0717638e-08 	0.0014133931
0.77777778 	0.0015426948 	0.00072408998 	-2.3228548e-08 	0.0015651481 	-1.5959507e-07 	6.9333676e-05
0.78888889 	0.001551186 	0.00072819811 	-6.1824661e-10 	0.0015746636 	-1.6597876e-08 	0.0012683949
0.8 	0.0015598691 	0.00073119339 	-3.3459059e-09 	0.0015795002 	-8.9826507e-08 	0.00059600769
0.81111111 	0.0015699632 	0.00073006399 	1.7293547e-08 	0.0015874933 	-7.6148538e-08 	0.00061767447
0.82222222 	0.0015815609 	0.00072380238 	-3.4270729e-09 	0.0015988608 	-1.9578848e-09 	0.001438753
0.83333333 	0.001601473 	0.00072137384 	3.7484287e-08 	0.0016132463 	-7.4677365e-08 	0.00040861739
0.84444444 	0.0016302192 	0.00072406542 	3.7822207e-08 	0.0016387213 	-3.737495e-08 	0.00054213095
0.85555556 	0.0016724334 	0.0007343467 	4.8976411e-09 	0.0016785504 	5.0271756e-10 	0.0014036342
0.86666667 	0.0017441737 	0.00075884913 	1.4080887e-08 	0.0017460938 	1.4453303e-09 	0.0012889165
0.87777778 	0.0018643564 	0.00081487013 	7.0607378e-08 	0.0018604051 	5.9162213e-08 	0.00073810932
0.88888889 	0.0020508694 	0.00092891247 	1.6305555e-07 	0.0020398487 	1.8886363e-07 	0.00029866189
0.9 	0.0023342901 	0.0010811015 	2.2595178e-07 	0.0023167784 	3.6108372e-07 	1.5625544e-05
0.91111111 	0.0027601841 	0.0012792745 	2.6243248e-07 	0.0027374045 	5.1540816e-07 	1.7804654e-05
0.92222222 	0.0033719004 	0.0015628496 	2.6739938e-07 	0.0033442214 	5.3596269e-07 	0.00057037606
0.93333333 	0.0041685294 	0.0019328728 	1.5920824e-07 	0.0041383334 	3.2133148e-07 	0.0020919933
0.94444444 	0.0050660822 	0.0023504782 	7.4446814e-07 	0.0050371708 	1.6009981e-06 	0.0044341159
0.95555556 	0.0058756356 	0.0027249856 	1.5938804e-07 	0.0058405948 	3.1158315e-07 	0.0014129955
0.96666667 	0.006407829 	0.0029747295 	1.6050543e-09 	0.0063846257 	2.8957566e-09 	0.0055045833
0.97777778 	0.0062303269 	0.0028927522 	1.9306257e-08 	0.0062105084 	2.8362493e-08 	0.0032530235
0.98888889 	0.00389857 	0.0018128153 	-8.3247803e-09 	0.0038916688 	-2.2047477e-08 	0.0023273672
