0.4742268 	0.29268949 	3.8777476e-05 	-1.5002003e-09
0.48453608 	0.90456196 	0.00046918477 	-2.1210539e-08
0.49484536 	1.2098323 	0.001184988 	3.1931987e-06
0.50515464 	1.3807853 	0.0018567463 	-2.2542688e-08
0.51546392 	1.4533527 	0.0022384293 	1.6091887e-07
0.5257732 	1.4779669 	0.0022718065 	-7.8634054e-07
0.53608247 	1.4828054 	0.002218392 	-4.3611547e-07
0.54639175 	1.4817218 	0.0021184963 	-8.7788292e-08
0.55670103 	1.4791189 	0.0020093166 	-3.925931e-08
0.56701031 	1.4760486 	0.0018955557 	-4.4523134e-07
0.57731959 	1.4727663 	0.0017810287 	-1.31446e-06
0.58762887 	1.4693452 	0.0016671979 	-2.0302143e-06
0.59793814 	1.4658151 	0.0015540758 	-4.242668e-07
0.60824742 	1.4621353 	0.0014398015 	-1.1414333e-07
0.6185567 	1.4584376 	0.0013292754 	-7.6072162e-07
0.62886598 	1.4546205 	0.0012178756 	-1.6844722e-06
0.63917526 	1.4506944 	0.0011053992 	-6.1162216e-08
0.64948454 	1.4467651 	0.00099603287 	-1.2764387e-06
0.65979381 	1.442748 	0.00088618117 	-5.5792252e-07
0.67010309 	1.4386582 	0.00077628531 	-5.1386073e-09
0.68041237 	1.4345314 	0.00066823972 	-1.7599152e-06
0.69072165 	1.4303155 	0.00055931449 	-7.7345396e-09
0.70103093 	1.4261136 	0.0004538418 	-2.225095e-06
0.71134021 	1.4217914 	0.00034690088 	5.6181505e-09
0.72164948 	1.4175185 	0.00024451763 	-1.9588735e-06
0.73195876 	1.4131851 	0.00014239854 	9.523692e-09
0.74226804 	1.408738 	4.1399811e-05 	-1.2357742e-06
0.75257732 	1.4042786 	-5.7880979e-05 	-6.2626108e-08
0.7628866 	1.3996427 	-0.0001566767 	-7.1634339e-07
0.77319588 	1.3949152 	-0.0002548068 	-1.636528e-07
0.78350515 	1.3900562 	-0.0003508799 	-7.9262253e-07
0.79381443 	1.385087 	-0.0004459346 	1.6895197e-08
0.80412371 	1.3799131 	-0.00053947661 	-1.3596205e-06
0.81443299 	1.3746409 	-0.000631194 	9.2405359e-08
0.82474227 	1.369032 	-0.00072320265 	-1.2189999e-06
0.83505155 	1.3632549 	-0.00081287608 	-1.2360421e-07
0.84536082 	1.357158 	-0.00090086351 	5.0511755e-08
0.8556701 	1.3506162 	-0.00098800048 	-1.0338888e-06
0.86597938 	1.3436622 	-0.0010733265 	-4.3663293e-07
0.87628866 	1.3361413 	-0.0011559715 	1.0294689e-07
0.88659794 	1.3277743 	-0.001237069 	5.7394227e-08
0.89690722 	1.3183344 	-0.0013150547 	-2.2327643e-07
0.90721649 	1.3073975 	-0.0013881091 	-4.2080891e-07
0.91752577 	1.2941777 	-0.0014531158 	-3.7319783e-07
0.92783505 	1.2770886 	-0.0015016223 	-1.4469732e-07
0.93814433 	1.2528992 	-0.0015146363 	2.7467179e-08
0.94845361 	1.2141237 	-0.001451944 	2.5877616e-07
0.95876289 	1.1471143 	-0.0012608808 	9.0299893e-07
0.96907216 	1.032591 	-0.00089474128 	2.3500607e-07
0.97938144 	0.84354943 	-0.00044593595 	4.571378e-07
0.98969072 	0.52562656 	-0.00010704651 	1.8013815e-07
