1.640171e-35 	0.59472219 	-4.0390503e-14 	-1.4680879e-20
0.010869565 	0.59514564 	-0.00048349208 	3.3791784e-08
0.02173913 	0.59680803 	-0.00097620444 	-2.1896575e-08
0.032608696 	0.59999614 	-0.0014810142 	4.5163071e-09
0.043478261 	0.60474631 	-0.0019879982 	-3.7514317e-08
0.054347826 	0.61105318 	-0.0025037947 	9.1278493e-07
0.065217391 	0.61944857 	-0.003042951 	1.0858053e-06
0.076086957 	0.62816945 	-0.0035064191 	6.6505392e-07
0.086956522 	0.63898824 	-0.0039873421 	2.6583916e-07
0.097826087 	0.65120099 	-0.004458312 	5.8503096e-07
0.10869565 	0.66471151 	-0.0049240922 	8.8096238e-07
0.11956522 	0.6797386 	-0.0053540147 	8.4984428e-07
0.13043478 	0.69587728 	-0.0057556326 	2.0667138e-06
0.14130435 	0.712907 	-0.0061349654 	1.2641955e-07
0.15217391 	0.73121771 	-0.0064669631 	4.8834013e-06
0.16304348 	0.74984436 	-0.0067900143 	5.2670708e-07
0.17391304 	0.76960979 	-0.0070624421 	5.9542846e-06
0.18478261 	0.78950236 	-0.0073227684 	1.6604628e-06
0.19565217 	0.81035246 	-0.0075181417 	7.7176847e-06
0.20652174 	0.83139889 	-0.0077039064 	3.4157175e-07
0.2173913 	0.8534727 	-0.0078078602 	1.1396803e-05
0.22826087 	0.8757419 	-0.0079112466 	1.3181355e-06
0.23913043 	0.89882865 	-0.0079262079 	1.1783426e-05
0.25 	0.92212657 	-0.0079282079 	2.8876554e-06
0.26086957 	0.94621188 	-0.0078698949 	5.1843362e-06
0.27173913 	0.97067625 	-0.0077522647 	1.1877119e-05
0.2826087 	0.99587887 	-0.0076180468 	4.1176164e-06
0.29347826 	1.0208372 	-0.0073850092 	1.437478e-05
0.30434783 	1.0462775 	-0.0071324891 	5.7407254e-06
0.31521739 	1.0725153 	-0.0068284886 	2.27036e-06
0.32608696 	1.0982438 	-0.0064448654 	2.1016064e-05
0.33695652 	1.1241869 	-0.0060478247 	1.7995225e-06
0.34782609 	1.1507753 	-0.0055733186 	2.4489543e-06
0.35869565 	1.175874 	-0.0050354211 	2.270566e-05
0.36956522 	1.2009568 	-0.0044780573 	2.5953166e-06
0.38043478 	1.2258537 	-0.0038388719 	4.2071583e-06
0.39130435 	1.2476741 	-0.0032358699 	1.2614564e-05
0.40217391 	1.267767 	-0.0026878339 	8.6819714e-06
0.41304348 	1.2854908 	-0.0022190271 	5.8472347e-06
0.42391304 	1.3008755 	-0.0017694462 	4.213521e-07
0.43478261 	1.3103467 	-0.001449283 	1.1841766e-05
0.44565217 	1.3180733 	-0.0011678346 	1.6434525e-06
0.45652174 	1.3202819 	-0.00099636235 	5.6727602e-06
0.4673913 	1.3218645 	-0.00079871823 	1.7482221e-06
0.47826087 	1.3213201 	-0.00061091853 	4.5063474e-06
0.48913043 	1.3193801 	-0.00042165905 	3.231749e-06
0.5 	1.3159411 	-0.00021282103 	4.7108604e-06
0.51086957 	1.3125156 	8.7808703e-06 	2.1223405e-06
0.52173913 	1.3089694 	0.00019156719 	2.5410434e-06
0.5326087 	1.3053067 	0.00034695755 	4.079157e-06
0.54347826 	1.3015128 	0.00051878356 	3.5675474e-06
0.55434783 	1.297714 	0.00070017677 	2.7534043e-06
0.56521739 	1.2939962 	0.0008590456 	1.3053162e-07
0.57608696 	1.290424 	0.00099435632 	5.9384623e-06
0.58695652 	1.2867106 	0.0011835685 	8.322081e-07
0.59782609 	1.2830757 	0.0013436378 	2.1790184e-06
0.60869565 	1.2795293 	0.0014829101 	3.3574997e-06
0.61956522 	1.2759371 	0.0016455637 	2.644707e-06
0.63043478 	1.2722805 	0.0018148515 	2.8837505e-06
0.64130435 	1.2686496 	0.0019575725 	2.1253035e-06
0.65217391 	1.2649643 	0.0021121026 	3.0230126e-06
0.66304348 	1.2611223 	0.0022864988 	2.2717092e-06
0.67391304 	1.257197 	0.0024293645 	2.0182486e-06
0.68478261 	1.2531214 	0.0025884569 	2.2445771e-06
0.69565217 	1.2487683 	0.0027597625 	1.8195082e-06
0.70652174 	1.2441358 	0.0028983308 	2.7702229e-06
0.7173913 	1.2391995 	0.0030761301 	6.0632445e-07
0.72826087 	1.2336425 	0.0032377913 	1.3616741e-08
0.73913043 	1.2273564 	0.0033814206 	2.7549003e-06
0.75 	1.2202988 	0.0035697177 	1.7805163e-06
0.76086957 	1.2117941 	0.0037198307 	2.0123831e-06
0.77173913 	1.2022898 	0.003914722 	1.1434672e-07
0.7826087 	1.1901458 	0.0040896342 	8.4119437e-07
0.79347826 	1.1761184 	0.0042934131 	5.4597241e-07
0.80434783 	1.1591079 	0.0044928947 	3.3883178e-07
0.81521739 	1.1388336 	0.0046985712 	5.4221711e-07
0.82608696 	1.1144876 	0.0049016326 	2.5757802e-07
0.83695652 	1.0854387 	0.0051055512 	2.0787771e-07
0.84782609 	1.0498958 	0.0052973044 	2.9604755e-07
0.85869565 	1.0081088 	0.0055093827 	5.4573844e-07
0.86956522 	0.95803766 	0.0056636391 	1.2522677e-07
0.88043478 	0.90027553 	0.0058350058 	1.821689e-07
0.89130435 	0.83390549 	0.0059327238 	-6.8939705e-08
0.90217391 	0.76098018 	0.005928544 	-6.9158046e-07
0.91304348 	0.6812838 	0.0058526728 	-3.2045954e-08
0.92391304 	0.59776378 	0.0056080532 	-1.8351858e-06
0.93478261 	0.51455505 	0.0051752791 	-2.0012478e-07
0.94565217 	0.42628652 	0.0045071438 	-3.808951e-06
0.95652174 	0.34656077 	0.0036604133 	-1.2787122e-06
0.9673913 	0.27310744 	0.0026327559 	-1.899954e-07
0.97826087 	0.20769446 	0.0015514536 	-6.8610878e-07
0.98913043 	0.12588765 	0.00056684534 	-2.3714016e-07
