0.36082474 	0.0040791455 	-0.0019094711 	2.0504158e-08 	0.0028558388 	-3.9409941e-08 	0.0031733932
0.37113402 	0.0016627145 	-0.00042278683 	-4.3409085e-07 	0.0016031477 	-6.878699e-07 	0.0011257796
0.3814433 	0.0014572437 	0.0001585826 	-4.6826117e-07 	0.002262747 	-1.5913617e-06 	0.00063625693
0.39175258 	0.0014326955 	0.00024597795 	6.2402502e-08 	0.0024913465 	-9.4927288e-07 	0.00043933739
0.40206186 	0.0014291711 	0.00024704835 	-3.3850679e-08 	0.0025150954 	-2.9820565e-07 	0.0006293317
0.41237113 	0.0014186745 	0.00025191469 	-2.7533307e-10 	0.002510203 	-4.7396949e-07 	0.00050622832
0.42268041 	0.001407396 	0.00026279652 	3.729996e-08 	0.0025038226 	-5.3373487e-07 	0.00039067609
0.43298969 	0.0013988205 	0.00027633298 	8.1154978e-08 	0.0025012291 	-7.5689683e-07 	0.00028124053
0.44329897 	0.001393171 	0.00029073203 	1.3049559e-07 	0.0025028724 	-1.0364217e-06 	0.00017652555
0.45360825 	0.0013898796 	0.00030549918 	1.0105146e-07 	0.0025078422 	-7.1991776e-07 	7.5292732e-05
0.46391753 	0.0013883494 	0.00032047997 	3.4683145e-08 	0.0025154027 	-2.2961425e-07 	3.4167662e-05
0.4742268 	0.0013883641 	0.00033554487 	4.0437323e-08 	0.0025255642 	-2.6770887e-07 	0.00013083202
0.48453608 	0.0013895209 	0.0003506516 	1.5049684e-07 	0.0025368187 	-9.5409604e-07 	0.00022572424
0.49484536 	0.0013913097 	0.00036573336 	3.4190861e-08 	0.0025484831 	-2.1514006e-07 	0.00032076593
0.50515464 	0.0013935965 	0.00038065827 	4.3291686e-09 	0.0025607201 	-2.7240542e-08 	0.00040441086
0.51546392 	0.0013964057 	0.00039550607 	1.086779e-07 	0.0025724856 	-6.9870352e-07 	0.00049382357
0.5257732 	0.0013992199 	0.00040984918 	2.9724036e-07 	0.0025818318 	-5.7413079e-07 	3.5382561e-05
0.53608247 	0.0014023253 	0.00042465946 	9.2102422e-08 	0.002595036 	-6.3111079e-07 	0.00065424717
0.54639175 	0.0014052398 	0.00043850822 	2.5725252e-07 	0.0026031665 	-5.061958e-07 	0.00023724938
0.55670103 	0.0014081692 	0.00045277693 	5.6557152e-08 	0.0026145075 	-4.3520002e-07 	0.00080190344
0.56701031 	0.0014107357 	0.00046586427 	3.1401264e-07 	0.0026199467 	-6.3874707e-07 	0.00022263306
0.57731959 	0.0014132775 	0.00047964939 	5.6082244e-08 	0.0026295548 	-5.0494038e-07 	0.00093658499
0.58762887 	0.0014151971 	0.0004918586 	4.338493e-07 	0.0026311393 	-9.2787709e-07 	1.2140776e-05
0.59793814 	0.0014171676 	0.00050510373 	2.7931492e-08 	0.0026391426 	-3.161994e-07 	0.0010579727
0.60824742 	0.0014183242 	0.00051684334 	2.7116148e-07 	0.0026388212 	-6.2146265e-07 	0.00041523552
0.6185567 	0.0014193131 	0.00052875916 	1.3089965e-07 	0.0026410209 	-3.0000294e-07 	0.00082580491
0.62886598 	0.0014198551 	0.00054044367 	6.2610622e-08 	0.0026409144 	-1.5719859e-07 	0.0010141885
0.63917526 	0.0014195091 	0.00055068293 	3.5142996e-07 	0.0026342606 	-8.8234699e-07 	0.00020935706
0.64948454 	0.0014193278 	0.00056191079 	5.7241719e-09 	0.0026341256 	-1.5808764e-07 	0.0012789164
0.65979381 	0.0014180938 	0.00057147602 	2.0060966e-07 	0.0026241551 	-5.6458909e-07 	0.00060593951
0.67010309 	0.001416513 	0.00058109396 	2.1591619e-07 	0.0026148734 	-6.0766725e-07 	0.00058169334
0.68041237 	0.0014148732 	0.00059128842 	2.6017022e-09 	0.0026075488 	-1.729218e-07 	0.0013557315
0.69072165 	0.0014122248 	0.00059899663 	2.6358455e-07 	0.0025898429 	-8.4932241e-07 	0.00025212161
0.70103093 	0.0014093552 	0.00060820346 	8.5130495e-08 	0.0025771289 	-2.7430757e-07 	0.001027495
0.71134021 	0.0014062762 	0.00061654265 	8.4663272e-08 	0.0025594422 	-3.1676008e-07 	0.0009495786
0.72164948 	0.0014027451 	0.00062379685 	1.9182582e-07 	0.0025376324 	-7.1769919e-07 	0.00038964439
0.73195876 	0.0013990349 	0.00063229446 	-2.5311808e-09 	0.0025193502 	-2.1018844e-07 	0.0014063458
0.74226804 	0.0013956321 	0.00063873982 	1.9365307e-07 	0.0024910078 	-8.467065e-07 	0.00011338999
0.75257732 	0.0013916497 	0.00064666385 	9.189462e-10 	0.0024686782 	-4.0178952e-09 	0.0013946899
0.7628866 	0.001388898 	0.00065339263 	1.1358438e-07 	0.0024375312 	-5.8274435e-07 	0.0004221113
0.77319588 	0.0013857655 	0.00066076276 	2.3651478e-08 	0.0024094982 	-1.2134384e-07 	0.0011793278
0.78350515 	0.0013842183 	0.00066771751 	7.4621493e-08 	0.0023761476 	-4.4981535e-07 	0.00053874393
0.79381443 	0.0013827747 	0.00067505557 	1.6033601e-08 	0.002344634 	-9.6649901e-08 	0.0011737945
0.80412371 	0.0013835396 	0.00068216822 	6.1588219e-08 	0.0023089452 	-4.3426601e-07 	0.00043200653
0.81443299 	0.0013846603 	0.00068986441 	-1.7535155e-09 	0.0022763992 	-1.4725071e-07 	0.0013150598
0.82474227 	0.0013890792 	0.00069719234 	6.321545e-08 	0.0022394445 	-5.1183022e-07 	6.9600416e-05
0.83505155 	0.0013941198 	0.00070564027 	-7.4785797e-10 	0.0022082888 	-2.0132711e-07 	0.0012737032
0.84536082 	0.0014031995 	0.00071397411 	2.4898294e-08 	0.0021753292 	-2.1942027e-07 	0.00063275239
0.8556701 	0.0014151937 	0.00072339699 	2.1984391e-08 	0.0021460223 	-1.8729074e-07 	0.00058720476
0.86597938 	0.0014309811 	0.00073411607 	2.5977502e-08 	0.0021215882 	-4.4692212e-07 	0.0012138859
0.87628866 	0.0014538666 	0.00074669205 	1.7279833e-08 	0.0021002038 	-1.1810475e-07 	0.00068399449
0.88659794 	0.0014850055 	0.00076235154 	3.5879429e-08 	0.0020851527 	-1.6181889e-07 	0.00023731112
0.89690722 	0.0015268055 	0.00078262215 	7.3147472e-09 	0.0020806323 	-1.8386858e-08 	0.0010112809
0.90721649 	0.0015866108 	0.00080951894 	1.5442273e-07 	0.0020871076 	-8.5232063e-08 	0.0011746346
0.91752577 	0.00166996 	0.00084545211 	1.3319627e-07 	0.0021104613 	5.3865938e-08 	0.0011919896
0.92783505 	0.0017848034 	0.00089384379 	2.6868833e-08 	0.0021602481 	2.7573272e-08 	0.0012254065
0.93814433 	0.001940775 	0.00095930889 	1.1905742e-08 	0.0022502162 	1.7114489e-08 	0.0012769391
0.94845361 	0.0021417659 	0.0010445793 	2.099857e-07 	0.0023902886 	3.4984308e-07 	0.0013436994
0.95876289 	0.0023766621 	0.0011454062 	3.6558441e-08 	0.0025718914 	6.5053928e-08 	0.0013976728
0.96907216 	0.002591658 	0.0012357521 	1.2132387e-07 	0.0027343812 	1.9069349e-07 	0.0014727355
0.97938144 	0.0025968912 	0.0012251034 	-7.8330732e-08 	0.0026739274 	-2.0499444e-07 	0.00060872505
0.98969072 	0.0015347343 	0.000717268 	-1.2893434e-09 	0.0015465277 	-2.9241523e-09 	0.00086226523
