0.29896907 	0.33462466 	0.072797571 	2.6595784e-06
0.30927835 	1.2713749 	0.27193167 	-0.00017633255
0.31958763 	1.2965547 	0.2669242 	-0.00058292177
0.32989691 	1.2919398 	0.25503434 	-3.1284562e-05
0.34020619 	1.2881949 	0.24402619 	-0.00012222576
0.35051546 	1.2857925 	0.23458192 	-6.9520917e-05
0.36082474 	1.2832324 	0.22528934 	-0.0001330861
0.37113402 	1.280659 	0.21647175 	-0.00012449422
0.3814433 	1.278024 	0.2080833 	-3.6676681e-05
0.39175258 	1.2751917 	0.19997164 	-0.00013667299
0.40206186 	1.2726295 	0.19241733 	-2.2143273e-05
0.41237113 	1.2698065 	0.18526107 	-0.00015765984
0.42268041 	1.2668632 	0.17838584 	-3.7544756e-05
0.43298969 	1.263761 	0.1715277 	-0.00018321592
0.44329897 	1.2610287 	0.16547562 	-6.4287013e-05
0.45360825 	1.2577121 	0.15922083 	-0.00017080852
0.46391753 	1.2547271 	0.15349771 	-0.00010189684
0.4742268 	1.2515415 	0.14797312 	-0.00011300155
0.48453608 	1.248241 	0.14247902 	-0.00015775133
0.49484536 	1.2450985 	0.13751005 	-6.9003127e-05
0.50515464 	1.2416573 	0.13238151 	-0.00011258784
0.51546392 	1.2384154 	0.12774846 	-4.9984748e-05
0.5257732 	1.2349618 	0.12312902 	-5.2615294e-05
0.53608247 	1.2315298 	0.11861472 	-6.0295881e-05
0.54639175 	1.2281176 	0.11456629 	-1.4557245e-05
0.55670103 	1.2244642 	0.110028 	-8.2778138e-05
0.56701031 	1.2210833 	0.10638084 	-8.2703934e-05
0.57731959 	1.2173894 	0.10233693 	-3.5301005e-05
0.58762887 	1.2138642 	0.098649505 	-1.5374087e-05
0.59793814 	1.2101886 	0.095133872 	-7.6393625e-05
0.60824742 	1.2064052 	0.09130298 	-4.4854798e-05
0.6185567 	1.2028285 	0.088161129 	-3.0886437e-05
0.62886598 	1.199065 	0.084927518 	-5.3462259e-05
0.63917526 	1.1953005 	0.081483919 	-3.7197696e-05
0.64948454 	1.191493 	0.078580098 	-5.5958817e-05
0.65979381 	1.1876147 	0.075592903 	-3.913534e-05
0.67010309 	1.1838016 	0.072516637 	-2.395556e-05
0.68041237 	1.179712 	0.069744239 	-7.9686567e-05
0.69072165 	1.1756193 	0.066916757 	-2.8347352e-07
0.70103093 	1.1715729 	0.064126108 	-7.875516e-06
0.71134021 	1.167289 	0.06149472 	-8.588046e-05
0.72164948 	1.1630998 	0.058781744 	-1.4024735e-05
0.73195876 	1.1586369 	0.056300613 	-4.2018288e-05
0.74226804 	1.1541314 	0.053775916 	-1.364462e-06
0.75257732 	1.1495682 	0.051317241 	-1.7254339e-06
0.7628866 	1.1447545 	0.048920377 	-2.407809e-05
0.77319588 	1.1399472 	0.046512034 	-6.9240955e-06
0.78350515 	1.1347566 	0.044238196 	-3.2624444e-05
0.79381443 	1.1295778 	0.041906315 	-7.7475365e-06
0.80412371 	1.1239272 	0.039716986 	-2.3859135e-05
0.81443299 	1.1182209 	0.037476508 	-5.3149377e-06
0.82474227 	1.1120155 	0.035335484 	-1.336357e-06
0.83505155 	1.1055847 	0.033196955 	-2.4948513e-07
0.84536082 	1.0987671 	0.03103841 	-6.3272445e-06
0.8556701 	1.0913184 	0.028993235 	-3.1295843e-05
0.86597938 	1.0835442 	0.026893612 	-5.3009689e-06
0.87628866 	1.0749914 	0.024849632 	-4.74375e-06
0.88659794 	1.0655919 	0.022848896 	-1.6538301e-05
0.89690722 	1.0553187 	0.020828778 	-1.1271035e-06
0.90721649 	1.0436069 	0.018789478 	-7.1241149e-06
0.91752577 	1.0296814 	0.01678525 	-7.09584e-06
0.92783505 	1.0124669 	0.014782361 	-4.2043601e-06
0.93814433 	0.9901905 	0.012745112 	-2.8663475e-06
0.94845361 	0.96103123 	0.01072775 	-3.0736817e-06
0.95876289 	0.91621691 	0.0084923402 	-3.979065e-06
0.96907216 	0.85086841 	0.0061847331 	-6.0717004e-06
0.97938144 	0.74526443 	0.0036798887 	-1.9701052e-06
0.98969072 	0.52663454 	0.0011909779 	-2.7925638e-06
