0.46067416 	0.0027522693 	-0.0013334686 	-9.9440925e-07 	0.0030047763 	2.2133758e-06 	4.9424173e-05
0.47191011 	0.0069456968 	-0.0033469522 	-1.2547136e-06 	0.0074657877 	2.6955768e-06 	0.0004239419
0.48314607 	0.0071637512 	-0.0034400324 	6.8599538e-07 	0.0076153169 	-1.6710282e-06 	0.00075320053
0.49438202 	0.0063163415 	-0.0030256291 	3.0903895e-06 	0.0066459074 	-7.0901718e-06 	0.00093027258
0.50561798 	0.0050577544 	-0.0024187389 	1.500808e-06 	0.0052637565 	-3.3908435e-06 	0.00082855865
0.51685393 	0.0037355086 	-0.0017848793 	7.3741779e-06 	0.0038280483 	-1.6673956e-05 	0.00075402577
0.52808989 	0.0026407361 	-0.0012202986 	6.2256035e-06 	0.0026421582 	-1.1781383e-05 	0.00063545574
0.53932584 	0.0018478867 	-0.00069027074 	3.6556666e-06 	0.0017878347 	-5.7160728e-06 	0.00050076981
0.5505618 	0.0013751599 	-0.00033327829 	2.2028731e-06 	0.0012693076 	-3.1789394e-06 	0.0003959749
0.56179775 	0.0011772598 	-0.0001075854 	1.961422e-06 	0.0010184948 	-2.062627e-06 	0.00035265658
0.57303371 	0.0011450155 	5.7449889e-05 	2.3490433e-06 	0.00091660827 	-1.3316752e-06 	0.00036265292
0.58426966 	0.001187983 	0.00019316931 	1.1914633e-06 	0.00088015146 	-3.4223897e-07 	0.00040130213
0.59550562 	0.0012556597 	0.00030384701 	-3.7908729e-08 	0.00087260333 	-5.8459647e-08 	0.00037887133
0.60674157 	0.0013250184 	0.00038967396 	-1.0154493e-07 	0.00087938334 	-1.8833294e-07 	0.00028302972
0.61797753 	0.0013851815 	0.00045494887 	6.9305866e-07 	0.00089912315 	8.0707764e-08 	0.000502122
0.62921348 	0.0014355165 	0.00049986349 	1.3252375e-07 	0.00092941328 	1.1275972e-07 	0.00053513439
0.64044944 	0.0014773294 	0.00052983014 	-1.3762177e-07 	0.00096632485 	-3.1588154e-07 	0.00024023191
0.65168539 	0.0015117156 	0.00055106817 	2.2871846e-07 	0.0010067807 	4.5432988e-07 	0.00056601819
0.66292135 	0.0015436712 	0.0005700796 	-7.6684618e-08 	0.0010446444 	-1.9251007e-07 	0.00037765424
0.6741573 	0.0015712647 	0.00058819376 	7.6565411e-08 	0.0010804427 	1.6696032e-07 	0.00058589779
0.68539326 	0.0015962929 	0.00060393533 	1.8594967e-08 	0.0011132073 	4.7749011e-08 	0.00059812528
0.69662921 	0.0016174792 	0.00061886677 	2.1428213e-08 	0.0011443807 	5.5024352e-08 	0.00059439774
0.70786517 	0.0016358527 	0.00063156966 	1.5231725e-08 	0.0011724067 	5.9666534e-08 	0.00059921568
0.71910112 	0.0016509092 	0.00064361109 	1.0661304e-08 	0.0011990546 	4.1763035e-08 	0.00059165616
0.73033708 	0.00166386 	0.00065384865 	-1.3322806e-09 	0.0012230966 	2.7416792e-08 	0.0005895087
0.74157303 	0.0016740491 	0.00066356889 	-1.5806577e-09 	0.0012461362 	3.2528106e-08 	0.00057847852
0.75280899 	0.0016828256 	0.00067189753 	-1.0243523e-08 	0.0012670765 	1.4492436e-08 	0.00057034796
0.76404494 	0.0016898683 	0.00068012973 	-7.8312581e-09 	0.0012880399 	1.1079588e-08 	0.00055645586
0.7752809 	0.0016962925 	0.00068746066 	-2.462587e-08 	0.0013077416 	2.8865833e-08 	0.00054411831
0.78651685 	0.0017023339 	0.00069515229 	-1.4500736e-08 	0.0013285164 	-6.8338799e-08 	0.00038574433
0.79775281 	0.0017098872 	0.000703691 	-1.2232162e-08 	0.0013519787 	1.5711586e-07 	0.00051351954
0.80898876 	0.0017189226 	0.00071314522 	-1.5993568e-08 	0.0013779248 	-8.8045174e-08 	0.00028662876
0.82022472 	0.0017328654 	0.00072251613 	-5.9153594e-09 	0.0014147707 	1.5277619e-07 	0.00048109806
0.83146067 	0.0017553043 	0.00073262276 	1.7887095e-08 	0.0014630043 	6.6302448e-07 	0.000470027
0.84269663 	0.0017886877 	0.00074415742 	-1.1016199e-08 	0.0015256576 	-2.3901404e-08 	0.00035726937
0.85393258 	0.0018518059 	0.00077122282 	3.3499038e-08 	0.0016179081 	1.3853209e-07 	0.00044323952
0.86516854 	0.0019621387 	0.0008300748 	8.4613733e-07 	0.0017501827 	1.7270078e-06 	0.00044863832
0.87640449 	0.0021329783 	0.00092877339 	1.8758826e-06 	0.001936043 	3.4779618e-06 	0.00046882744
0.88764045 	0.0023888109 	0.0010646165 	1.5464639e-06 	0.0022031875 	3.2233128e-06 	0.00050526909
0.8988764 	0.0027662563 	0.0012468709 	1.3760088e-06 	0.002588308 	2.9667598e-06 	0.0005595676
0.91011236 	0.0033025203 	0.0014971231 	1.6652411e-06 	0.0031257508 	3.5713079e-06 	0.00062764705
0.92134831 	0.004005554 	0.001823217 	2.7891543e-06 	0.0038237834 	5.9763088e-06 	0.00069843221
0.93258427 	0.0048234671 	0.002201957 	4.7944513e-06 	0.0046348797 	1.0298011e-05 	0.00075579809
0.94382022 	0.0056524344 	0.0025860031 	2.95539e-06 	0.0054604411 	6.3780786e-06 	0.00078606923
0.95505618 	0.0063635391 	0.0029164416 	4.1559225e-08 	0.0061748966 	7.1458778e-08 	0.00035821273
0.96629213 	0.0067266059 	0.0030886834 	2.6226112e-07 	0.0065560635 	6.2437781e-07 	0.00076569349
0.97752809 	0.006346787 	0.0029215058 	-2.8503447e-06 	0.0062181942 	-5.9651778e-06 	0.00063493484
0.98876404 	0.0036532294 	0.0016891961 	-7.9140641e-06 	0.0036071111 	-1.6850057e-05 	0.00031259689
