1.4213861e-19 	0.018779329 	-1.2753964e-15 	-4.6357284e-22 	8.6618431e-29 	3.1483507e-35 	1.1443421e-41
0.010869565 	0.018830781 	-0.0010780835 	2.8310888e-07 	0.020381828 	-2.6252778e-05 	0.012995029
0.02173913 	0.018944132 	-0.0019531077 	2.9504444e-07 	0.020517754 	-3.4844951e-05 	0.012017409
0.032608696 	0.01910067 	-0.0028389081 	4.3068795e-08 	0.020687831 	-5.7392788e-06 	0.011074957
0.043478261 	0.019296503 	-0.0037300147 	2.0279432e-07 	0.020887706 	-2.7983571e-05 	0.010190041
0.054347826 	0.019529747 	-0.0046276916 	6.9436614e-08 	0.021108809 	-1.3403217e-06 	0.0055366595
0.065217391 	0.019811046 	-0.0055764048 	2.1369914e-07 	0.021370778 	-2.0467778e-06 	0.002776396
0.076086957 	0.020073044 	-0.0063806614 	1.0072486e-07 	0.021617208 	-6.0011766e-07 	0.0059283874
0.086956522 	0.020371281 	-0.0072243878 	8.2213713e-07 	0.021885645 	-3.1158341e-05 	0.0067705324
0.097826087 	0.020677549 	-0.0080399208 	1.4825768e-06 	0.022150607 	-3.0024558e-05 	0.0059785608
0.10869565 	0.020990134 	-0.0088227272 	3.9863557e-07 	0.022401955 	-1.3486113e-06 	0.0015255395
0.11956522 	0.021288725 	-0.009503167 	2.775812e-06 	0.022636119 	-2.6907787e-05 	0.0043234033
0.13043478 	0.021572633 	-0.010092625 	5.8791969e-06 	0.022842543 	-2.958505e-05 	0.0035463307
0.14130435 	0.021837788 	-0.010591096 	8.0727008e-07 	0.023027543 	-4.0623109e-06 	0.0027207013
0.15217391 	0.022053821 	-0.010944017 	1.6036903e-05 	0.023159535 	-5.4463434e-05 	0.001963329
0.16304348 	0.022255906 	-0.011265672 	3.5188875e-07 	0.023274799 	-1.0106124e-06 	0.0011908426
0.17391304 	0.022384824 	-0.011486913 	1.7255253e-05 	0.023303069 	-4.9556495e-05 	0.00045230803
0.18478261 	0.022499883 	-0.011696978 	3.264226e-06 	0.023317716 	-8.6167955e-06 	0.00037295229
0.19565217 	0.022529691 	-0.011837477 	1.8689501e-05 	0.023241815 	-4.9335924e-05 	0.0010690542
0.20652174 	0.022548885 	-0.011970367 	3.2265273e-07 	0.023154809 	-7.8603635e-07 	0.0017420376
0.2173913 	0.022447092 	-0.012015122 	2.3259688e-05 	0.022946013 	-5.6664516e-05 	0.0023739962
0.22826087 	0.022343283 	-0.012058332 	9.5392129e-08 	0.022734043 	-1.8739769e-07 	0.0024787046
0.23913043 	0.022099445 	-0.012001948 	2.0001244e-05 	0.022384678 	-4.4865468e-05 	0.0034937257
0.25 	0.021831534 	-0.011927971 	7.0222813e-06 	0.022011285 	-1.5751917e-05 	0.0040527846
0.26086957 	0.021460778 	-0.011781983 	8.3948047e-06 	0.021536724 	-1.735509e-05 	0.0043591288
0.27173913 	0.02098563 	-0.01156202 	2.1388051e-05 	0.020963554 	-4.4216819e-05 	0.004836746
0.2826087 	0.020466412 	-0.011310716 	6.8826464e-07 	0.020337114 	-1.2848353e-06 	0.00038359427
0.29347826 	0.019792219 	-0.010953815 	2.2452077e-05 	0.019588728 	-4.2896245e-05 	0.0052649422
0.30434783 	0.019063115 	-0.010557648 	1.210932e-05 	0.018781595 	-2.3135694e-05 	0.0056532396
0.31521739 	0.018224242 	-0.010086262 	2.2042601e-07 	0.017867436 	-4.2717643e-07 	0.0029800286
0.32608696 	0.017233886 	-0.0095095806 	3.2774937e-05 	0.016830827 	-5.8280391e-05 	0.00550865
0.33695652 	0.016208046 	-0.008907605 	7.0855083e-06 	0.015757388 	-1.2599451e-05 	0.0058015817
0.34782609 	0.015020577 	-0.0081934874 	-4.4546726e-08 	0.014529645 	-1.2192063e-08 	0.0028147733
0.35869565 	0.013727691 	-0.0073927634 	3.6012543e-05 	0.013232296 	-5.9105161e-05 	0.0049437737
0.36956522 	0.012391345 	-0.0065576839 	9.4356145e-06 	0.011894677 	-1.5486091e-05 	0.0051392266
0.38043478 	0.010880183 	-0.0055891907 	-7.6908115e-07 	0.010401425 	9.900935e-07 	0.00099089486
0.39130435 	0.0094142131 	-0.004661507 	2.3804147e-05 	0.008982632 	-3.7800123e-05 	0.0034754945
0.40217391 	0.00792905 	-0.0037332275 	2.0409614e-05 	0.0075525181 	-3.2409726e-05 	0.0035783023
0.41304348 	0.0064063836 	-0.0028011422 	-1.054591e-06 	0.0060964277 	1.734222e-06 	0.00085868749
0.42391304 	0.0049741092 	-0.0019419723 	6.1354686e-07 	0.0047441823 	-1.0764875e-06 	0.0015228612
0.43478261 	0.0039154045 	-0.001350851 	2.5158654e-05 	0.0037410566 	-4.4141658e-05 	0.0015559585
0.44565217 	0.0028794342 	-0.00077639779 	-4.302067e-08 	0.0027590514 	1.02162e-07 	0.0014811157
0.45652174 	0.0022442291 	-0.00049233134 	-4.844931e-07 	0.0021507584 	1.1505349e-06 	0.00013970991
0.4673913 	0.0017241444 	-0.00024740721 	2.5457984e-06 	0.0016548711 	-4.6327268e-06 	0.00055930627
0.47826087 	0.0013882769 	-5.4255247e-05 	5.7103509e-06 	0.001332114 	-1.0391434e-05 	0.00056816118
0.48913043 	0.0011493703 	0.00011026088 	-4.1884581e-08 	0.0011002883 	1.2874948e-07 	0.00038379862
0.5 	0.0011213047 	0.00021161575 	-7.9487058e-08 	0.0010670468 	2.4433615e-07 	0.00019602181
0.51086957 	0.0011024131 	0.00030031934 	1.0328064e-06 	0.0010444962 	-4.6754849e-07 	0.00053100289
0.52173913 	0.001099896 	0.0003697027 	1.3206565e-06 	0.0010383791 	-5.9785743e-07 	0.00053759191
0.5326087 	0.0011156012 	0.00042198215 	-2.6316896e-08 	0.0010502063 	2.1906864e-08 	0.00026927663
0.54347826 	0.0011497789 	0.00045826796 	-2.5186692e-08 	0.0010813166 	2.0966053e-08 	0.0003188883
0.55434783 	0.0011817218 	0.00048746006 	2.993698e-07 	0.0011112303 	1.3592213e-07 	0.00061719245
0.56521739 	0.0012112808 	0.00050953893 	7.244001e-08 	0.0011387383 	3.2889758e-08 	0.00062288353
0.57608696 	0.0012378522 	0.00051741182 	-2.265364e-08 	0.0011631394 	-2.5350267e-08 	6.8397273e-05
0.58695652 	0.0012647627 	0.00052387911 	-1.1205303e-09 	0.0011902043 	-1.2539152e-09 	0.00065169378
0.59782609 	0.0012862885 	0.00052634926 	-1.6807865e-07 	0.0012117881 	-1.4612011e-08 	0.00068621072
0.60869565 	0.0013051185 	0.00052646989 	-5.720438e-09 	0.0012304442 	-2.2994645e-08 	0.00035158786
0.61956522 	0.0013213267 	0.00052435284 	-4.773597e-09 	0.0012478329 	-1.9188595e-08 	0.0004293966
0.63043478 	0.0013359122 	0.00052238822 	-3.1279367e-07 	0.0012642395 	-1.9496791e-07 	0.00072838536
0.64130435 	0.0013485796 	0.00052021024 	-1.3619432e-09 	0.0012779239 	-1.4363933e-08 	0.00051250018
0.65217391 	0.0013591189 	0.00051796716 	-2.4939053e-09 	0.0012898492 	-2.6302336e-08 	0.00034238617
0.66304348 	0.001370253 	0.00051716765 	-2.0061676e-07 	0.0013037688 	-1.8469466e-07 	0.00075833342
0.67391304 	0.0013817824 	0.00051776329 	-3.6962409e-10 	0.0013170901 	-1.2437425e-08 	0.00050655581
0.68478261 	0.0013937163 	0.00052010473 	-4.8945763e-10 	0.0013315833 	-1.6469685e-08 	0.00043906267
0.69565217 	0.0014106172 	0.00052621612 	-8.4967352e-09 	0.0013519079 	2.2931976e-08 	0.00078844852
0.70652174 	0.001433252 	0.00053646516 	5.3281304e-09 	0.0013763943 	-6.0302256e-09 	0.00030114136
0.7173913 	0.0014599715 	0.0005502836 	5.5196579e-10 	0.001407045 	-6.246991e-10 	0.00078312287
0.72826087 	0.0015061142 	0.00057675659 	9.4084839e-08 	0.0014556837 	1.4135603e-07 	0.00083848028
0.73913043 	0.001569773 	0.00061503474 	2.755831e-08 	0.001520072 	3.9468169e-08 	0.00018984253
0.75 	0.0016566963 	0.00066795846 	1.0978126e-06 	0.0016099134 	1.6985943e-06 	0.00094076015
0.76086957 	0.0017842787 	0.00074459035 	5.0879973e-08 	0.0017365547 	1.0285386e-07 	0.00034181973
0.77173913 	0.0019455533 	0.00084198967 	4.8806012e-07 	0.0018989083 	8.0288667e-07 	0.0011507564
0.7826087 	0.0021837273 	0.0009807735 	3.9805441e-08 	0.0021350128 	8.5667448e-08 	0.00085559559
0.79347826 	0.0024842515 	0.0011546287 	2.4542344e-08 	0.0024341843 	5.281891e-08 	0.0012891053
0.80434783 	0.0028806251 	0.0013664695 	1.6336376e-08 	0.0028287279 	3.7474414e-08 	0.001427997
0.81521739 	0.0033810515 	0.0016195426 	5.8022474e-08 	0.0033277143 	1.3309918e-07 	0.0016049761
0.82608696 	0.0039986311 	0.0019165301 	3.0177321e-08 	0.0039440254 	7.4194781e-08 	0.0019186222
0.83695652 	0.0047509603 	0.0022638724 	2.8024594e-08 	0.0046960637 	6.8902029e-08 	0.0026898616
0.84782609 	0.0056435293 	0.0026703106 	1.3046016e-07 	0.0055860759 	3.2536763e-07 	0.0018400011
0.85869565 	0.0066654013 	0.003134245 	3.3050888e-06 	0.0066124903 	7.3338772e-06 	0.004009016
0.86956522 	0.0077499729 	0.0036249515 	2.8045344e-07 	0.0076942393 	6.9906922e-07 	0.0002223782
0.88043478 	0.0088698934 	0.0041371377 	2.7392129e-06 	0.0088326778 	6.0895959e-06 	0.0051163722
0.89130435 	0.009894573 	0.0046070827 	1.2446725e-08 	0.0098745867 	3.3463048e-08 	0.0054035648
0.90217391 	0.010651797 	0.0049564765 	-1.2386273e-07 	0.010648871 	-2.4487711e-07 	0.0012409052
0.91304348 	0.011150755 	0.0051942056 	2.9109368e-07 	0.011190184 	6.8935258e-07 	0.0065958631
0.92391304 	0.01120938 	0.0052289217 	-9.2265133e-07 	0.011286896 	-1.8563344e-06 	0.0066768353
0.93478261 	0.01081462 	0.0050537278 	-2.0710758e-08 	0.010929889 	-4.490657e-08 	0.0061320975
0.94565217 	0.0099000356 	0.0046369806 	-3.4833379e-06 	0.010052349 	-7.3990423e-06 	0.0059173325
0.95652174 	0.0085777426 	0.0040254962 	-4.0180252e-07 	0.0087444866 	-8.9412716e-07 	0.00091437199
0.9673913 	0.0069151822 	0.0032541342 	-1.1391471e-08 	0.0070891979 	-2.6587717e-08 	0.0040732694
0.97826087 	0.0050217574 	0.0023044538 	1.9436341e-08 	0.0051326505 	-2.2239712e-07 	0.00056416198
0.98913043 	0.0020888342 	0.00075272714 	1.5626742e-07 	0.002101183 	3.7663818e-08 	0.00019497172
