0.4742268 	0.00052622607 	-0.00015323326 	6.5490596e-09 	0.00052571018 	-1.3395059e-08 	0.00015815647
0.48453608 	0.0071363327 	-0.0033185543 	-6.1036366e-09 	0.0071083855 	1.5975848e-08 	0.0024937849
0.49484536 	0.0062633326 	-0.0029160711 	4.6274117e-06 	0.0062200242 	-1.0052251e-05 	0.0027129382
0.50515464 	0.0036671566 	-0.0017201867 	-6.6029895e-08 	0.0036314982 	1.4294907e-07 	0.0015424536
0.51546392 	0.0020260645 	-0.00084866586 	9.5591581e-07 	0.0020070371 	-1.3716562e-06 	0.00077107546
0.5257732 	0.0013906348 	-0.00033635221 	3.2992692e-06 	0.0013873417 	-2.8481112e-06 	0.00058339726
0.53608247 	0.0012806835 	-6.9437513e-05 	7.053206e-07 	0.0012884932 	-1.1147199e-07 	0.00054679301
0.54639175 	0.0013233029 	0.00011055578 	-1.8827524e-09 	0.0013428498 	-1.8834852e-09 	0.00055513105
0.55670103 	0.0013853526 	0.00023912971 	-5.6593999e-09 	0.0014153907 	-7.0927982e-09 	0.00055842031
0.56701031 	0.0014426375 	0.00033699335 	1.8584293e-07 	0.001481702 	7.9309502e-08 	0.00061967246
0.57731959 	0.0014925861 	0.00041755064 	5.5438948e-07 	0.0015390996 	2.1664687e-07 	0.00064600064
0.58762887 	0.0015358092 	0.00048691173 	7.3227134e-07 	0.0015885072 	2.2840399e-07 	0.00066998571
0.59793814 	0.0015732637 	0.00054764763 	8.6614406e-08 	0.0016311779 	1.7175308e-08 	0.00069144961
0.60824742 	0.0016051181 	0.00059984336 	-6.905701e-08 	0.001666008 	-9.7761744e-08 	2.1859174e-05
0.6185567 	0.0016316696 	0.00064413422 	1.4631115e-07 	0.0016973549 	3.8850561e-09 	0.00071030563
0.62886598 	0.0016540802 	0.00068142371 	2.5063357e-07 	0.0017225694 	-7.1903534e-08 	0.00072623583
0.63917526 	0.001672883 	0.00071250381 	-4.3570509e-08 	0.0017424552 	-6.6607829e-08 	0.00015672867
0.64948454 	0.0016875737 	0.00073716559 	1.0244574e-07 	0.0017598237 	-1.099979e-07 	0.00073910801
0.65979381 	0.0016994793 	0.00075696794 	9.8283166e-09 	0.0017728156 	-5.6922519e-08 	0.0007486338
0.67010309 	0.0017081834 	0.00077163481 	-7.1651458e-09 	0.001781753 	-1.4444739e-08 	0.00058894079
0.68041237 	0.0017141408 	0.00078222983 	-4.8666569e-08 	0.0017881138 	-3.0694058e-07 	0.0007547244
0.69072165 	0.0017180241 	0.00078966296 	-1.3582027e-08 	0.0017908382 	-3.5846092e-08 	0.00030085023
0.70103093 	0.0017196573 	0.00079448502 	-1.5152768e-07 	0.0017927117 	-4.829384e-07 	0.00075736319
0.71134021 	0.001719745 	0.00079712791 	-8.085826e-09 	0.0017909301 	-3.293408e-08 	0.0002776542
0.72164948 	0.0017182495 	0.00079842051 	-1.874589e-07 	0.0017891656 	-4.9257132e-07 	0.00075677169
0.73195876 	0.0017157142 	0.00079841331 	-1.7788357e-09 	0.0017847077 	-1.5987191e-08 	0.00048832666
0.74226804 	0.0017120915 	0.00079776124 	-1.3010001e-07 	0.0017799644 	-3.2610851e-07 	0.00075355183
0.75257732 	0.0017079357 	0.00079659801 	-4.4824684e-13 	0.0017739696 	-2.0390979e-09 	0.00071419679
0.7628866 	0.0017031794 	0.00079520038 	-7.075677e-08 	0.0017673132 	-1.8070174e-07 	0.00074903913
0.77319588 	0.0016982715 	0.00079385925 	-1.8833217e-09 	0.0017603288 	-4.8097095e-09 	0.00074902582
0.78350515 	0.0016934642 	0.00079277658 	-8.1372937e-08 	0.0017533223 	-2.1636029e-07 	0.0007445217
0.79381443 	0.0016889708 	0.00079190798 	4.7951998e-10 	0.001746182 	-7.6403093e-09 	0.00055338606
0.80412371 	0.0016851665 	0.00079165589 	-1.4603273e-07 	0.0017403435 	-4.0383059e-07 	0.00074079315
0.81443299 	0.0016822141 	0.00079147624 	-4.4715355e-10 	0.0017336414 	-2.3620037e-08 	7.8542958e-05
0.82474227 	0.0016805776 	0.000792187 	-1.2995816e-07 	0.0017305787 	-3.4781062e-07 	0.00073840347
0.83505155 	0.0016804341 	0.00079224991 	-3.3021234e-09 	0.0017275511 	-8.1226947e-09 	0.0007377385
0.84536082 	0.0016826763 	0.00079281354 	-3.7820315e-09 	0.0017260217 	-9.2616348e-09 	0.00041215381
0.8556701 	0.0016878359 	0.00079461767 	-9.4525705e-08 	0.0017283779 	-2.2997588e-07 	0.00073923436
0.86597938 	0.0016964198 	0.00079781372 	-2.3473795e-08 	0.0017333336 	-6.1607172e-08 	0.00074346898
0.87628866 	0.0017100537 	0.00080306345 	-3.4332044e-09 	0.0017421292 	-8.8599179e-09 	0.0002234529
0.88659794 	0.0017309345 	0.00081192192 	-5.0537322e-10 	0.0017592784 	-1.8727105e-09 	0.00044476017
0.89690722 	0.0017627524 	0.00082578978 	1.5190736e-08 	0.0017871 	2.5943875e-08 	0.0007640355
0.90721649 	0.0018126549 	0.00084773464 	1.0644968e-07 	0.0018316329 	2.0918068e-07 	0.00078409007
0.91752577 	0.0018933707 	0.0008836992 	2.5644506e-07 	0.0019057457 	5.2420272e-07 	0.00081577039
0.92783505 	0.0020321759 	0.00094628353 	3.6840353e-07 	0.0020363682 	7.6830569e-07 	0.00086724803
0.93814433 	0.0022832966 	0.0010608058 	9.7939192e-08 	0.0022779712 	2.0672905e-07 	0.00095270543
0.94845361 	0.0027635066 	0.001281844 	2.0315773e-07 	0.0027464655 	4.3238806e-07 	0.00015860462
0.95876289 	0.0036054465 	0.0016737349 	1.1078199e-06 	0.0035811636 	2.358629e-06 	0.0016262854
0.96907216 	0.0047230413 	0.0021937091 	2.5658785e-07 	0.0046912434 	5.5545904e-07 	0.00063209185
0.97938144 	0.0053970961 	0.0025080824 	8.2782125e-09 	0.0053749832 	2.471696e-08 	0.0023461903
0.98969072 	0.0034211795 	0.0015950646 	-1.6584673e-06 	0.0034145988 	-3.5302714e-06 	0.0015621188
