0 	0.023434801 	-1.5913926e-15 	-5.7849443e-22 	6.1986962e-18 	2.2539413e-31 	6.5057055e-18
0.010869565 	0.02349267 	0.00063562351 	-7.5481716e-06 	0.028160867 	-0.00012083692 	0.0067844748
0.02173913 	0.023615652 	-0.00078161636 	-5.3433578e-06 	0.028364965 	-6.9634339e-05 	0.0087086343
0.032608696 	0.023817514 	-0.0022483857 	-9.8033034e-07 	0.0286105 	-1.310381e-05 	0.010594603
0.043478261 	0.024093971 	-0.0036814948 	-3.668854e-06 	0.028896941 	-5.3613274e-05 	0.012491089
0.054347826 	0.024436633 	-0.0050791602 	9.2584601e-07 	0.0292187 	-9.875028e-06 	0.0041061145
0.065217391 	0.024859762 	-0.0064892568 	1.2845282e-06 	0.029595477 	-9.5424251e-06 	0.0062884928
0.076086957 	0.025270906 	-0.0076729635 	2.1265306e-06 	0.02994487 	-1.1949371e-05 	0.0054523275
0.086956522 	0.025726677 	-0.0088577255 	-5.4035505e-08 	0.030327669 	-2.691575e-06 	0.019945204
0.097826087 	0.026211797 	-0.010000643 	5.8126667e-08 	0.030713121 	-5.6984005e-06 	0.021903938
0.10869565 	0.026702854 	-0.011080066 	4.2787846e-06 	0.031078853 	-1.7099017e-05 	0.0050856946
0.11956522 	0.027164228 	-0.012044452 	2.0297123e-06 	0.031418191 	-7.2558381e-06 	0.017429788
0.13043478 	0.027612432 	-0.012931268 	1.259212e-06 	0.031713329 	-4.5014451e-06 	0.022270944
0.14130435 	0.028015948 	-0.013657378 	7.1536687e-06 	0.031921505 	-2.3213195e-05 	0.0027424523
0.15217391 	0.02836914 	-0.014273254 	5.8687225e-07 	0.032117079 	-2.5072198e-06 	0.030461404
0.16304348 	0.028629288 	-0.014669891 	7.6935173e-06 	0.032158548 	-2.3180709e-05 	0.00522947
0.17391304 	0.028836437 	-0.015007854 	1.6562676e-06 	0.032188863 	-4.7180896e-06 	0.026261145
0.18478261 	0.02892269 	-0.015216162 	6.7810394e-06 	0.03203097 	-1.9316656e-05 	0.0076247761
0.19565217 	0.028956148 	-0.015387944 	9.7608449e-07 	0.031855109 	-2.6234297e-06 	0.025887042
0.20652174 	0.028824413 	-0.015453999 	6.6897352e-06 	0.031446978 	-1.7980052e-05 	0.0054984518
0.2173913 	0.028657149 	-0.015494001 	3.7369809e-06 	0.031052742 	-9.7659828e-06 	0.026242093
0.22826087 	0.02824577 	-0.015376437 	7.3620509e-06 	0.030342576 	-1.8566847e-05 	0.00033144242
0.23913043 	0.027836675 	-0.015255381 	2.9422948e-06 	0.029708203 	-6.9680162e-06 	0.023056665
0.25 	0.027124397 	-0.014933646 	3.4352287e-06 	0.028706067 	-8.1888776e-06 	0.0097351238
0.26086957 	0.026362461 	-0.01457478 	1.8555772e-06 	0.027693279 	-4.4233139e-06 	0.013361371
0.27173913 	0.025407532 	-0.014083359 	3.1301312e-06 	0.026486757 	-6.6757518e-06 	0.018728783
0.2826087 	0.024159238 	-0.013392002 	3.6577225e-06 	0.024977385 	-8.5493071e-06 	0.0015078257
0.29347826 	0.02292274 	-0.01270177 	1.3307122e-05 	0.023541357 	-2.5616395e-05 	0.014904372
0.30434783 	0.021352861 	-0.011780753 	3.489343e-07 	0.021762573 	-9.5243494e-07 	0.011375831
0.31521739 	0.019616778 	-0.010741769 	9.4894517e-07 	0.019851378 	-2.5901969e-06 	0.00447029
0.32608696 	0.017819125 	-0.0096562017 	3.6560796e-05 	0.017924616 	-6.4670792e-05 	0.01024885
0.33695652 	0.015817552 	-0.0084307432 	-9.2579847e-08 	0.01581217 	-1.4215678e-07 	0.0072478556
0.34782609 	0.013716083 	-0.0071322647 	-1.5848816e-07 	0.013648171 	-2.433593e-07 	0.0032049367
0.35869565 	0.011713659 	-0.0059215482 	4.0532302e-05 	0.011613759 	-7.0086184e-05 	0.0058127484
0.36956522 	0.0097064 	-0.0047235661 	-3.6077714e-08 	0.0095821825 	5.0496406e-08 	0.0053418551
0.38043478 	0.0077626934 	-0.0035963372 	-4.8616559e-07 	0.0076529122 	6.8046482e-07 	0.00093604645
0.39130435 	0.0061392064 	-0.0026855922 	2.0994674e-05 	0.0060477666 	-3.9194476e-05 	0.0023732818
0.40217391 	0.004702114 	-0.0019102637 	1.2842696e-05 	0.0046223793 	-2.3975735e-05 	0.0022863038
0.41304348 	0.0034923269 	-0.0013004636 	-2.2587088e-07 	0.0034239159 	6.6312791e-07 	0.00023067338
0.42391304 	0.0025702785 	-0.00086098947 	2.8314179e-06 	0.002516129 	-6.0379548e-06 	0.0006696489
0.43478261 	0.0019694755 	-0.00057324008 	1.2860739e-05 	0.0019189989 	-2.7425326e-05 	0.00064677384
0.44565217 	0.0013686724 	-0.00028549069 	2.0189012e-07 	0.0013218688 	-4.3052756e-07 	0.00062389878
0.45652174 	0.0011329724 	-0.00016957336 	3.4741472e-08 	0.0010825005 	1.2518033e-07 	0.00013413203
0.4673913 	0.0010033596 	-6.9923737e-05 	2.7706668e-06 	0.00094452979 	-3.2682362e-06 	0.00028404028
0.47826087 	0.00092768432 	2.4913451e-05 	3.5923059e-06 	0.00085653221 	-4.2374291e-06 	0.00027546249
0.48913043 	0.00086341332 	0.00011891838 	1.6815975e-08 	0.00077924314 	2.0365488e-08 	0.00023241654
0.5 	0.00092405326 	0.00020328083 	3.488693e-08 	0.00082041385 	4.2250856e-08 	0.00024281457
0.51086957 	0.00098604867 	0.00026505968 	1.9898803e-06 	0.00086658312 	1.0863472e-06 	0.00032707537
0.52173913 	0.0010484972 	0.00032228167 	1.8222784e-06 	0.00091365751 	9.9484729e-07 	0.00031868364
0.5326087 	0.0011109377 	0.00037562058 	3.4665392e-08 	0.0009613984 	3.1436456e-08 	0.00022934654
0.54347826 	0.0011741286 	0.00040769641 	2.0531223e-08 	0.0010153541 	6.3120625e-08 	0.00036799917
0.55434783 	0.0012266441 	0.00042371762 	3.9525699e-07 	0.0010610942 	1.2151672e-06 	0.00036016651
0.56521739 	0.0012791596 	0.00043973883 	1.8559433e-07 	0.0011068343 	5.7058608e-07 	0.00035233385
0.57608696 	0.0013248276 	0.00044742505 	1.1244806e-07 	0.0011467309 	6.6379994e-08 	2.4282292e-05
0.58695652 	0.0013591579 	0.00044544565 	-2.5977197e-07 	0.0011795891 	1.5030299e-07 	0.00036881527
0.59782609 	0.0013890864 	0.00044224041 	-4.5935952e-07 	0.0012077574 	2.6578352e-07 	0.00036227199
0.60869565 	0.0014188007 	0.00043898781 	5.7845918e-09 	0.0012356967 	2.254534e-09 	0.00033873993
0.61956522 	0.0014378671 	0.00043483194 	-7.955963e-08 	0.0012545105 	-5.1512132e-08 	0.00036214104
0.63043478 	0.0014531722 	0.00043306248 	-4.5705292e-07 	0.0012703612 	-2.9592609e-07 	0.00035698814
0.64130435 	0.0014684773 	0.00043129301 	-6.9027775e-08 	0.0012862119 	-4.4693117e-08 	0.00035183525
0.65217391 	0.0014792707 	0.00043192848 	-1.1346028e-08 	0.0012985345 	-3.60734e-08 	0.00035147773
0.66304348 	0.0014880019 	0.00043599595 	-1.4765595e-07 	0.0013103181 	-4.6945519e-07 	0.00034754518
0.67391304 	0.0014967332 	0.00044006342 	-2.0375324e-08 	0.0013221016 	-6.4781012e-08 	0.00034361262
0.68478261 	0.0015048565 	0.00044679224 	2.5600685e-08 	0.0013346383 	-3.9059416e-08 	0.0003433732
0.69565217 	0.0015153306 	0.00045717368 	1.3054082e-07 	0.00135076 	-1.9916843e-07 	0.00034041491
0.70652174 	0.0015260237 	0.0004676833 	1.484076e-08 	0.0013669926 	6.2965023e-09 	0.00026969663
0.7173913 	0.0015452588 	0.00048516894 	2.9633972e-07 	0.0013931363 	2.2449481e-07 	0.00034308571
0.72826087 	0.00157054 	0.00050722493 	3.2894869e-07 	0.0014254161 	2.4919803e-07 	0.00034087758
0.73913043 	0.0016019937 	0.00053328218 	2.1875436e-08 	0.0014635786 	1.2806058e-08 	0.00024703064
0.75 	0.001665314 	0.00058127008 	1.6590417e-06 	0.0015325357 	1.9643383e-06 	0.00035852297
0.76086957 	0.0017324996 	0.00063170777 	1.7270307e-08 	0.0016046673 	1.5102015e-08 	0.00028407205
0.77173913 	0.0018587946 	0.0007194045 	2.1885651e-06 	0.0017324857 	2.9974237e-06 	0.00040541618
0.7826087 	0.0020090663 	0.00082132765 	7.8949744e-07 	0.001882639 	1.0812831e-06 	0.00040423232
0.79347826 	0.0022354758 	0.00096773069 	2.4460253e-06 	0.0021058013 	3.6728873e-06 	0.00050320607
0.80434783 	0.0025290538 	0.001153584 	2.2622587e-06 	0.0023938431 	3.3969481e-06 	0.00050243818
0.81521739 	0.0029141841 	0.0013824011 	2.7126119e-06 	0.0027733163 	4.9071081e-06 	0.00067226261
0.82608696 	0.0034022677 	0.0016470335 	2.8681061e-06 	0.0032558222 	5.1883968e-06 	0.00067193332
0.83695652 	0.0040143687 	0.0019498202 	4.4392831e-06 	0.0038643702 	9.3274843e-06 	0.00092021865
0.84782609 	0.0047398449 	0.0022944732 	1.463747e-06 	0.0045855143 	3.0755141e-06 	0.00092040286
0.85869565 	0.0056468965 	0.0027131593 	9.2166696e-06 	0.0054888172 	2.0171582e-05 	0.0012533638
0.86956522 	0.0066358639 	0.0031636672 	2.8332458e-07 	0.0064711957 	7.5804639e-07 	3.7243848e-05
0.88043478 	0.0077673921 	0.0036711182 	8.3419155e-06 	0.0076054834 	1.8791002e-05 	0.0016479095
0.89130435 	0.0089017102 	0.0041760082 	4.6735665e-06 	0.0087446881 	1.0753923e-05 	0.0020419091
0.90217391 	0.0099723493 	0.0046497194 	2.0205186e-07 	0.0098237843 	5.2104684e-07 	0.00092142851
0.91304348 	0.010777642 	0.0050087055 	3.6372572e-06 	0.010657471 	8.6234115e-06 	0.0023522793
0.92391304 	0.011208843 	0.0052031424 	2.0956094e-07 	0.011126504 	1.2587167e-06 	0.0024972507
0.93478261 	0.011155567 	0.005181797 	-2.1458247e-06 	0.011123514 	-4.3164033e-06 	0.0024435502
0.94565217 	0.010380012 	0.0048330269 	-6.5787334e-06 	0.010410385 	-1.3770914e-05 	0.002297432
0.95652174 	0.0089647437 	0.0041868785 	7.9819196e-08 	0.0090478317 	2.1973874e-07 	0.00074957863
0.9673913 	0.0069734468 	0.0032712138 	-3.7886582e-06 	0.00710257 	-8.0855583e-06 	0.0015963011
0.97826087 	0.0047475301 	0.0021417672 	7.7322033e-08 	0.0048618505 	2.3633637e-07 	0.00045219951
0.98913043 	0.0017529363 	0.00046045728 	5.0076403e-08 	0.0017708213 	9.7919876e-08 	0.00018754269
