0.47191011 	0.0037155151 	-0.0017679721 	-3.4596468e-06 	0.0038923721 	7.5955592e-06 	0.0027982269
0.48314607 	0.0072529434 	-0.0034436547 	-1.1534034e-08 	0.0075576122 	5.063592e-07 	0.0020542545
0.49438202 	0.0071609077 	-0.003395181 	-2.4217073e-07 	0.0074249244 	1.0282047e-06 	0.0010111299
0.50561798 	0.0060876498 	-0.0028834962 	-5.2037416e-07 	0.0062792986 	1.439126e-06 	0.001004514
0.51685393 	0.0046433635 	-0.0022001903 	-1.6647088e-07 	0.0047669599 	4.077858e-07 	0.0030991459
0.52808989 	0.0032729876 	-0.0015496237 	-1.3388897e-07 	0.0033310339 	2.4414116e-07 	0.0025806548
0.53932584 	0.0022452462 	-0.00098178818 	-4.522113e-07 	0.0022523073 	6.7266506e-07 	0.00094265143
0.5505618 	0.0015651764 	-0.00049501064 	-3.9600886e-07 	0.0015403001 	4.8094917e-07 	0.00033188114
0.56179775 	0.001217001 	-0.00020293153 	-2.3983436e-07 	0.0011652656 	3.9698966e-08 	0.00021076888
0.57303371 	0.0011032049 	-8.6991404e-06 	-1.2268215e-07 	0.0010199388 	-2.924502e-07 	0.00030925814
0.58426966 	0.0011064174 	0.00014509914 	-4.2776146e-08 	0.00098555746 	-3.6657342e-07 	0.00056676353
0.59550562 	0.0011545326 	0.00027602129 	-2.0846021e-09 	0.00099381169 	-1.479576e-07 	0.00099408176
0.60674157 	0.0012136263 	0.00037823742 	-3.837051e-09 	0.0010171707 	-2.7234015e-07 	0.00092443735
0.61797753 	0.0012713595 	0.00045857512 	1.9111903e-08 	0.0010434008 	-9.6392064e-07 	0.0003207763
0.62921348 	0.0013228937 	0.00052364609 	-5.2854382e-08 	0.0010741441 	-8.7718152e-07 	0.00045868996
0.64044944 	0.0013689248 	0.00057855599 	7.6399165e-09 	0.0011075708 	3.8859935e-09 	0.0013831908
0.65168539 	0.001407816 	0.0005942848 	-1.6558879e-07 	0.0011434724 	-8.9457111e-07 	0.00043747214
0.66292135 	0.0014424212 	0.00061221961 	-1.3992758e-07 	0.0011792445 	-6.3976175e-07 	0.00067681784
0.6741573 	0.001473827 	0.00062774589 	-7.3057827e-08 	0.0012127719 	-3.340271e-07 	0.0010648585
0.68539326 	0.0015026941 	0.00064019156 	-2.0182414e-07 	0.0012402686 	-9.9288617e-07 	0.00020181546
0.69662921 	0.0015273668 	0.00065395271 	-9.7290059e-09 	0.0012706075 	-4.7862438e-08 	0.0014448949
0.70786517 	0.0015498772 	0.00066307395 	-1.9866406e-07 	0.0012917399 	-1.055376e-06 	3.4212596e-05
0.71910112 	0.001568596 	0.00067449484 	-1.353869e-09 	0.0013180941 	-7.804158e-09 	0.0015345225
0.73033708 	0.0015847563 	0.00068099616 	-1.6995172e-07 	0.0013339625 	-9.7965909e-07 	3.9283974e-05
0.74157303 	0.0015988686 	0.0006903057 	-2.8731165e-09 	0.0013567172 	-1.8017341e-08 	0.0015518452
0.75280899 	0.0016102967 	0.00069493388 	-1.4262283e-07 	0.0013687217 	-8.9438913e-07 	4.6052277e-05
0.76404494 	0.0016205343 	0.00070233531 	-1.0173793e-08 	0.0013880714 	-6.9780766e-08 	0.0014450987
0.7752809 	0.0016294549 	0.00070650036 	-9.8014794e-08 	0.001399526 	-6.7227115e-07 	0.00029588255
0.78651685 	0.0016377999 	0.00071251825 	-2.9833577e-08 	0.0014161946 	-2.2896228e-07 	0.0010796637
0.79775281 	0.0016466757 	0.00071789021 	-4.4824071e-08 	0.001431291 	-3.4400909e-07 	0.00082898129
0.80898876 	0.0016578329 	0.00072462286 	-5.0397087e-08 	0.001449705 	-4.6561366e-07 	0.00041958354
0.82022472 	0.0016708146 	0.00073357971 	-9.8641804e-11 	0.0014747411 	5.1847845e-09 	0.0015471479
0.83146067 	0.0016933019 	0.00074356877 	-1.6871284e-08 	0.001507465 	-3.0830094e-07 	0.0006387935
0.84269663 	0.0017271374 	0.00075382564 	7.4084138e-09 	0.0015560177 	-2.9535923e-07 	0.00034779253
0.85393258 	0.0017789954 	0.00076973436 	1.2214453e-08 	0.0016269067 	-4.8471747e-08 	0.0012322411
0.86516854 	0.0018662986 	0.00080423479 	3.1354206e-09 	0.0017298084 	-1.244258e-08 	0.0015697459
0.87640449 	0.0020176206 	0.0008890217 	6.4879706e-08 	0.0018880343 	-2.4341284e-08 	0.0010263936
0.88764045 	0.0022466627 	0.0010113359 	1.5109095e-07 	0.0021216487 	8.5555731e-08 	0.0005940273
0.8988764 	0.0025883949 	0.0011771486 	2.2710087e-07 	0.0024662576 	2.838084e-07 	0.00032836923
0.91011236 	0.0030840687 	0.0014078409 	3.0792027e-07 	0.0029615984 	4.6515525e-07 	0.00037705692
0.92134831 	0.0037572282 	0.0017201903 	2.9785566e-07 	0.003631045 	4.8460115e-07 	0.0010261932
0.93258427 	0.0045772425 	0.0021007086 	1.4565266e-07 	0.0044475152 	2.428124e-07 	0.0026910692
0.94382022 	0.0054391987 	0.0025008899 	4.9498429e-07 	0.0053085994 	1.0668708e-06 	0.0044350855
0.95505618 	0.0061740528 	0.002840797 	2.9423139e-07 	0.0060392637 	4.7051338e-07 	0.0010537874
0.96629213 	0.0066081798 	0.0030465115 	1.0378893e-08 	0.0064927563 	1.5828321e-08 	0.0050833166
0.97752809 	0.0063200958 	0.0029183447 	4.5424573e-08 	0.0062308626 	6.3832349e-08 	0.0037754648
0.98876404 	0.003797758 	0.0017602143 	-1.6930288e-08 	0.0037657601 	-4.3154606e-08 	0.0024771795
