1.905786303e-20 	0.0005247256647 	-3.563669546e-17 	-1.295299557e-23 	2.420262908e-30 	8.79701508e-37 	3.197482144e-43
5.911525573e-18 	0.0005247256647 	-3.509617938e-17 	-8.903402106e-23 	1.585577946e-18 	-2.231800321e-22 	3.022552253e-21
0.003981987539 	0.0008197655356 	0.0001350826924 	-5.908892544e-06 	0.0004024940056 	-1.71725649e-05 	7.67265442e-07
0.007949179987 	0.001608088993 	-9.716975215e-05 	2.670177652e-06 	0.001183120375 	-4.65643359e-05 	2.255356265e-06
0.01189912993 	0.002097342886 	-0.0002727368132 	7.380482956e-06 	0.001794124526 	-6.41908675e-05 	3.420099998e-06
0.01582944772 	0.001914599258 	-0.0001746200766 	2.01950951e-06 	0.001726364761 	-5.379306989e-05 	3.290931052e-06
0.0197378005 	0.001832106373 	-0.0001217155942 	-1.193954964e-06 	0.001729639594 	-4.783745984e-05 	3.297173794e-06
0.02570640847 	0.001840429181 	-0.0001092067195 	-3.157831801e-06 	0.001744859055 	-4.295489085e-05 	3.326186317e-06
0.03237071847 	0.001847054524 	-0.0001072746405 	-4.260968467e-06 	0.001705643358 	-3.759061074e-05 	3.251430299e-06
0.03978568909 	0.001850041356 	-0.0001261236431 	-4.521438312e-06 	0.001650956244 	-3.130497047e-05 	3.14718146e-06
0.04799854963 	0.001858250084 	-0.0001658080244 	-4.042700264e-06 	0.001609945705 	-2.503239952e-05 	3.069003975e-06
0.05725865866 	0.001859602924 	-0.0002164663303 	-3.127501121e-06 	0.001582551246 	-1.939684096e-05 	3.016782522e-06
0.06756258972 	0.001849702115 	-0.0002687048796 	-2.136435887e-06 	0.001570718969 	-1.467932067e-05 	2.994226914e-06
0.07891282918 	0.001828274181 	-0.0003167341405 	-1.316713877e-06 	0.0015733459 	-1.080130373e-05 	2.999234574e-06
0.0913817957 	0.001797213094 	-0.000358822914 	-7.434258324e-07 	0.001586775192 	-7.597324357e-06 	3.024834537e-06
0.1053091069 	0.001757213435 	-0.0003962181723 	-3.821439092e-07 	0.001607894051 	-4.872101131e-06 	3.065092953e-06
0.1206301975 	0.001708514902 	-0.0004313865 	-8.709020969e-08 	0.001630836364 	-2.622686924e-06 	3.108827377e-06
0.1429220515 	0.001642938206 	-0.0004713162415 	1.581774129e-08 	0.001678859103 	-2.864182602e-07 	3.200372065e-06
0.1465637075 	0.001633091132 	-0.0004765662237 	2.788906363e-07 	0.001687222943 	-1.208810315e-06 	3.216315868e-06
0.1605773678 	0.001594381523 	-0.0004677181598 	8.394661826e-07 	0.001690145076 	-2.569244722e-07 	3.221886267e-06
0.1781825226 	0.001560100691 	-0.0004619098883 	1.67955359e-06 	0.00170783697 	-2.220665423e-07 	3.255611934e-06
0.1967503729 	0.001533175089 	-0.0004594380058 	2.35073513e-06 	0.001734872427 	1.572633081e-07 	3.307149028e-06
0.2163810895 	0.001516965285 	-0.0004611679732 	2.87559202e-06 	0.001774067524 	8.146663527e-07 	3.381865778e-06
0.2372043321 	0.001509938097 	-0.0004663639289 	2.71419133e-06 	0.001823086518 	1.408287571e-06 	3.475309604e-06
0.2591793737 	0.00151273092 	-0.0004751415963 	1.960410894e-06 	0.001882409448 	1.532912349e-06 	3.588395596e-06
0.2823715889 	0.001524504711 	-0.0004871223706 	1.320753358e-06 	0.001950966848 	1.412807306e-06 	3.719085055e-06
0.3068383465 	0.001543979431 	-0.0005021027062 	7.825606211e-07 	0.002028554038 	1.107974456e-06 	3.866987805e-06
0.3326983097 	0.00157045149 	-0.0005204904645 	3.455429764e-07 	0.002116841877 	6.381553321e-07 	4.035288963e-06
0.359958224 	0.001600182242 	-0.0005425309966 	1.153299045e-08 	0.002216678852 	2.811775067e-08 	4.225605985e-06
0.3611857636 	0.001601494314 	-0.0005436534411 	2.020017485e-08 	0.002221650356 	-1.412027206e-07 	4.235083055e-06
0.3874849937 	0.001641129264 	-0.0005592700801 	5.896075058e-07 	0.002314929715 	2.035295371e-07 	4.412899438e-06
0.4167953141 	0.001673298598 	-0.0005795700535 	1.197841659e-06 	0.002433757294 	4.035788549e-07 	4.63941783e-06
0.4479749189 	0.001686538287 	-0.0006022781599 	1.828837372e-06 	0.002581113903 	4.52847458e-07 	4.920320483e-06
0.4811563471 	0.001658824735 	-0.0005846779822 	1.821348595e-06 	0.00275555652 	3.134337085e-07 	5.252856595e-06
0.5164683896 	0.001593926875 	-0.0004845184638 	7.156548162e-07 	0.002927649185 	3.628244743e-07 	5.580913045e-06
0.5540504391 	0.001524611357 	-0.0003223652758 	-6.192221971e-07 	0.003057994516 	8.177722118e-07 	5.829387472e-06
0.591419292 	0.001477307568 	-0.0001479000166 	-1.261964605e-06 	0.00313048191 	1.129455764e-06 	5.967568593e-06
0.626157779 	0.001452396173 	8.804667993e-06 	-1.302336489e-06 	0.003158216709 	1.061478751e-06 	6.020438828e-06
0.6584952642 	0.001438125808 	0.0001374298505 	-1.251222583e-06 	0.003162386348 	9.349810475e-07 	6.028387319e-06
0.6886312233 	0.001427833462 	0.0002436999536 	-1.161544014e-06 	0.00315388404 	8.116543444e-07 	6.012179557e-06
0.7167404184 	0.00141737986 	0.0003330789913 	-1.061645114e-06 	0.003140497911 	7.214884222e-07 	5.986661875e-06
0.7429778671 	0.001404584818 	0.0004101201224 	-9.562292305e-07 	0.003128306488 	6.804645994e-07 	5.963421633e-06
0.7674795692 	0.001388662648 	0.0004785794765 	-8.523495515e-07 	0.003123119871 	6.969724204e-07 	5.9535345e-06
0.7903685635 	0.001369877194 	0.000541815309 	-7.49383357e-07 	0.003131456851 	7.758941317e-07 	5.969427102e-06
0.8117556941 	0.001349582057 	0.0006030469789 	-6.454585967e-07 	0.003161121483 	9.206359793e-07 	6.025976135e-06
0.8317424657 	0.001330097731 	0.0006656170876 	-5.392264091e-07 	0.003221699333 	1.129873095e-06 	6.141454353e-06
0.850421967 	0.001314173901 	0.0007329019413 	-4.351856172e-07 	0.003324934228 	1.398232306e-06 	6.338248757e-06
0.8678801688 	0.0013051166 	0.0008083202313 	-3.19973351e-07 	0.003482558861 	1.672295606e-06 	6.638725117e-06
0.8841968874 	0.001308855325 	0.0008959044952 	-1.969850612e-07 	0.003699498235 	1.846956801e-06 	7.052271859e-06
0.8994463817 	0.001343639223 	0.0009972156338 	-1.100173583e-07 	0.003959914091 	1.642443618e-06 	7.548696859e-06
0.9136979056 	0.001434688046 	0.001108676917 	-4.779286195e-08 	0.004232464274 	1.365653085e-06 	8.068253259e-06
0.9270161484 	0.001568286747 	0.001227180621 	-1.717233742e-09 	0.004517814649 	1.276071993e-06 	8.612210383e-06
0.9394615884 	0.001698877615 	0.001338301869 	-1.585727367e-08 	0.004795156651 	1.08021632e-06 	9.140901321e-06
0.9477028058 	0.001799807205 	0.001423340222 	-7.185416551e-08 	0.005011459751 	8.003260245e-07 	9.553235149e-06
0.95500093 	0.001873828657 	0.001485897887 	-1.229511111e-07 	0.005164068349 	5.050289765e-07 	9.844149551e-06
0.9614634858 	0.001928425353 	0.00153231343 	-1.682149689e-07 	0.005261389598 	1.982165946e-07 	1.00296709e-05
0.9671858302 	0.001971527111 	0.001558640473 	-1.976267925e-07 	0.005289215234 	-3.854790317e-08 	1.00827143e-05
0.9722524981 	0.00199426155 	0.00156479852 	-1.924436743e-07 	0.005252992222 	-1.438726399e-07 	1.001366317e-05
0.9767384256 	0.001974099419 	0.001552426391 	-1.633337211e-07 	0.005165983674 	-1.628080007e-07 	9.847800694e-06
0.9807100262 	0.001904639209 	0.00151230897 	-1.494166965e-07 	0.005003683607 	-2.329034971e-07 	9.538411657e-06
0.9842261508 	0.001784830974 	0.001428505891 	-1.553379103e-07 	0.00468998103 	-3.848173325e-07 	8.940407356e-06
0.9873389416 	0.001581651805 	0.001272636173 	-1.927430338e-07 	0.004111444434 	-5.666848016e-07 	7.837555809e-06
0.9900945924 	0.001265522806 	0.0009959900643 	-2.569110754e-07 	0.0031604514 	-7.79226518e-07 	6.02469877e-06
0.9918848773 	0.0008839709282 	0.0006227013875 	-2.723939168e-07 	0.001954310255 	-8.36814546e-07 	3.725458519e-06
0.9936753828 	0.0004581212977 	0.0002527891695 	-1.607504053e-07 	0.0008131080229 	-4.889546261e-07 	1.550009883e-06
0.9954661087 	0.0001236147676 	4.132034725e-05 	-3.293401099e-08 	0.0001583269792 	-9.963058616e-08 	3.018152271e-07
0.997257055 	9.511749321e-06 	9.960345981e-07 	-5.497161172e-10 	9.745051415e-06 	-3.188834621e-09 	1.857677649e-08
0.9990482216 	7.431195403e-08 	7.187612996e-10 	2.133192203e-13 	7.418338985e-08 	1.676247456e-11 	1.414141593e-10
0.9990482216 	7.431195403e-08 	7.187612996e-10 	2.133192203e-13 	7.418338985e-08 	1.676247456e-11 	1.414141593e-10
