0.4709558481 	3.294386091e-07 	-3.648483126e-09 	1.393998375e-13 	3.288842609e-07 	-8.698905874e-12 	6.269448098e-10
0.4720092239 	2.678299038e-05 	-2.62628667e-06 	9.855156961e-11 	2.733564601e-05 	-7.302025513e-10 	5.210933885e-08
0.4730625996 	0.0002811871275 	-8.347455356e-05 	2.783044337e-09 	0.0003427634346 	-9.431423208e-09 	6.534023725e-07
0.4741159754 	0.0009983639681 	-0.0005017715551 	1.326301397e-08 	0.001634214899 	-4.069174458e-08 	3.115267804e-06
0.4751693511 	0.001939304247 	-0.00128350654 	2.674844001e-08 	0.003993285034 	-8.254526561e-08 	7.61231115e-06
0.4762227269 	0.002809800066 	-0.00216732781 	3.447359128e-08 	0.00677554881 	-1.081391798e-07 	1.29160792e-05
0.4778443634 	0.003590819291 	-0.002897757176 	3.669572835e-08 	0.009161636723 	-1.16073873e-07 	1.746462594e-05
0.4796765386 	0.004165925829 	-0.00335220136 	3.542779236e-08 	0.01069493145 	-1.120267975e-07 	2.038751185e-05
0.4817465869 	0.004503236092 	-0.003621224729 	3.132110174e-08 	0.01157098712 	-9.841229537e-08 	2.205751744e-05
0.4840853915 	0.00469095308 	-0.003774315774 	2.620078397e-08 	0.01201996432 	-8.410805669e-08 	2.291339277e-05
0.4867278453 	0.004785973536 	-0.003837850267 	1.918584965e-08 	0.01219972374 	-6.422168391e-08 	2.32560642e-05
0.4897133715 	0.004811905867 	-0.003843621202 	8.165256923e-09 	0.01220437345 	-3.315515893e-08 	2.326492783e-05
0.4930865115 	0.004772844286 	-0.003811279543 	-5.286484815e-09 	0.01209243876 	7.527518654e-09 	2.305154919e-05
0.4968975894 	0.004683804386 	-0.003745662201 	-2.068271523e-08 	0.01188021199 	5.932382603e-08 	2.264698599e-05
0.5012034633 	0.004547273686 	-0.003651438845 	-4.398030673e-08 	0.01158152192 	1.391357486e-07 	2.207759969e-05
0.506068373 	0.004361780553 	-0.003513712532 	-7.938073663e-08 	0.01114017019 	2.614722613e-07 	2.123626063e-05
0.5134203412 	0.004106255589 	-0.003308209728 	-1.267364671e-07 	0.01047918899 	4.239995746e-07 	1.997624675e-05
0.5212948542 	0.003780466132 	-0.003046182291 	-1.878377339e-07 	0.009634862698 	6.256972789e-07 	1.836672617e-05
0.529729052 	0.003404076778 	-0.002743046475 	-2.646121266e-07 	0.008664132084 	8.576035542e-07 	1.651624382e-05
0.5387627144 	0.002982685876 	-0.002403463363 	-3.406960912e-07 	0.007580906073 	1.101445911e-06 	1.445131398e-05
0.5484384488 	0.00253997345 	-0.002048499409 	-3.861283204e-07 	0.00643340935 	1.268761738e-06 	1.226386629e-05
0.5588018907 	0.002179669675 	-0.001686183214 	-4.359080753e-07 	0.005238163736 	1.426316403e-06 	9.985395953e-06
0.5699019192 	0.001959919892 	-0.001314376398 	-4.673119728e-07 	0.004043759844 	1.430587556e-06 	7.708530168e-06
0.5817908876 	0.001810730285 	-0.0009606128421 	-4.312793751e-07 	0.003023451177 	1.138709469e-06 	5.763538268e-06
0.5945248701 	0.001704541017 	-0.0006501448642 	-3.637092147e-07 	0.002300144622 	7.296523005e-07 	4.384714942e-06
0.6081639266 	0.001650808061 	-0.0003865900024 	-3.026187708e-07 	0.001880030854 	3.349888157e-07 	3.583861335e-06
0.6227723857 	0.001639084588 	-0.0001577292419 	-2.590769785e-07 	0.001702263355 	5.970573253e-08 	3.244987074e-06
0.638419148 	0.00164793871 	5.156094458e-05 	-2.171343497e-07 	0.001690205846 	-9.580317346e-08 	3.22200211e-06
0.6551780116 	0.0016553212 	0.0002439784604 	-1.771022151e-07 	0.001789568474 	-1.647628892e-07 	3.411414897e-06
0.6731280194 	0.00165343262 	0.0004226519392 	-1.401548194e-07 	0.001970020575 	-1.82635945e-07 	3.755406755e-06
0.6923538328 	0.001640953455 	0.0005905868666 	-1.018323785e-07 	0.002219002785 	-1.635169843e-07 	4.230036049e-06
0.7129461301 	0.001619986462 	0.000749950264 	-5.931976967e-08 	0.002532860756 	-1.095749054e-07 	4.828336572e-06
0.7350020349 	0.001595292968 	0.0008998493259 	-1.156232883e-08 	0.002909801241 	-1.765840438e-08 	5.546889903e-06
0.7570579485 	0.00157767851 	0.001039083923 	3.914465819e-08 	0.00333105522 	1.106325421e-07 	6.349917068e-06
0.7776502527 	0.001571340743 	0.001173475948 	9.179729548e-08 	0.003782733221 	2.647285218e-07 	7.210940875e-06
0.7968760713 	0.001631929706 	0.00130070244 	1.475372367e-07 	0.004211609017 	4.390899478e-07 	8.028497343e-06
0.814826083 	0.001779645995 	0.001430077606 	2.023235296e-07 	0.004619699145 	6.127470741e-07 	8.80643055e-06
0.831584949 	0.001966009091 	0.001581169345 	2.537592984e-07 	0.005078146994 	7.758371156e-07 	9.680359568e-06
0.8472317127 	0.00217836328 	0.001753593928 	3.013144813e-07 	0.005600574512 	9.310081528e-07 	1.067625162e-05
0.8618401721 	0.002411388725 	0.001942064385 	3.382206557e-07 	0.006181100051 	1.055649312e-06 	1.178289464e-05
0.8754792281 	0.002658362492 	0.002141466891 	3.565594316e-07 	0.006801778822 	1.124728717e-06 	1.296608089e-05
0.8882132094 	0.002909783188 	0.002344227555 	3.534771567e-07 	0.007438277477 	1.126057192e-06 	1.417942423e-05
0.9001021759 	0.003155817477 	0.002542426344 	3.320710713e-07 	0.00806542846 	1.067267074e-06 	1.537494831e-05
0.9112022019 	0.003388247316 	0.00272949319 	2.983164509e-07 	0.008661488755 	9.660124909e-07 	1.65112049e-05
0.9215656407 	0.003601219639 	0.002900784102 	2.583305267e-07 	0.00921038004 	8.420563128e-07 	1.755754425e-05
0.9312413717 	0.003791088726 	0.003053300533 	2.166344825e-07 	0.009702466808 	7.133735926e-07 	1.84955984e-05
0.9402750304 	0.003955461234 	0.003184738572 	1.792227582e-07 	0.0101334595 	5.890628976e-07 	1.931719027e-05
0.9487092242 	0.004095676137 	0.0032978755 	1.480202921e-07 	0.01049486834 	4.778068384e-07 	2.000613595e-05
0.9565837329 	0.004212588284 	0.003390435741 	1.147940656e-07 	0.010779302 	3.565617876e-07 	2.054834556e-05
0.9639356968 	0.004328700092 	0.003442309599 	8.942774244e-08 	0.01092865671 	2.64135031e-07 	2.083305715e-05
0.9688006083 	0.004411567038 	0.003463923662 	7.897502013e-08 	0.01097870788 	2.285399244e-07 	2.092846859e-05
0.9731064834 	0.004434594273 	0.003474889294 	7.127297384e-08 	0.01100117908 	2.055705598e-07 	2.097130495e-05
0.976917562 	0.004421942253 	0.003466781926 	6.453939257e-08 	0.0109746474 	1.896263957e-07 	2.09207282e-05
0.9802907021 	0.004365822904 	0.003434611023 	5.932882218e-08 	0.01088854298 	1.776011723e-07 	2.075658923e-05
0.9832762282 	0.004257115235 	0.003373594768 	5.481803745e-08 	0.01071528671 	1.673586858e-07 	2.042631462e-05
0.9859186816 	0.004082342383 	0.003267378279 	5.236660807e-08 	0.01040662537 	1.631827891e-07 	1.983792033e-05
0.9882574856 	0.003833992713 	0.003083148143 	5.00752081e-08 	0.009855537416 	1.595789117e-07 	1.878739352e-05
0.990327533 	0.003471808969 	0.002794743437 	4.660772429e-08 	0.008907651534 	1.496746566e-07 	1.698045958e-05
0.9921597073 	0.002913765987 	0.002341618196 	4.279291608e-08 	0.007389734486 	1.359675999e-07 	1.40868878e-05
0.9937813429 	0.002216904234 	0.001664557333 	3.564837735e-08 	0.005197344161 	1.112272242e-07 	9.907582498e-06
0.9948347186 	0.001474026408 	0.0009146954935 	2.391726031e-08 	0.002857481218 	7.366869066e-08 	5.447153397e-06
0.9958880943 	0.0007177156421 	0.0003281036625 	1.036658598e-08 	0.001096682794 	3.270245316e-08 	2.090582213e-06
0.9969414701 	0.000190416048 	4.927808197e-05 	1.852563494e-09 	0.000221819579 	7.035542396e-09 	4.228497691e-07
0.9979948458 	1.75971698e-05 	1.459432029e-06 	5.926096321e-11 	1.784487228e-05 	5.545069522e-10 	3.401728629e-08
0.9990482216 	2.364736937e-07 	2.198977252e-09 	8.986193259e-14 	2.360617842e-07 	7.296611982e-12 	4.499993706e-10
0.9990482216 	2.364736937e-07 	2.198977252e-09 	8.986193259e-14 	2.360617842e-07 	7.296611982e-12 	4.499993706e-10
