0.1768325896 	0.1171478882 	0.05848956428 	-0.0008166873961
0.1785907938 	0.4257109494 	0.2067330535 	-0.002551000222
0.1803486209 	0.7425875161 	0.3498154649 	-0.003587061544
0.1821054395 	0.9341626395 	0.4278936024 	-0.003547962963
0.1838606252 	1.027986836 	0.460034485 	-0.003174564458
0.1856135605 	1.070875385 	0.4688298009 	-0.002814098895
0.1883063411 	1.09157506 	0.465890609 	-0.00243996942
0.191337819 	1.101405674 	0.4571648755 	-0.002106594866
0.1947451987 	1.107374965 	0.4461739465 	-0.001797005472
0.1985670993 	1.11155732 	0.4337040404 	-0.001494178145
0.2029500116 	1.115318449 	0.4200817818 	-0.001193826136
0.2079040511 	1.119356997 	0.4057847138 	-0.0009033152067
0.2134522109 	1.123706129 	0.3910410741 	-0.0006297617044
0.2196601811 	1.12820254 	0.3758066802 	-0.0003794827092
0.2267486692 	1.13277668 	0.3600576275 	-0.0001560572206
0.2332577037 	1.136678621 	0.3455305781 	-0.000205124054
0.234647839 	1.13733245 	0.3421937062 	-2.925293286e-05
0.245957996 	1.14183152 	0.3206721912 	-0.0002218450329
0.2581327455 	1.146342796 	0.2986459633 	-0.0003526213789
0.2712030149 	1.150642147 	0.2777001196 	-0.0004257370841
0.2851802459 	1.154617632 	0.2578555775 	-0.0004475785904
0.3001737618 	1.158200343 	0.2390684244 	-0.0004260839501
0.3163208608 	1.161268523 	0.2212970336 	-0.0003702430464
0.3336263772 	1.16369856 	0.2045127768 	-0.000210602175
0.3521814245 	1.165374411 	0.1886661636 	-0.0001002771326
0.3720724044 	1.166196153 	0.1736608906 	-3.244512828e-05
0.3934380589 	1.166075243 	0.1594150532 	2.551642611e-06
0.4163236383 	1.164923088 	0.1458689873 	1.380626525e-05
0.4408019705 	1.162672133 	0.1329644301 	9.70566954e-06
0.4622799629 	1.159914676 	0.1228910217 	-0.000154521199
0.4669995683 	1.159295968 	0.1205638931 	-2.848338886e-07
0.4948343623 	1.154911566 	0.1084679042 	2.547602677e-06
0.5246517747 	1.14941606 	0.09705406453 	9.494394063e-06
0.5565711163 	1.142737723 	0.08627386742 	1.704227782e-05
0.5907153384 	1.134835941 	0.07624291203 	2.271302578e-05
0.6248041875 	1.126018414 	0.0673240346 	2.543545418e-05
0.6565865215 	1.116758361 	0.05966868885 	2.588512879e-05
0.6862306008 	1.10723902 	0.05308458243 	2.480769759e-05
0.7138920104 	1.097456667 	0.04735613997 	2.270117977e-05
0.7397136074 	1.087389512 	0.04232216084 	2.009713464e-05
0.7638267275 	1.076998113 	0.03785697568 	1.73803407e-05
0.7863495136 	1.066214117 	0.03386528165 	1.475756184e-05
0.8073911058 	1.054940202 	0.03027343951 	1.231966279e-05
0.8270511595 	1.043048676 	0.02702246028 	1.01277656e-05
0.845421889 	1.030370011 	0.02406341911 	8.140423579e-06
0.8625884684 	1.016668585 	0.02134669496 	6.456286937e-06
0.8786299155 	1.001628696 	0.01885041543 	5.193185e-06
0.8936198082 	0.9848815299 	0.01658524741 	4.033480966e-06
0.9076267231 	0.9660158683 	0.01449805682 	2.916104767e-06
0.9207146719 	0.9445279497 	0.01252211887 	2.087700359e-06
0.9329434662 	0.9198462561 	0.01066824558 	1.464981978e-06
0.9443690234 	0.8935402387 	0.009048510795 	9.630699488e-07
0.9519339113 	0.8690431264 	0.007754795728 	6.394851174e-07
0.9586324528 	0.845833201 	0.006681736416 	4.317720502e-07
0.9645635659 	0.8217945684 	0.00572733329 	2.845243814e-07
0.9698149412 	0.7965141708 	0.004858493186 	1.557938746e-07
0.9744642952 	0.7692656492 	0.004028666865 	6.265763316e-08
0.9785804997 	0.7389511503 	0.0032606823 	1.242882382e-08
0.9822245787 	0.7038499216 	0.002559859215 	-1.45604349e-08
0.9854505955 	0.6612717165 	0.001796236042 	-3.611077101e-08
0.9883064419 	0.6071248618 	0.001201361123 	-3.304424928e-08
0.9908345383 	0.5401442752 	0.00125165119 	-2.232508945e-08
0.9924769413 	0.4644937092 	0.00139225811 	-4.030302062e-08
0.9941195111 	0.3737582241 	0.0007003468166 	-4.097557714e-08
0.9957622477 	0.2618428173 	-0.0001755396622 	-6.174221201e-09
0.9974051512 	0.1357978519 	-0.0003327333127 	5.814868113e-09
0.9990482216 	0.03921629729 	-0.0001246833901 	-4.152248917e-10
0.9990482216 	0.03921629729 	-0.0001246833901 	-4.152248917e-10
