0.4709558481 	3.281747245e-07 	-3.628328433e-09 	3.931425267e-14 	3.276222815e-07 	-2.479829225e-12 	6.245391264e-10
0.4709558481 	3.281747245e-07 	-3.628328433e-09 	3.931425267e-14 	3.276222815e-07 	-2.479829225e-12 	6.245391264e-10
0.4720092239 	2.668116592e-05 	-2.612023484e-06 	2.786798202e-11 	2.722970784e-05 	-2.081682889e-10 	5.190739125e-08
0.4730625996 	0.0002802027205 	-8.307119031e-05 	7.902630902e-10 	0.0003413949408 	-2.688781378e-09 	6.50793643e-07
0.4741159754 	0.0009954599881 	-0.0004998456582 	3.787666117e-09 	0.001628305302 	-1.162970331e-08 	3.10400247e-06
0.4751693511 	0.001934706909 	-0.001279614186 	7.687009917e-09 	0.003981281688 	-2.367983313e-08 	7.589429437e-06
0.4762227269 	0.002803910038 	-0.002162294894 	1.000415657e-08 	0.006759785351 	-3.126029856e-08 	1.288602966e-05
0.4778443634 	0.003584153539 	-0.002892380656 	1.076243609e-08 	0.009144665194 	-3.388466301e-08 	1.743227349e-05
0.4796765386 	0.004159451548 	-0.003346984767 	1.054738994e-08 	0.01067849129 	-3.310789091e-08 	2.035617234e-05
0.4817465869 	0.004497452595 	-0.00361656495 	9.618998694e-09 	0.011556441 	-2.978085856e-08 	2.20297885e-05
0.4840853915 	0.004687005398 	-0.003770368202 	8.347732521e-09 	0.01200747445 	-2.58599304e-08 	2.288958361e-05
0.4867278453 	0.004784461042 	-0.003834873039 	6.62885739e-09 	0.01219005377 	-2.059244863e-08 	2.323763054e-05
0.4897133715 	0.004812892557 	-0.003842106039 	4.180852961e-09 	0.01219897608 	-1.305816059e-08 	2.325463895e-05
0.4930865115 	0.004776938415 	-0.003811590024 	1.098990605e-09 	0.01209241551 	-3.816806971e-09 	2.305150487e-05
0.4968975894 	0.004691543871 	-0.003748121537 	-2.609540313e-09 	0.01188722116 	8.288576391e-09 	2.266034741e-05
0.5012034633 	0.004558990276 	-0.003656650799 	-6.943317313e-09 	0.01159793173 	2.315768293e-08 	2.210888136e-05
0.506068373 	0.004376542852 	-0.003523475727 	-1.427563571e-08 	0.01117250165 	4.885245224e-08 	2.129789338e-05
0.5134203412 	0.004126611919 	-0.003324537559 	-2.537401185e-08 	0.01053404686 	8.680502875e-08 	2.008082109e-05
0.5212948542 	0.003810943583 	-0.003070561195 	-3.895593959e-08 	0.009716515943 	1.323149194e-07 	1.852237995e-05
0.529729052 	0.003447059275 	-0.002777639674 	-5.650034862e-08 	0.008776939332 	1.859344676e-07 	1.673128579e-05
0.5387627144 	0.003038665612 	-0.002448472245 	-7.47926545e-08 	0.007727312053 	2.456985417e-07 	1.473040447e-05
0.5484384488 	0.002604675688 	-0.002100160778 	-8.733917353e-08 	0.006604683201 	2.937754745e-07 	1.259036186e-05
0.5588018907 	0.002229031873 	-0.001745559986 	-1.02903445e-07 	0.005436003229 	3.526612606e-07 	1.036253301e-05
0.5699019192 	0.001991398461 	-0.001379602887 	-1.168219919e-07 	0.00424812719 	3.790421854e-07 	8.098111129e-06
0.5817908876 	0.001838737256 	-0.001022825019 	-1.16316296e-07 	0.003191863806 	3.260383658e-07 	6.084579548e-06
0.5945248701 	0.001723481158 	-0.0007049339757 	-1.083706491e-07 	0.002414677395 	2.377247836e-07 	4.603046239e-06
0.6081639266 	0.001658788864 	-0.0004334122447 	-9.674550911e-08 	0.001939924805 	1.418018915e-07 	3.698035853e-06
0.6227723857 	0.001639585145 	-0.000198085605 	-8.550183972e-08 	0.001721501412 	6.417237105e-08 	3.281660158e-06
0.638419148 	0.001647081473 	1.715804941e-05 	-7.523401273e-08 	0.001684074442 	9.13783634e-09 	3.210313951e-06
0.6551780116 	0.001656654569 	0.0002157217265 	-6.312721028e-08 	0.001770070811 	-2.593398286e-08 	3.374246931e-06
0.6731280194 	0.001658242197 	0.0004003521183 	-5.022916891e-08 	0.00194513392 	-4.475363995e-08 	3.707965873e-06
0.6923538328 	0.001649736626 	0.0005745462468 	-3.601740701e-08 	0.002194935233 	-4.936091732e-08 	4.184156606e-06
0.7129461301 	0.001632877111 	0.000740896465 	-1.992811224e-08 	0.002515699876 	-3.855764294e-08 	4.795623167e-06
0.7350020349 	0.001611917497 	0.0008985599697 	-1.981540903e-09 	0.002906529274 	-1.058518032e-08 	5.540652625e-06
0.7570579485 	0.001597345614 	0.001046042008 	1.68539447e-08 	0.003348307652 	3.452773004e-08 	6.382804999e-06
0.7776502527 	0.001593614914 	0.001188815241 	3.254423059e-08 	0.003825064756 	8.21406852e-08 	7.291636546e-06
0.7968760713 	0.001659990505 	0.001323662492 	4.54194532e-08 	0.004278772918 	1.272217538e-07 	8.156530406e-06
0.814826083 	0.001816905294 	0.001460239451 	5.917009289e-08 	0.004710667194 	1.758983207e-07 	8.979840933e-06
0.831584949 	0.002012398844 	0.001618671615 	7.254559267e-08 	0.005193035792 	2.220942907e-07 	9.89936955e-06
0.8472317127 	0.002232782643 	0.001797514199 	8.328482638e-08 	0.005736717832 	2.597378648e-07 	1.093577863e-05
0.8618401721 	0.002471457764 	0.001990466571 	8.981216239e-08 	0.006332961381 	2.836108149e-07 	1.207238455e-05
0.8754792281 	0.00272075391 	0.002191679455 	9.130005275e-08 	0.006960963183 	2.91301733e-07 	1.326953053e-05
0.8882132094 	0.002970984172 	0.002393421082 	8.812850382e-08 	0.007595753987 	2.839805872e-07 	1.447961823e-05
0.9001021759 	0.00321296229 	0.00258830659 	8.143993606e-08 	0.008213601615 	2.648306735e-07 	1.565740753e-05
0.9112022019 	0.003439452186 	0.002770564818 	7.256462965e-08 	0.008795151966 	2.378864442e-07 	1.676600413e-05
0.9215656407 	0.003645577605 	0.002936329855 	6.273491757e-08 	0.009326870817 	2.072182947e-07 	1.777960805e-05
0.9312413717 	0.003828431468 	0.003083150378 	5.27803103e-08 	0.009801373729 	1.763224774e-07 	1.868414248e-05
0.9402750304 	0.003986419759 	0.003209523437 	4.396328391e-08 	0.01021540048 	1.466998009e-07 	1.947339253e-05
0.9487092242 	0.004121183349 	0.003318419842 	3.654960947e-08 	0.01056160345 	1.200950751e-07 	2.013335163e-05
0.9565837329 	0.004237326623 	0.003406349125 	2.851199285e-08 	0.01082913282 	9.080132278e-08 	2.064333695e-05
0.9639356968 	0.004352864826 	0.003454730881 	2.235496807e-08 	0.01096572598 	6.82873648e-08 	2.090372148e-05
0.9688006083 	0.004431997418 	0.003474889023 	1.953258187e-08 	0.01101083095 	5.852320647e-08 	2.098970409e-05
0.9731064834 	0.004452299379 	0.003484661889 	1.716129665e-08 	0.01102966613 	5.098717541e-08 	2.102560917e-05
0.976917562 	0.004437203421 	0.003475537944 	1.514568367e-08 	0.01100056351 	4.538334211e-08 	2.09701315e-05
0.9802907021 	0.004379025172 	0.003442588527 	1.357046838e-08 	0.01091249687 	4.104134995e-08 	2.080225201e-05
0.9832762282 	0.004268683661 	0.003380897392 	1.22079205e-08 	0.01073761783 	3.749673214e-08 	2.046888395e-05
0.9859186816 	0.004092039065 	0.003274313933 	1.144412483e-08 	0.01042827027 	3.583672878e-08 	1.987918152e-05
0.9882574856 	0.003842199306 	0.00308975461 	1.079495037e-08 	0.009876624978 	3.456043902e-08 	1.882759227e-05
0.990327533 	0.003479430115 	0.002800863785 	9.897169338e-09 	0.008927331796 	3.189417599e-08 	1.701797563e-05
0.9921597073 	0.002920684657 	0.002347217734 	8.978579789e-09 	0.007407534514 	2.855992469e-08 	1.41208196e-05
0.9937813429 	0.00222275126 	0.001669212372 	7.422389793e-09 	0.005211863237 	2.313261162e-08 	9.935259892e-06
0.9948347186 	0.001478396071 	0.0009178164219 	4.961985164e-09 	0.002867096563 	1.529507435e-08 	5.465482917e-06
0.9958880943 	0.0007201476068 	0.0003294559369 	2.145766955e-09 	0.00110095278 	6.789786983e-09 	2.098721992e-06
0.9969414701 	0.0001911448766 	4.951973046e-05 	3.828763348e-10 	0.0002227388979 	1.462957426e-09 	4.246022465e-07
0.9979948458 	1.766793038e-05 	1.467163399e-06 	1.224209534e-11 	1.791736603e-05 	1.154830897e-10 	3.415547953e-08
0.9990482216 	2.374293118e-07 	2.210700988e-09 	1.855464671e-14 	2.370158169e-07 	1.520143572e-12 	4.518180222e-10
