3.197437928e-34 	0.006918925086 	-4.698981635e-16 	-1.707955453e-22 	3.191309074e-29 	1.159956381e-35 	4.216134431e-42
0.001920179623 	0.006909115086 	-5.197114459e-05 	1.242182435e-08 	0.008049673951 	-1.491925869e-06 	1.534491584e-05
0.003840345101 	0.00690492531 	-0.0001198809677 	3.924098034e-08 	0.008086991794 	-1.485997445e-06 	1.541605402e-05
0.005760496377 	0.006909228872 	-0.0001786280515 	5.811159719e-08 	0.008096515138 	-1.469609217e-06 	1.543420816e-05
0.007680633441 	0.006907795674 	-0.000237640662 	7.638385335e-08 	0.008109345046 	-1.454673502e-06 	1.545866553e-05
0.009600756325 	0.00690746043 	-0.0003050526863 	9.666428613e-08 	0.008121908901 	-1.440161122e-06 	1.548261573e-05
0.01255669343 	0.006907027404 	-0.0003913986618 	1.212384855e-07 	0.008141836587 	-1.417954631e-06 	1.552060344e-05
0.01589636313 	0.006906515637 	-0.0004945343143 	1.492697838e-07 	0.008172391474 	-1.396490553e-06 	1.557884955e-05
0.01966957619 	0.006905717139 	-0.0006110303577 	1.790675698e-07 	0.008215227196 	-1.375856117e-06 	1.566050634e-05
0.02394927615 	0.00690447189 	-0.0007425358418 	2.101769477e-07 	0.008274333665 	-1.354953784e-06 	1.57731797e-05
0.02878858959 	0.006902606366 	-0.0008907146019 	2.42147113e-07 	0.008354530045 	-1.33594686e-06 	1.592605629e-05
0.03425611113 	0.006899800279 	-0.001057328482 	2.742773112e-07 	0.008461812346 	-1.319439101e-06 	1.613056617e-05
0.04043338076 	0.006895659232 	-0.001244423661 	3.056363225e-07 	0.008603582807 	-1.305290114e-06 	1.640082007e-05
0.04744143031 	0.006889435574 	-0.001454319545 	3.346587192e-07 	0.008789031331 	-1.291112026e-06 	1.67543365e-05
0.05536094352 	0.00687938228 	-0.001688765852 	3.597202151e-07 	0.009029739129 	-1.277222383e-06 	1.721319247e-05
0.06432130776 	0.006859608937 	-0.001974593286 	3.832234233e-07 	0.009372360585 	-1.270041185e-06 	1.786632419e-05
0.0778967341 	0.006822865738 	-0.00233166166 	3.879787246e-07 	0.009869822321 	-1.221272467e-06 	1.881462452e-05
0.0924770317 	0.006761635346 	-0.002723450395 	3.756681916e-07 	0.01050164893 	-1.153113421e-06 	2.001906165e-05
0.1081284109 	0.006660261741 	-0.003118120463 	3.394834809e-07 	0.01123577797 	-1.043981254e-06 	2.141851563e-05
0.12493365 	0.006494436279 	-0.003503974758 	2.764659352e-07 	0.01206206042 	-8.765429907e-07 	2.299363963e-05
0.1429796724 	0.006242654814 	-0.003860299222 	1.905969281e-07 	0.01294095343 	-6.245085865e-07 	2.466905399e-05
0.1623579926 	0.005912791581 	-0.004158933887 	8.672899952e-08 	0.01376386284 	-2.947199883e-07 	2.623774805e-05
0.179915767 	0.005628492712 	-0.004330363928 	2.00925515e-06 	0.01423973936 	-7.306081785e-06 	2.714490095e-05
0.1831652053 	0.005575969564 	-0.004362092889 	1.612876542e-08 	0.0143276289 	-4.65535418e-08 	2.731244283e-05
0.2055035143 	0.005378122422 	-0.004473949634 	1.112849468e-07 	0.014330585 	-2.512871199e-07 	2.7318078e-05
0.2294813006 	0.005219741545 	-0.004462375555 	1.633871619e-07 	0.0137518923 	-3.281503596e-07 	2.621492887e-05
0.2552137277 	0.004897030753 	-0.004268312004 	1.52646976e-07 	0.01271746053 	-2.282896251e-07 	2.42430144e-05
0.2828241328 	0.004378893081 	-0.003864682009 	4.748607992e-08 	0.01120751266 	5.617263363e-08 	2.136463409e-05
0.3124514441 	0.003669203317 	-0.003235091311 	-1.327387875e-07 	0.009274770956 	4.417560434e-07 	1.768029123e-05
0.3442271852 	0.002852160607 	-0.002438921307 	-2.857491899e-07 	0.00713450212 	6.622410672e-07 	1.360034397e-05
0.3783059509 	0.00222522903 	-0.001677320983 	-2.592889342e-07 	0.005040305803 	5.965715221e-07 	9.608223741e-06
0.4148445556 	0.001910178244 	-0.001090466807 	-1.171919764e-07 	0.003332273693 	3.029562223e-07 	6.352239816e-06
0.454012114 	0.001764833103 	-0.0006324430227 	-1.766219261e-08 	0.002267229873 	3.775718027e-09 	4.321970282e-06
0.4959899515 	0.001754758664 	-0.0002268227017 	3.376787032e-08 	0.001795893061 	-7.128154258e-08 	3.423471318e-06
0.5379865561 	0.001832706188 	0.0001667438474 	5.381604293e-08 	0.001819874574 	-2.566011359e-08 	3.469186745e-06
0.577207568 	0.001941483625 	0.0005364395703 	6.751478961e-08 	0.002205933125 	6.702459516e-08 	4.205121643e-06
0.6138321997 	0.002066034616 	0.0008809831438 	8.401682608e-08 	0.00283568154 	1.760149486e-07 	5.405597151e-06
0.6480299089 	0.002201132948 	0.00121150747 	1.042170937e-07 	0.003641857763 	2.942927848e-07 	6.942393099e-06
0.6799601987 	0.002338780395 	0.001536483259 	1.258706041e-07 	0.004582116427 	4.106546748e-07 	8.734787443e-06
0.7097727691 	0.002480975042 	0.001859345774 	1.462788762e-07 	0.005618062893 	5.151040895e-07 	1.070958933e-05
0.7376075325 	0.002704277452 	0.002162687679 	1.460651322e-07 	0.00663193245 	5.233574403e-07 	1.26423065e-05
0.7635955286 	0.003029473066 	0.002445157356 	1.361035737e-07 	0.007565296293 	4.803214949e-07 	1.44215574e-05
0.787859151 	0.003370771689 	0.002718749597 	1.193323628e-07 	0.008451973996 	4.255872166e-07 	1.611181154e-05
0.8105127434 	0.003678784973 	0.002966152875 	6.485495194e-08 	0.009257317768 	2.666495668e-07 	1.76470206e-05
0.831663108 	0.003925750914 	0.003162836018 	-2.788530945e-08 	0.009926461643 	1.626663651e-08 	1.892259481e-05
0.8514099765 	0.004094603099 	0.003296119265 	-1.314590564e-07 	0.01040799084 	-3.095238077e-07 	1.984052329e-05
0.8698464725 	0.004178493365 	0.003362790447 	-2.25291738e-07 	0.0106708797 	-6.497181608e-07 	2.034166252e-05
0.8870595453 	0.004241593696 	0.003347072838 	-3.425760018e-07 	0.01064356662 	-1.085044126e-06 	2.028959621e-05
0.9031303776 	0.004304041444 	0.003252529055 	-4.251977641e-07 	0.01033067528 	-1.395925566e-06 	1.969313835e-05
0.9181347659 	0.004301982359 	0.003107373962 	-4.274422526e-07 	0.009842321708 	-1.422406689e-06 	1.876220071e-05
0.9321434779 	0.00423863248 	0.002933195422 	-4.032349069e-07 	0.009267242098 	-1.344047943e-06 	1.766593914e-05
0.9414132658 	0.004133121584 	0.002769848272 	-3.629841131e-07 	0.008736065841 	-1.198107265e-06 	1.665336956e-05
0.9496178443 	0.003989777332 	0.002629112039 	-3.118248988e-07 	0.008275676538 	-1.0349994e-06 	1.577573959e-05
0.9568796188 	0.00381650827 	0.002496385931 	-2.578257671e-07 	0.007841461194 	-8.607874388e-07 	1.494800446e-05
0.9633069287 	0.003615879113 	0.002372371432 	-2.048020098e-07 	0.00743797552 	-6.857271123e-07 	1.417884862e-05
0.9689956638 	0.003389226181 	0.002255928155 	-1.557807018e-07 	0.007062857954 	-5.180601166e-07 	1.346377028e-05
0.9740306954 	0.003133415803 	0.002142125944 	-1.129817967e-07 	0.006708773165 	-3.65013123e-07 	1.278878626e-05
0.9784871417 	0.002843582268 	0.002017154759 	-7.736897709e-08 	0.006350661094 	-2.341350432e-07 	1.210612512e-05
0.982431489 	0.002522163977 	0.001866569768 	-4.873282153e-08 	0.005906192176 	-1.30646559e-07 	1.125884383e-05
0.9859225838 	0.002148176472 	0.001662749863 	-2.710261801e-08 	0.005242597762 	-5.764040867e-08 	9.993848439e-06
0.98901251 	0.00172645965 	0.001335750025 	-1.146722673e-08 	0.004164908332 	-1.61837641e-08 	7.939472858e-06
0.9910196523 	0.001255323332 	0.0008859044853 	-1.217828498e-09 	0.002740378209 	2.018329743e-09 	5.223922514e-06
0.9930267946 	0.0006775960698 	0.0003883594899 	2.369291512e-09 	0.00123419366 	5.395136658e-09 	2.352716141e-06
0.9950339369 	0.0001924047617 	6.900565943e-05 	1.223270677e-09 	0.0002544335299 	1.85981518e-09 	4.850210241e-07
0.9970410793 	1.458116299e-05 	1.598415795e-06 	4.532863728e-11 	1.497195493e-05 	7.363687436e-11 	2.854070733e-08
0.9990482216 	1.049867068e-07 	9.624113862e-10 	3.310628724e-14 	1.047978719e-07 	6.228747812e-13 	1.99773871e-10
0.9990482216 	1.049867068e-07 	9.624113862e-10 	3.310628724e-14 	1.047978719e-07 	6.228747812e-13 	1.99773871e-10
