0.4690207273 	0.03925026325 	-0.0003891609103 	-3.137718338e-06
0.4690207273 	0.03925026325 	-0.0003891609103 	-3.137718338e-06
0.4700518427 	0.150905733 	-0.001351011705 	-1.198477155e-05
0.4710829708 	0.2989943346 	-0.002922453333 	-2.354805883e-05
0.4721141081 	0.4377084605 	-0.005254097122 	-3.424945071e-05
0.4731452512 	0.5560796796 	-0.007328600616 	-4.329335903e-05
0.4741763967 	0.6597238163 	-0.008086581774 	-5.100816374e-05
0.475763807 	0.7556758855 	-0.008350512467 	-5.779872243e-05
0.4775572933 	0.8368509981 	-0.009204566924 	-6.324470934e-05
0.4795835831 	0.9030206072 	-0.01023805037 	-6.734215774e-05
0.481879263 	0.9586638504 	-0.01092417561 	-7.040243653e-05
0.4844744806 	1.006863187 	-0.01147378632 	-7.26918914e-05
0.4874065619 	1.049790102 	-0.01196600196 	-7.438670037e-05
0.4907192246 	1.088919428 	-0.01238435268 	-7.556581648e-05
0.4944728854 	1.125268619 	-0.0127410143 	-7.628180178e-05
0.4987143778 	1.159552331 	-0.01308246373 	-7.658269381e-05
0.5035112163 	1.195204072 	-0.01341932523 	-7.655434696e-05
0.5107730215 	1.233577003 	-0.01369011887 	-7.576541352e-05
0.5185656539 	1.270507495 	-0.01392054385 	-7.4639734e-05
0.5269247196 	1.304157234 	-0.014106588 	-7.310652003e-05
0.5358928449 	1.335216425 	-0.01422458225 	-7.107746333e-05
0.5455150046 	1.36387109 	-0.01427948364 	-6.885042047e-05
0.5558387535 	1.389925073 	-0.01421345131 	-6.662076103e-05
0.5669144801 	1.413046975 	-0.01405914465 	-6.407990985e-05
0.5787956804 	1.43285225 	-0.01388561503 	-6.125270445e-05
0.5915392544 	1.448825015 	-0.01367233699 	-5.833963743e-05
0.6052058224 	1.460455487 	-0.01338922858 	-5.53434229e-05
0.6198603429 	1.467598878 	-0.01304154324 	-5.226934435e-05
0.6355749705 	1.470822833 	-0.01263510251 	-4.916374539e-05
0.6524206021 	1.471191811 	-0.01218655126 	-4.614305165e-05
0.6704783553 	1.469525315 	-0.01169884978 	-4.326693353e-05
0.6898319307 	1.466090628 	-0.01116489244 	-4.049451972e-05
0.7105714937 	1.46078016 	-0.01059917031 	-3.785717257e-05
0.7327937836 	1.453366427 	-0.01000148877 	-3.542838592e-05
0.7550223282 	1.443806609 	-0.009348179617 	-3.321815658e-05
0.7757797241 	1.432183951 	-0.008709740167 	-3.119708978e-05
0.7951620546 	1.418474615 	-0.008121821034 	-2.920652279e-05
0.8132596963 	1.402700777 	-0.007507398372 	-2.726043819e-05
0.8301574244 	1.384940114 	-0.006887495358 	-2.54690856e-05
0.8459346261 	1.365314387 	-0.006305136574 	-2.369180856e-05
0.86066544 	1.344094189 	-0.005741984676 	-2.191262588e-05
0.8744192184 	1.32157849 	-0.005198746778 	-2.02018945e-05
0.8872607168 	1.297974198 	-0.004684996832 	-1.854152079e-05
0.8992504152 	1.273393964 	-0.004202380928 	-1.693183997e-05
0.9104447947 	1.247867418 	-0.003751340375 	-1.537591846e-05
0.9208965944 	1.221332907 	-0.003333520437 	-1.388164955e-05
0.9306550585 	1.193614808 	-0.002947954313 	-1.241830271e-05
0.9397661676 	1.164367792 	-0.002580144504 	-1.099811152e-05
0.9482728542 	1.13300986 	-0.00225084058 	-9.660221617e-06
0.9562152047 	1.098656813 	-0.001923609821 	-8.343933606e-06
0.9636306481 	1.062896292 	-0.001613691534 	-7.128346064e-06
0.9685376396 	1.029548877 	-0.001405244277 	-6.138955019e-06
0.9728808087 	0.9973601503 	-0.001230880162 	-5.304045681e-06
0.9767249346 	0.9631576594 	-0.001052846416 	-4.534734188e-06
0.9801273551 	0.9262737442 	-0.0009040631802 	-3.837503828e-06
0.9831388207 	0.8858132233 	-0.0007913531462 	-3.167640171e-06
0.9858042517 	0.8404950411 	-0.0006884809368 	-2.545732769e-06
0.9881634075 	0.7883819846 	-0.0006450730388 	-2.046937371e-06
0.9902514797 	0.7267294371 	-0.0007869419307 	-1.557995404e-06
0.9920996164 	0.6516595703 	-0.0005040127509 	-1.077568259e-06
0.9937353873 	0.563818885 	0.0003592494598 	-7.452812801e-07
0.9947979485 	0.4702252033 	0.0005877064623 	-5.2467219e-07
0.9958605126 	0.3659522543 	-8.571874379e-05 	-3.421851439e-07
0.9969230794 	0.2472976521 	-0.0005249970308 	-1.689869572e-07
0.9979856491 	0.1236659025 	-0.000305243959 	-5.893897114e-08
0.9990482216 	0.03475589708 	-5.455877335e-05 	-2.043842125e-08
