0.3809068052 	4.335043906e-07 	-6.392362197e-09 	5.344211557e-12 	4.295218692e-07 	-2.331819937e-10 	8.187880622e-10
0.3809068052 	4.335043906e-07 	-6.392362197e-09 	5.344211557e-12 	4.295218692e-07 	-2.331819937e-10 	8.187880622e-10
0.3819639198 	3.650983377e-05 	-4.649170176e-06 	5.959813322e-09 	3.549765141e-05 	-2.873950734e-08 	6.766838965e-08
0.3830211992 	0.0003842512302 	-0.000140939328 	1.909209481e-07 	0.0004354761032 	-4.010065815e-07 	8.30138487e-07
0.3840785339 	0.001305782941 	-0.0007691078629 	8.926574631e-07 	0.001928327763 	-1.549955131e-06 	3.675928668e-06
0.385135815 	0.002423244868 	-0.001803535318 	1.718967553e-06 	0.004284834765 	-2.328495268e-06 	8.16808597e-06
0.3861929345 	0.003435848808 	-0.002780648332 	2.108855412e-06 	0.006439362873 	-1.68590591e-06 	1.227521536e-05
0.3878197712 	0.004075372932 	-0.003335532225 	1.477990656e-06 	0.007655310546 	5.325068909e-07 	1.459314958e-05
0.3896565669 	0.004049628799 	-0.00329423794 	-2.037258743e-07 	0.007687314894 	4.033409367e-06 	1.465415877e-05
0.3917295634 	0.003575678936 	-0.002875667083 	-1.916534466e-06 	0.006854830113 	7.47801245e-06 	1.30672114e-05
0.394067843 	0.002904913355 	-0.002323941366 	-2.926582887e-06 	0.005618133822 	9.203491286e-06 	1.070972454e-05
0.396755554 	0.002302006575 	-0.001754234776 	-3.444127074e-06 	0.004346006356 	9.204776532e-06 	8.284696025e-06
0.3998076713 	0.001969572658 	-0.001235475232 	-3.352384837e-06 	0.003293691737 	6.766628042e-06 	6.278691884e-06
0.4032493224 	0.001851998935 	-0.0008319852795 	-2.523709451e-06 	0.002670178358 	2.130190872e-06 	5.090102087e-06
0.4071295106 	0.001815145992 	-0.0005480012362 	-1.974031279e-06 	0.002478876686 	-1.73829664e-06 	4.725427931e-06
0.4115792059 	0.001804578385 	-0.0003271520826 	-1.819955811e-06 	0.002535295389 	-3.977633705e-06 	4.832977661e-06
0.4166308648 	0.001788487466 	-0.0001279694182 	-1.627901367e-06 	0.002697116776 	-4.409008902e-06 	5.1414542e-06
0.4242899957 	0.001744801021 	4.706657571e-05 	-9.494753582e-07 	0.00287029381 	-3.645023569e-06 	5.47157776e-06
0.4325944199 	0.001663090612 	0.0001516438209 	-1.193683399e-07 	0.002996012626 	-2.413537543e-06 	5.711232763e-06
0.4415815424 	0.001575914186 	0.0001886465221 	2.27748495e-07 	0.003061832334 	-1.356387765e-06 	5.836703421e-06
0.4512802035 	0.001518820486 	0.000202396463 	2.893951396e-07 	0.003085011837 	-7.90966645e-07 	5.880889997e-06
0.4617756613 	0.001487450624 	0.0002086209528 	2.895266838e-07 	0.003090020488 	-4.92419377e-07 	5.890437878e-06
0.4731719825 	0.001465161542 	0.0002126561566 	2.506015379e-07 	0.003093698126 	-3.425290081e-07 	5.897448477e-06
0.485500853 	0.001444008144 	0.000217267941 	2.014540478e-07 	0.00310426968 	-2.431067987e-07 	5.917600798e-06
0.4988448325 	0.001423153529 	0.0002230000616 	1.507111917e-07 	0.003122948028 	-1.617074281e-07 	5.95320692e-06
0.5132858996 	0.001402966226 	0.0002296690378 	9.772744634e-08 	0.003148695247 	-9.371425319e-08 	6.002288275e-06
0.5289386969 	0.001383284723 	0.0002370839919 	4.24841141e-08 	0.003180195347 	-3.694793075e-08 	6.062336221e-06
0.5418282751 	0.001368427168 	0.0002431660205 	-9.187258096e-09 	0.003207396154 	-6.56085404e-07 	6.114188519e-06
0.5458547894 	0.001363761054 	0.0002450781053 	1.384140002e-08 	0.003215853171 	-1.046827352e-08 	6.130309944e-06
0.5640944687 	0.001344117339 	0.0002533300662 	6.923992334e-08 	0.003253903976 	-4.989697338e-08 	6.202845354e-06
0.5838275065 	0.001323914198 	0.0002616387455 	1.210924773e-07 	0.003292857401 	-8.443374189e-08 	6.277101408e-06
0.605107761 	0.001302315438 	0.0002702797935 	1.673535166e-07 	0.003331204508 	-1.14561833e-07 	6.350201653e-06
0.6280406075 	0.001278350336 	0.0002797549358 	2.060066836e-07 	0.003367530494 	-1.40411491e-07 	6.419449077e-06
0.6527238598 	0.001251081134 	0.00029075084 	2.349255399e-07 	0.003400073315 	-1.611498772e-07 	6.481484739e-06
0.6792545965 	0.001220317727 	0.0003041888555 	2.525340202e-07 	0.00342612663 	-1.739456587e-07 	6.531149599e-06
0.7058458787 	0.001187878905 	0.0003203615405 	2.583188164e-07 	0.003443427064 	-1.759129521e-07 	6.564129035e-06
0.7307074168 	0.001156512028 	0.0003392244015 	2.553213438e-07 	0.003453183377 	-1.666472562e-07 	6.58272728e-06
0.7539388743 	0.001128047879 	0.0003616507922 	2.473474247e-07 	0.003459338525 	-1.463800049e-07 	6.594460703e-06
0.7756407309 	0.001104042303 	0.0003890001744 	2.371964652e-07 	0.003466538062 	-1.161692289e-07 	6.60818502e-06
0.7959110465 	0.00108649812 	0.0004225549384 	2.266295589e-07 	0.003480004723 	-7.768627677e-08 	6.633856219e-06
0.8148439719 	0.001077771703 	0.0004636470018 	2.161476177e-07 	0.003505546378 	-3.353059236e-08 	6.682545712e-06
0.8325271295 	0.001080432701 	0.0005135041678 	2.055694103e-07 	0.003549229395 	1.296480198e-08 	6.765817683e-06
0.8490433661 	0.001096996568 	0.0005729833486 	1.946478531e-07 	0.00361691063 	5.809085945e-08 	6.894836928e-06
0.8644696653 	0.001129537461 	0.0006424895421 	1.830440263e-07 	0.003713663482 	9.779722787e-08 	7.079274756e-06
0.878878094 	0.001179274162 	0.0007219966118 	1.699754814e-07 	0.003842944019 	1.277214147e-07 	7.325719392e-06
0.8923357983 	0.00124615811 	0.000810879533 	1.544227437e-07 	0.004005464025 	1.435461927e-07 	7.635527693e-06
0.9049053983 	0.001328470051 	0.000907605125 	1.358228838e-07 	0.00419794019 	1.419770942e-07 	8.002440758e-06
0.9166453775 	0.001422582072 	0.001009472629 	1.142144351e-07 	0.004412189061 	1.227467661e-07 	8.410858655e-06
0.9276103354 	0.001522999762 	0.001112257534 	8.994366353e-08 	0.004635415348 	9.046745446e-08 	8.836389999e-06
0.9378512652 	0.001623553368 	0.001212352593 	6.91735293e-08 	0.004849929466 	5.017191062e-08 	9.24531353e-06
0.9474158034 	0.001718509366 	0.001307124078 	5.420632598e-08 	0.005037110755 	1.601565039e-08 	9.602133091e-06
0.9563484579 	0.00181399215 	0.00138583707 	4.248061595e-08 	0.005158078508 	-1.705264013e-08 	9.832731249e-06
0.9622608402 	0.00190492748 	0.001444329054 	4.150880615e-08 	0.005214837299 	-9.125436602e-09 	9.940929281e-06
0.9674948231 	0.001974184897 	0.001495315793 	5.157008431e-08 	0.005264629447 	5.025374228e-08 	1.003584695e-05
0.9721281468 	0.002020528134 	0.001547576163 	6.607963389e-08 	0.005332674706 	1.215711526e-07 	1.016556013e-05
0.9762296655 	0.002045201425 	0.00160137004 	7.838209831e-08 	0.005420694639 	1.804638281e-07 	1.033335059e-05
0.9798603561 	0.002068116596 	0.00164766753 	8.669738321e-08 	0.005495197678 	2.188017968e-07 	1.047537408e-05
0.9830742178 	0.002091493603 	0.00167401457 	9.456250298e-08 	0.005514601964 	2.563536769e-07 	1.051236405e-05
0.9859190669 	0.002076642205 	0.001665025678 	9.869470678e-08 	0.005433669513 	2.810536405e-07 	1.03580843e-05
0.988437243 	0.00197849176 	0.001591223807 	9.25125352e-08 	0.005137844482 	2.7164303e-07 	9.794159573e-06
0.990666234 	0.001731737072 	0.001396897972 	7.38303109e-08 	0.004457238164 	2.226174042e-07 	8.496734766e-06
0.992639231 	0.001328876625 	0.00104354195 	4.732721001e-08 	0.003295697187 	1.445935484e-07 	6.28251483e-06
0.9939209151 	0.0008835364945 	0.0006074575506 	2.274633886e-08 	0.001904199677 	6.997339229e-08 	3.629933828e-06
0.9952026562 	0.0004443271257 	0.0002291247592 	6.895324101e-09 	0.0007430482598 	2.350223778e-08 	1.416456503e-06
0.9964844543 	0.0001193859473 	3.609474255e-05 	9.282848237e-10 	0.0001464113547 	4.985633663e-09 	2.79100735e-07
0.9977663094 	1.039386357e-05 	1.026866078e-06 	3.903913964e-11 	1.061378014e-05 	5.338269025e-10 	2.023281489e-08
0.9990482216 	1.131136423e-07 	1.207344346e-09 	9.885968348e-14 	1.129238735e-07 	9.473034252e-12 	2.152642885e-10
