0.121376578 	1.222933431e-06 	2.684735327e-09 	-4.551607805e-10 	1.134835448e-06 	-3.298177531e-08 	2.163311775e-09
0.123583729 	0.0001725516951 	-9.892231754e-06 	-4.171407181e-08 	0.0001216960841 	-3.345543662e-06 	2.3198656e-07
0.1257894093 	0.001158601374 	-0.0003275786919 	4.712673923e-06 	0.0008844831973 	-1.869106982e-05 	1.686070803e-06
0.1279925952 	0.002196714627 	-0.0007282458532 	7.136998681e-06 	0.001972784128 	-2.786110459e-05 	3.760674856e-06
0.1301922761 	0.002434951854 	-0.0008006077733 	4.454629619e-06 	0.002710416144 	-2.365677783e-05 	5.166806492e-06
0.132387455 	0.002432977029 	-0.000738852802 	4.31092601e-06 	0.003124210379 	-1.863637011e-05 	5.955613312e-06
0.1357557942 	0.002324145197 	-0.0006294026055 	4.987729526e-06 	0.003227850019 	-1.198417044e-05 	6.153179271e-06
0.1395413836 	0.002149996112 	-0.0005272473455 	4.873986419e-06 	0.003103128641 	-7.368868085e-06 	5.91542566e-06
0.1437868381 	0.002021213056 	-0.0004881114452 	4.162838517e-06 	0.002949609065 	-5.182578079e-06 	5.62277468e-06
0.1485346694 	0.001921596796 	-0.0004680707432 	3.512409455e-06 	0.002829312361 	-4.010035906e-06 	5.393455727e-06
0.1539572698 	0.001833283455 	-0.0004514148855 	2.886371084e-06 	0.002706600372 	-3.161550625e-06 	5.159532569e-06
0.1600645007 	0.00175395058 	-0.0004369855927 	2.273475995e-06 	0.002599883281 	-2.340379581e-06 	4.956100133e-06
0.1668783649 	0.001682848579 	-0.000424765004 	1.679988726e-06 	0.002516106629 	-1.566297595e-06 	4.796398551e-06
0.1744706299 	0.001617968676 	-0.0004150161522 	1.102330872e-06 	0.002445869914 	-9.160948104e-07 	4.662507851e-06
0.1830959347 	0.001558072119 	-0.0004078678308 	5.29148874e-07 	0.002384965039 	-3.86880064e-07 	4.546406231e-06
0.1922476596 	0.001503492813 	-0.0004027777807 	3.023951502e-08 	0.002332174554 	-3.85827518e-07 	4.445772895e-06
0.1926955792 	0.001501022843 	-0.0004022930624 	3.182626844e-08 	0.002328129943 	-2.710790345e-08 	4.438062742e-06
0.2053746929 	0.001459310472 	-0.0003915731184 	8.656176993e-07 	0.002262834002 	-6.308782743e-07 	4.313590529e-06
0.2189675343 	0.001428826528 	-0.0003839336714 	1.649363011e-06 	0.002215609103 	-1.003491834e-06 	4.223566748e-06
0.2334990144 	0.001410926336 	-0.0003798661588 	2.385045287e-06 	0.002188591381 	-1.172559556e-06 	4.172063459e-06
0.2489714712 	0.00140278506 	-0.0003785342346 	3.069203019e-06 	0.002177753739 	-1.154950404e-06 	4.151403901e-06
0.2654937654 	0.001404045806 	-0.0003800222991 	3.715184808e-06 	0.00218236858 	-9.998667158e-07 	4.160201071e-06
0.2832036071 	0.001412071301 	-0.0003835803208 	3.625998947e-06 	0.002198972781 	-5.91923331e-07 	4.191853293e-06
0.3020930082 	0.001426847916 	-0.0003893695911 	2.88011244e-06 	0.002228104327 	-1.774657148e-07 	4.247386118e-06
0.3222472526 	0.001446437095 	-0.0003969224232 	2.181378778e-06 	0.002267977505 	8.014151386e-08 	4.323395476e-06
0.3437457136 	0.001469974461 	-0.0004062258116 	1.529379121e-06 	0.002319190893 	2.0446384e-07 	4.421022427e-06
0.366723401 	0.00149583416 	-0.000417135067 	9.246851783e-07 	0.002382301895 	2.054925411e-07 	4.541329539e-06
0.3912146542 	0.001521086985 	-0.0004293208252 	3.640362043e-07 	0.002457777812 	1.089997267e-07 	4.685207613e-06
0.4093312864 	0.001536257986 	-0.0004385055032 	3.583033507e-08 	0.002520600323 	-9.736573237e-07 	4.804964781e-06
0.4171316319 	0.001542207772 	-0.0004418529027 	1.821801294e-07 	0.002546941112 	4.509391178e-08 	4.855177645e-06
0.444521887 	0.00155375283 	-0.000452970894 	7.580469008e-07 	0.002649723948 	1.864734057e-07 	5.051110298e-06
0.4737879914 	0.001551632704 	-0.0004627499915 	1.319505106e-06 	0.002771304737 	2.533843044e-07 	5.282877074e-06
0.5050603485 	0.001528737271 	-0.0004665624602 	1.843889918e-06 	0.002913651817 	1.371391835e-07 	5.554230171e-06
0.5384624778 	0.001477820995 	-0.0004295069186 	1.867384218e-06 	0.003067188034 	-7.875070215e-08 	5.846912874e-06
0.574124097 	0.001411160996 	-0.0003327004728 	1.11744842e-06 	0.003200508587 	-1.328247575e-08 	6.101058903e-06
0.6096731358 	0.001360640519 	-0.000193318132 	1.765975261e-07 	0.003276569056 	4.052979949e-07 	6.246051296e-06
0.642780273 	0.001337297801 	-4.380869063e-05 	-3.722597206e-07 	0.003294339275 	7.054677899e-07 	6.279926272e-06
0.6736372215 	0.001328084417 	8.70748108e-05 	-4.949311998e-07 	0.003282689107 	7.014402475e-07 	6.257717813e-06
0.7024167125 	0.001322814475 	0.0001966209033 	-5.344951345e-07 	0.003259828781 	6.573573435e-07 	6.214139679e-06
0.7292743072 	0.001317262834 	0.0002891471754 	-5.392657228e-07 	0.00323500829 	6.187182082e-07 	6.166824924e-06
0.7543509671 	0.001309311007 	0.0003692939867 	-5.251530567e-07 	0.003214903726 	6.003500473e-07 	6.128500037e-06
0.777772227 	0.001298374541 	0.0004408988331 	-4.951527044e-07 	0.003205842083 	6.135077352e-07 	6.111226028e-06
0.7996531056 	0.001285056389 	0.0005075111287 	-4.533139095e-07 	0.00321476618 	6.621618091e-07 	6.128237838e-06
0.8200980707 	0.001271046765 	0.0005725413666 	-4.027139892e-07 	0.003249856608 	7.445817371e-07 	6.195129945e-06
0.8392033992 	0.001258707152 	0.000639410204 	-3.486295624e-07 	0.003321083569 	8.641548736e-07 	6.330908329e-06
0.8570577716 	0.00125056672 	0.0007115509611 	-2.839521918e-07 	0.003439931425 	1.003091055e-06 	6.557465375e-06
0.8737433156 	0.001250461631 	0.0007931802996 	-2.047715405e-07 	0.003614730676 	1.112908095e-06 	6.89068133e-06
0.8893364195 	0.001269456029 	0.000887768373 	-1.332842301e-07 	0.00384029751 	9.957178748e-07 	7.32067441e-06
0.9039082323 	0.001334582856 	0.0009942407755 	-8.267646293e-08 	0.004086957508 	7.599759801e-07 	7.790876922e-06
0.917525146 	0.001450100549 	0.001109599598 	-4.278523904e-08 	0.00434420467 	6.845916453e-07 	8.281261511e-06
0.9302491908 	0.001586705072 	0.001230762217 	-2.59950023e-08 	0.004624449885 	6.290248232e-07 	8.81548678e-06
0.9421383606 	0.001712310519 	0.001340114363 	-4.40884327e-08 	0.004887644761 	4.944625024e-07 	9.317209365e-06
0.9500106837 	0.001806027751 	0.001420622858 	-6.833723727e-08 	0.00508285261 	3.383145239e-07 	9.68932978e-06
0.9569817698 	0.001873082754 	0.001478977349 	-8.285738596e-08 	0.005212559214 	1.959813871e-07 	9.936586618e-06
0.9631544511 	0.001923809342 	0.00152148263 	-9.532591019e-08 	0.00528518589 	5.141062897e-08 	1.007503325e-05
0.9686199044 	0.001963697948 	0.001545149811 	-9.621229863e-08 	0.005293459732 	-4.128638731e-08 	1.009080549e-05
0.9734589462 	0.001980457356 	0.001551426614 	-7.992303938e-08 	0.005248100525 	-5.806655604e-08 	1.000433824e-05
0.9777432055 	0.001954398013 	0.001541067132 	-5.791411999e-08 	0.005158672529 	-4.510476601e-08 	9.83386362e-06
0.9815361564 	0.001885792665 	0.00150179234 	-4.354965218e-08 	0.004989928971 	-5.002892129e-08 	9.512191498e-06
0.9848940386 	0.001769902014 	0.001417236819 	-3.810669061e-08 	0.004662964672 	-8.919450955e-08 	8.888906669e-06
0.9878666762 	0.001563728932 	0.001257874404 	-5.141267304e-08 	0.004068158969 	-1.547366006e-07 	7.755041681e-06
0.9904982048 	0.001242792975 	0.0009753142995 	-8.182977044e-08 	0.003097729965 	-2.511418391e-07 	5.905134283e-06
0.9922078258 	0.0008607105724 	0.0006002866155 	-9.242813232e-08 	0.001885425146 	-2.856359841e-07 	3.594144354e-06
0.993917638 	0.0004420832392 	0.0002394387428 	-5.383965467e-08 	0.0007724824944 	-1.649997918e-07 	1.472566335e-06
0.9956276413 	0.0001185175581 	3.857819885e-05 	-1.03462901e-08 	0.0001500226161 	-3.192520724e-08 	2.85984803e-07
0.9973378359 	9.264633109e-06 	9.50830526e-07 	-1.343058961e-10 	9.481923917e-06 	-8.326055781e-10 	1.807518235e-08
0.9990482216 	7.587800032e-08 	7.392638478e-10 	1.752082213e-13 	7.574728702e-08 	1.170787309e-11 	1.443953819e-10
