0.4327753378 	2.629347379e-07 	-1.722175225e-09 	3.957510572e-12 	2.631547197e-07 	-2.375158859e-10 	5.016460357e-10
0.4327753378 	2.629347379e-07 	-1.722175225e-09 	3.957510572e-12 	2.631547197e-07 	-2.375158859e-10 	5.016460357e-10
0.4338772721 	2.240531978e-05 	-1.390233408e-06 	1.937275313e-09 	2.294934347e-05 	-1.050823545e-08 	4.374782709e-08
0.4349792558 	0.0002547439991 	-5.032816709e-05 	4.127423622e-08 	0.0002760469729 	-4.555494186e-08 	5.262222537e-07
0.4360812236 	0.001059110652 	-0.000355993072 	1.607800631e-07 	0.00121105726 	1.1215712e-07 	2.308611734e-06
0.4371831111 	0.002384902681 	-0.001021551716 	2.460874872e-07 	0.00280371876 	7.51622232e-07 	5.344667209e-06
0.438284854 	0.003882431249 	-0.001880318734 	1.397642227e-07 	0.004615875266 	1.785722306e-06 	8.799141174e-06
0.439980521 	0.005220377477 	-0.00262032826 	-7.275409844e-08 	0.006228904031 	2.828487827e-06 	1.187402232e-05
0.4418954567 	0.006139850206 	-0.003080855319 	-2.823255935e-07 	0.00732884968 	3.62610121e-06 	1.397082444e-05
0.4440574903 	0.006691385614 	-0.003351945104 	-4.813597659e-07 	0.007942378677 	4.106370224e-06 	1.514038123e-05
0.4465121601 	0.007000022792 	-0.003487511624 	-6.56340797e-07 	0.008226391053 	4.252466719e-06 	1.568178775e-05
0.4492868824 	0.007144879815 	-0.003517455499 	-7.446058296e-07 	0.008311922447 	4.115589081e-06 	1.584483436e-05
0.4524193417 	0.007184414876 	-0.003485048947 	-7.26285705e-07 	0.008266116365 	3.778862572e-06 	1.575751524e-05
0.4559554006 	0.00715347315 	-0.003418523254 	-6.480409366e-07 	0.008128202119 	3.309290184e-06 	1.549461235e-05
0.4599707967 	0.007070036782 	-0.003326919343 	-5.237482299e-07 	0.007927778354 	2.766995233e-06 	1.511254896e-05
0.464503981 	0.006945545724 	-0.003217367721 	-3.800803437e-07 	0.007680103156 	2.221336013e-06 	1.464041119e-05
0.4696303012 	0.006770047061 	-0.003099327188 	-2.472911704e-07 	0.007361809009 	1.704235591e-06 	1.403365408e-05
0.477393966 	0.006519370039 	-0.002943299096 	-1.470371727e-07 	0.0069451481 	1.21540643e-06 	1.323938258e-05
0.4857273663 	0.006201679699 	-0.00274796935 	-1.195296297e-07 	0.006461096562 	8.56442024e-07 	1.231664582e-05
0.494665021 	0.005835753046 	-0.002543315226 	-1.520309074e-07 	0.005937583586 	6.126408116e-07 	1.131868458e-05
0.5042536707 	0.005420778352 	-0.002320445975 	-2.040872963e-07 	0.005374425979 	4.26063651e-07 	1.024514966e-05
0.5145418952 	0.004955812703 	-0.002072515213 	-2.466509071e-07 	0.004776200061 	2.696500568e-07 	9.104764792e-06
0.5255804116 	0.004447049097 	-0.00179689329 	-2.796689687e-07 	0.00414749283 	1.532825483e-07 	7.90627407e-06
0.5374224194 	0.003908617712 	-0.001492701315 	-3.28336461e-07 	0.003507732251 	9.357837671e-08 	6.686712595e-06
0.5501239917 	0.003369018923 	-0.001166279231 	-4.057129192e-07 	0.00289218344 	7.478830569e-08 	5.513305478e-06
0.5637445137 	0.002869410248 	-0.0008392860042 	-4.812070429e-07 	0.002336300104 	4.6878916e-08 	4.453637339e-06
0.5783471685 	0.002458019522 	-0.0005383236592 	-5.071142847e-07 	0.001868095931 	-3.521995111e-08 	3.561110056e-06
0.5940000683 	0.002182304461 	-0.0002804083733 	-4.811027998e-07 	0.001509865709 	-1.645397973e-07 	2.878223686e-06
0.6107820558 	0.002068457913 	-6.055896011e-05 	-4.588337555e-07 	0.001264120689 	-3.011518054e-07 	2.409765377e-06
0.6287644862 	0.00209240559 	0.0001372240788 	-4.6617646e-07 	0.001138661153 	-4.117089624e-07 	2.170604633e-06
0.6480354667 	0.002201694188 	0.0003106158625 	-4.59778897e-07 	0.001147633055 	-5.265399804e-07 	2.187707571e-06
0.6686833505 	0.002387183135 	0.0004833488711 	-4.103968306e-07 	0.001230543228 	-7.061486661e-07 	2.345757404e-06
0.6908046552 	0.002629015922 	0.0006725387608 	-4.302808233e-07 	0.001357019833 	-6.640548828e-07 	2.586856965e-06
0.7145040182 	0.002881787098 	0.000841354265 	-4.202791506e-07 	0.001593927327 	-5.324554353e-07 	3.038468495e-06
0.7382093303 	0.003164920667 	0.001003647046 	-3.034508281e-07 	0.001935084059 	-5.507800998e-07 	3.688808046e-06
0.7603476902 	0.003507778548 	0.001200418119 	-2.194794203e-07 	0.002312873865 	-5.384258547e-07 	4.408980417e-06
0.7810231972 	0.003900071939 	0.001431559286 	-1.583992287e-07 	0.002710652475 	-5.291658772e-07 	5.167257005e-06
0.8003330468 	0.004317633557 	0.001666007459 	-1.04467773e-07 	0.003148033251 	-5.216483458e-07 	6.001026327e-06
0.8183678884 	0.004751100569 	0.001890563872 	-5.859758597e-08 	0.003618563435 	-4.913450534e-07 	6.897987634e-06
0.8352122747 	0.005195557579 	0.002113230139 	-1.383133401e-08 	0.004091170534 	-4.495298625e-07 	7.798908119e-06
0.8509448023 	0.005628608028 	0.00232623448 	2.575653683e-08 	0.004547206812 	-4.07711888e-07 	8.668240014e-06
0.8656389188 	0.006032472808 	0.002524520524 	5.742622162e-08 	0.004975912226 	-3.730992377e-07 	9.485471686e-06
0.8793630728 	0.006398451784 	0.002705588653 	8.058935674e-08 	0.005371903688 	-3.474751078e-07 	1.024034147e-05
0.8921811598 	0.00672305891 	0.0028686925 	9.66170917e-08 	0.005733684405 	-3.276769478e-07 	1.092999607e-05
0.9041528421 	0.007006203796 	0.00301421829 	1.077195744e-07 	0.006062171503 	-3.092980899e-07 	1.155618378e-05
0.9153338379 	0.007250514785 	0.003143318452 	1.170728985e-07 	0.006359315117 	-2.860268653e-07 	1.212262209e-05
0.9257761958 	0.007459795942 	0.003257770441 	1.288387892e-07 	0.006628743489 	-2.483110661e-07 	1.263622745e-05
0.9355285441 	0.007636078576 	0.003355713581 	1.476179958e-07 	0.006877215562 	-1.911250049e-07 	1.310988428e-05
0.9446363202 	0.007783648109 	0.003439752761 	1.856665531e-07 	0.007101339366 	-9.87763054e-08 	1.353712655e-05
0.9531419822 	0.007901204769 	0.0035159414 	2.234206264e-07 	0.007294531165 	2.730865747e-08 	1.390540381e-05
0.9610852055 	0.007968628475 	0.003557663922 	3.289743714e-07 	0.007442956411 	1.304752424e-07 	1.418834358e-05
0.9663424224 	0.007986302537 	0.003572676759 	4.355697881e-07 	0.00753161158 	2.077563353e-07 	1.435734497e-05
0.9709962279 	0.007966312636 	0.003581587157 	4.390408849e-07 	0.007568211682 	2.670399464e-07 	1.442711494e-05
0.9751158091 	0.007898472059 	0.003567795375 	3.967544729e-07 	0.007557173706 	2.707958332e-07 	1.440607349e-05
0.9787624354 	0.007768713593 	0.003525518354 	3.003151983e-07 	0.007484637362 	2.080666402e-07 	1.426779906e-05
0.9819903612 	0.007558191607 	0.003447607703 	1.558845683e-07 	0.007328207321 	9.223400942e-08 	1.396959992e-05
0.9848476266 	0.007234602244 	0.003318123095 	8.394823869e-09 	0.007060413929 	-8.417097552e-08 	1.345911129e-05
0.9873767673 	0.006749219657 	0.0031085888 	-9.894183721e-08 	0.006630511322 	-2.849109488e-07 	1.263959743e-05
0.9896154434 	0.006036254617 	0.002783603864 	-2.287604711e-07 	0.005943271348 	-4.189522987e-07 	1.132952704e-05
0.9915969973 	0.004984098874 	0.00227700018 	-3.093563272e-07 	0.004899489035 	-4.410534795e-07 	9.339787844e-06
0.9933509477 	0.00356777191 	0.001548901917 	-2.388921042e-07 	0.003519698672 	-3.473563053e-07 	6.709523919e-06
0.9944903227 	0.002079161371 	0.0007891882627 	-1.287267285e-07 	0.00206928523 	-2.091893077e-07 	3.944632776e-06
0.9956297375 	0.0008679487072 	0.0002557143145 	-5.310792068e-08 	0.0008678940059 	-1.049521075e-07 	1.654447194e-06
0.9967691923 	0.0001953534022 	3.300537293e-05 	-1.18742312e-08 	0.0001950721712 	-3.623577497e-08 	3.718617759e-07
0.997908687 	1.629618075e-05 	8.424955257e-07 	-5.816142202e-10 	1.625904238e-05 	-5.236918168e-09 	3.099425375e-08
0.9990482216 	1.985735781e-07 	1.049856119e-09 	-1.349012936e-12 	1.981875607e-07 	-1.23376034e-10 	3.778005741e-10
