0.4709558481 	3.269941533e-07 	-2.579820917e-09 	9.956947885e-14 	3.263565601e-07 	-8.869190347e-12 	6.221263096e-10
0.4720092239 	2.685348447e-05 	-1.86885502e-06 	7.148374037e-11 	2.679936231e-05 	-7.283931696e-10 	5.108703306e-08
0.4730625996 	0.0003066667798 	-6.292039463e-05 	2.215149655e-09 	0.0003067689067 	-8.167081325e-09 	5.847867981e-07
0.4741159754 	0.001276189894 	-0.000420263825 	1.215648817e-08 	0.001278635306 	-3.016079461e-08 	2.437434272e-06
0.4751693511 	0.00285574071 	-0.001159292056 	2.675226607e-08 	0.002847996181 	-5.619678723e-08 	5.429072281e-06
0.4762227269 	0.004599923107 	-0.002069512274 	3.55894483e-08 	0.004561624286 	-7.365310691e-08 	8.695723727e-06
0.4778443634 	0.006104704345 	-0.002832555672 	3.821022093e-08 	0.006066559227 	-8.163957414e-08 	1.1564548e-05
0.4796765386 	0.007097206676 	-0.003299479678 	3.756622592e-08 	0.007095397151 	-8.018507687e-08 	1.352579903e-05
0.4817465869 	0.007677474472 	-0.003569451789 	3.422503573e-08 	0.007682295901 	-7.262864618e-08 	1.464459117e-05
0.4840853915 	0.007994697242 	-0.003712271928 	3.084920136e-08 	0.00798265353 	-6.079259088e-08 	1.521715629e-05
0.4867278453 	0.008135440404 	-0.003766747319 	2.628425624e-08 	0.008118104506 	-4.50903228e-08 	1.54753635e-05
0.4897133715 	0.008158632683 	-0.003766957189 	1.901458526e-08 	0.008140109047 	-2.569714999e-08 	1.551731027e-05
0.4930865115 	0.008096181414 	-0.003735519793 	1.008613187e-08 	0.008074124529 	-1.634691395e-09 	1.539152544e-05
0.4968975894 	0.007962652769 	-0.003675636027 	-1.650483313e-09 	0.007937870745 	2.923461468e-08 	1.513178786e-05
0.5012034633 	0.00776671492 	-0.003592649052 	-1.542028441e-08 	0.007738560198 	6.866007764e-08 	1.475184656e-05
0.506068373 	0.007484669996 	-0.003469866584 	-4.509427861e-08 	0.007451735603 	1.204382886e-07 	1.420507916e-05
0.5134203412 	0.00707236553 	-0.003280235804 	-8.919428899e-08 	0.007036631572 	1.971507371e-07 	1.341377551e-05
0.5212948542 	0.006547267162 	-0.003035250906 	-1.373334315e-07 	0.006508615846 	3.027503429e-07 	1.240723078e-05
0.529729052 	0.005943745098 	-0.002753834761 	-1.955034709e-07 	0.005902189325 	4.254062364e-07 	1.125121328e-05
0.5387627144 	0.005266463814 	-0.002438738999 	-2.599082485e-07 	0.005225316146 	5.654872857e-07 	9.960904875e-06
0.5484384488 	0.004539407966 	-0.002100070646 	-3.126508063e-07 	0.004494971985 	6.874684855e-07 	8.568665916e-06
0.5588018907 	0.003813230999 	-0.001740459463 	-4.183710781e-07 	0.003764068499 	7.240709299e-07 	7.175360727e-06
0.5699019192 	0.00313643203 	-0.001337110332 	-4.978290979e-07 	0.003098909181 	6.960688431e-07 	5.907382195e-06
0.5817908876 	0.002552386166 	-0.0009380189982 	-4.576322194e-07 	0.002532650033 	6.239692923e-07 	4.827934876e-06
0.5945248701 	0.002108589628 	-0.0006136414194 	-3.834173685e-07 	0.002096223604 	4.779748858e-07 	3.995984805e-06
0.6081639266 	0.001827076569 	-0.0003664783776 	-3.022267611e-07 	0.001820600059 	3.018955805e-07 	3.470569723e-06
0.6227723857 	0.001690942087 	-0.0001761804339 	-2.418629148e-07 	0.001693477418 	1.541336523e-07 	3.228238637e-06
0.638419148 	0.001659829484 	-1.390879945e-05 	-2.071619559e-07 	0.001671822132 	5.025582501e-08 	3.186957643e-06
0.6551780116 	0.00169355406 	0.0001364247928 	-1.798107531e-07 	0.001714458398 	-9.649660845e-09 	3.268234216e-06
0.6731280194 	0.001768590404 	0.0002843599331 	-1.557610822e-07 	0.001797216123 	-3.708520697e-08 	3.425993441e-06
0.6923538328 	0.001875885999 	0.0004378490531 	-1.286326807e-07 	0.001911091333 	-3.855048296e-08 	3.643071242e-06
0.7129461301 	0.002014826884 	0.0006030946257 	-9.018849064e-08 	0.002054539747 	-1.343926544e-08 	3.916523788e-06
0.7350020349 	0.00218636511 	0.0007827150464 	-3.443360663e-08 	0.002230511049 	3.733226186e-08 	4.251973999e-06
0.7570579485 	0.002388765285 	0.0009720000106 	4.156215322e-08 	0.002433942787 	1.082946144e-07 	4.639771431e-06
0.7776502527 	0.002619814924 	0.001167012435 	1.058423628e-07 	0.002655833204 	2.008980502e-07 	5.062756237e-06
0.7968760713 	0.002880757633 	0.001337759426 	1.535496046e-07 	0.0029071827 	3.144856358e-07 	5.541898235e-06
0.814826083 	0.003180560478 	0.00148358868 	2.070134447e-07 	0.003201187635 	4.343011134e-07 	6.102353356e-06
0.831584949 	0.003525971901 	0.001641767911 	2.570529587e-07 	0.003536069633 	5.450420149e-07 	6.740731521e-06
0.8472317127 	0.003911093503 	0.001818194895 	2.962624799e-07 	0.003909059376 	6.325201941e-07 	7.451753638e-06
0.8618401721 	0.00432396398 	0.002008160429 	3.188361175e-07 	0.004313153895 	6.837473834e-07 	8.222070103e-06
0.8754792281 	0.004749971729 	0.002204825806 	3.230808611e-07 	0.004733072044 	6.954043861e-07 	9.022550805e-06
0.8882132094 	0.005172857034 	0.002400602023 	3.112869867e-07 	0.005152292316 	6.723362326e-07 	9.821701159e-06
0.9001021759 	0.005578215776 	0.002588743612 	2.87546189e-07 	0.005556204135 	6.230106382e-07 	1.059166935e-05
0.9112022019 	0.005955143434 	0.002764070991 	2.564163249e-07 	0.005933409193 	5.570807295e-07 	1.131072703e-05
0.9215656407 	0.006296615748 	0.002923193785 	2.221715555e-07 	0.006276346643 	4.838409778e-07 	1.196446112e-05
0.9312413717 	0.006598759632 	0.00306432572 	1.881685186e-07 	0.006581508522 	4.114894669e-07 	1.254618448e-05
0.9402750304 	0.006859977009 	0.003186688293 	1.566940114e-07 	0.00684729693 	3.422512507e-07 	1.305285106e-05
0.9487092242 	0.007081705091 	0.003289791449 	1.291886606e-07 	0.007067888645 	2.799893645e-07 	1.347336017e-05
0.9565837329 	0.00726024749 	0.003366007117 	9.277949537e-08 	0.00724330159 	2.317450433e-07 	1.3807746e-05
0.9639356968 	0.007376785372 	0.00339214475 	6.529245014e-08 	0.007366022142 	1.942658453e-07 	1.404168548e-05
0.9688006083 	0.007434552019 	0.003393717201 	5.767933687e-08 	0.007427969949 	1.64618649e-07 	1.415977522e-05
0.9731064834 	0.007452790205 	0.003397573239 	5.077694803e-08 	0.007442680299 	1.431994989e-07 	1.418781724e-05
0.976917562 	0.007429327629 	0.003388824362 	4.565484179e-08 	0.007418372477 	1.261213695e-07 	1.414147977e-05
0.9802907021 	0.007354234435 	0.003364029766 	4.192599081e-08 	0.007346462074 	1.119488841e-07 	1.400439856e-05
0.9832762282 	0.007212539414 	0.00331598271 	3.876786901e-08 	0.007206099847 	1.006067398e-07 	1.373682914e-05
0.9859186816 	0.006973763534 	0.003228730626 	3.865873538e-08 	0.006969220821 	9.069306122e-08 	1.328527188e-05
0.9882574856 	0.006581734278 	0.003060562904 	3.855001685e-08 	0.006587553052 	8.292981901e-08 	1.255770703e-05
0.990327533 	0.005957942588 	0.00276927243 	3.551698132e-08 	0.005952495616 	7.663709358e-08 	1.134711105e-05
0.9921597073 	0.004976379749 	0.002301949329 	3.192043584e-08 	0.004942431614 	6.854482108e-08 	9.421648333e-06
0.9937813429 	0.003595219294 	0.001591184902 	2.578555242e-08 	0.003569930044 	5.600638551e-08 	6.805278875e-06
0.9948347186 	0.002113454984 	0.0008205827251 	1.649907173e-08 	0.002111727286 	3.866106779e-08 	4.02553913e-06
0.9958880943 	0.0008945306983 	0.0002727012672 	6.636300246e-09 	0.0008963428849 	1.875504778e-08 	1.708678664e-06
0.9969414701 	0.0002062510493 	3.731770258e-05 	1.054933066e-09 	0.0002061400857 	4.677430167e-09 	3.929602971e-07
0.9979948458 	1.786683192e-05 	1.058747284e-06 	3.165531329e-11 	1.782967034e-05 	4.099635608e-10 	3.398830717e-08
0.9990482216 	2.383751232e-07 	1.588358816e-09 	4.757480725e-14 	2.379144819e-07 	5.472348355e-12 	4.535311273e-10
0.9990482216 	2.383751232e-07 	1.588358816e-09 	4.757480725e-14 	2.379144819e-07 	5.472348355e-12 	4.535311273e-10
