0.121376578 	0.1296131823 	0.1004857225 	-0.001448618148
0.123583729 	0.4487263539 	0.3336522775 	-0.004394766597
0.1257894093 	0.7082990615 	0.4931370194 	-0.005020554312
0.1279925952 	0.821944268 	0.5395791649 	-0.004277238656
0.1301922761 	0.8644548752 	0.5440303378 	-0.003683597066
0.132387455 	0.8840798926 	0.5352092976 	-0.003257291438
0.1357557942 	0.8999953446 	0.5204877103 	-0.002799962405
0.1395413836 	0.9159998627 	0.5037599523 	-0.002360632415
0.1437868381 	0.9330742937 	0.4871715517 	-0.001955258185
0.1485346694 	0.9502964217 	0.4699807076 	-0.00157673883
0.1539572698 	0.9680601539 	0.4520137849 	-0.001217635643
0.1600645007 	0.986555822 	0.433626433 	-0.0008879877524
0.1668783649 	1.00522554 	0.4149395445 	-0.0005974184011
0.1744706299 	1.023685336 	0.3958116235 	-0.0003503751804
0.1830959347 	1.041984857 	0.3762364329 	-0.0001469719434
0.1922476596 	1.059575052 	0.355301232 	-8.586239259e-05
0.1926955792 	1.060199459 	0.3539067773 	-1.096414392e-05
0.2053746929 	1.074275452 	0.3244651528 	-0.0002445185029
0.2189675343 	1.087566323 	0.2961276145 	-0.0003642415563
0.2334990144 	1.099389436 	0.2706602784 	-0.0003917645261
0.2489714712 	1.109712207 	0.2477846238 	-0.0003494252095
0.2654937654 	1.118630426 	0.2271215918 	-0.0002583162385
0.2832036071 	1.126187955 	0.208359766 	-0.0001152345303
0.3020930082 	1.132414222 	0.1912265894 	-1.981360934e-06
0.3222472526 	1.137340918 	0.17547784 	5.212508586e-05
0.3437457136 	1.140992116 	0.1608648644 	6.471207961e-05
0.366723401 	1.143381523 	0.1471943606 	5.079961572e-05
0.3912146542 	1.144484681 	0.1343310777 	2.262094356e-05
0.4093312864 	1.144379349 	0.1259189118 	-0.0002756258397
0.4171316319 	1.144482327 	0.1219867256 	4.428665436e-06
0.444521887 	1.143477825 	0.1100282704 	2.231977858e-05
0.4737879914 	1.140973412 	0.0988413797 	4.161586981e-05
0.5050603485 	1.137003226 	0.088375373 	5.800498357e-05
0.5384624778 	1.131569067 	0.07857129864 	6.867216684e-05
0.574124097 	1.124666007 	0.06948047046 	7.325850939e-05
0.6096731358 	1.116583288 	0.06138041815 	7.276812078e-05
0.642780273 	1.10782344 	0.05440652061 	6.887862629e-05
0.6736372215 	1.098637663 	0.04841075574 	6.300636689e-05
0.7024167125 	1.0890862 	0.04319834127 	5.634058481e-05
0.7292743072 	1.07918962 	0.03861566763 	4.967523879e-05
0.7543509671 	1.068925334 	0.03455129598 	4.329633578e-05
0.777772227 	1.058239843 	0.03091887991 	3.738774547e-05
0.7996531056 	1.047049093 	0.0276509955 	3.204385574e-05
0.8200980707 	1.035235695 	0.02469427762 	2.72732758e-05
0.8392033992 	1.022641289 	0.02200498336 	2.306178593e-05
0.8570577716 	1.009047945 	0.01954442055 	1.924522028e-05
0.8737433156 	0.9941555758 	0.01727390776 	1.599537427e-05
0.8893364195 	0.9775783718 	0.01519251275 	1.347015784e-05
0.9039082323 	0.958859258 	0.01330496144 	1.099578192e-05
0.917525146 	0.9374473239 	0.01154163669 	8.572303207e-06
0.9302491908 	0.9126873924 	0.009863376179 	6.685942368e-06
0.9421383606 	0.886088279 	0.008394417154 	5.172149907e-06
0.9500106837 	0.8611735094 	0.007231431452 	3.99653976e-06
0.9569817698 	0.8374891118 	0.006257363308 	3.138293039e-06
0.9631544511 	0.8129545919 	0.005386993657 	2.444001484e-06
0.9686199044 	0.7872327451 	0.004603204844 	1.785438216e-06
0.9734589462 	0.7596560028 	0.003848733846 	1.229460669e-06
0.9777432055 	0.7291898561 	0.00313415538 	8.47425959e-07
0.9815361564 	0.6942140207 	0.002473882806 	5.662182766e-07
0.9848940386 	0.6521668591 	0.001754239774 	2.740403015e-07
0.9878666762 	0.5990688513 	0.00117553771 	1.673971504e-07
0.9904982048 	0.5335569985 	0.001228300279 	1.48002135e-07
0.9922078258 	0.4594025188 	0.001419260667 	-1.651506704e-07
0.993917638 	0.3698739586 	0.0007529681718 	-3.197481674e-07
0.9956276413 	0.2589119739 	-0.0001743356202 	-6.334828945e-09
0.9973378359 	0.1340205521 	-0.0003502792903 	1.050566933e-07
0.9990482216 	0.03861927239 	-0.0001243842909 	-1.724144897e-09
