0.4709558481 	3.258701621e-07 	-3.592231916e-09 	2.289963803e-14 	3.253212388e-07 	-1.537205216e-12 	6.201526994e-10
0.4720092239 	2.649536676e-05 	-2.586320901e-06 	1.683106149e-11 	2.70365824e-05 	-1.289982068e-10 	5.153924048e-08
0.4730625996 	0.0002784001236 	-8.233889623e-05 	4.92476795e-10 	0.0003389000046 	-1.674396654e-09 	6.460376011e-07
0.4741159754 	0.0009901102584 	-0.0004963214372 	2.410584256e-09 	0.001617488963 	-7.350887986e-09 	3.083383521e-06
0.4751693511 	0.001926180517 	-0.001272438617 	4.968189593e-09 	0.003959197259 	-1.520694e-08 	7.547330378e-06
0.4762227269 	0.002792924106 	-0.002152931248 	6.502331199e-09 	0.006730579948 	-2.00407785e-08 	1.283035605e-05
0.4778443634 	0.003571633918 	-0.00288227473 	7.057897486e-09 	0.009112982914 	-2.142365909e-08 	1.737187826e-05
0.4796765386 	0.004147156825 	-0.003337066762 	6.860439125e-09 	0.01064755701 	-2.026219068e-08 	2.0297203e-05
0.4817465869 	0.004486303858 	-0.00360756663 	5.805364825e-09 	0.01152878713 	-1.64650601e-08 	2.197707253e-05
0.4840853915 	0.004679050562 	-0.003762588991 	4.62297627e-09 	0.01198347189 	-1.307333563e-08 	2.284382806e-05
0.4867278453 	0.004780771543 	-0.003828789778 	2.812505756e-09 	0.01217112849 	-7.555760606e-09 	2.320155368e-05
0.4897133715 	0.004813575198 	-0.003838573765 	-3.371597134e-10 	0.01218780751 	2.438711967e-09 	2.323334853e-05
0.4930865115 	0.004783096951 	-0.003811317336 	-4.214425346e-09 	0.01209097743 	1.486459862e-08 	2.30487635e-05
0.4968975894 	0.004703888019 	-0.003751797546 	-8.770776589e-09 	0.01189878299 	3.075063781e-08 	2.268238747e-05
0.5012034633 	0.004579090936 	-0.00366494384 	-1.402153399e-08 	0.01162545426 	4.916860193e-08 	2.216134694e-05
0.506068373 	0.004402259747 	-0.003539622842 	-2.225017583e-08 	0.01122763854 	7.8047251e-08 	2.140299961e-05
0.5134203412 	0.004161340539 	-0.003352406853 	-3.45073548e-08 	0.0106293195 	1.199669851e-07 	2.026243722e-05
0.5212948542 	0.003863306008 	-0.00311246694 	-4.982722723e-08 	0.009858979183 	1.716219636e-07 	1.879395448e-05
0.529729052 	0.003521420008 	-0.002837472939 	-6.978712959e-08 	0.00897484149 	2.338361615e-07 	1.710854231e-05
0.5387627144 	0.003136917781 	-0.002527502709 	-9.166859309e-08 	0.00798696319 	3.042128487e-07 	1.52253717e-05
0.5484384488 	0.002721447613 	-0.002193406566 	-1.092694602e-07 	0.00691636525 	3.656101135e-07 	1.318451447e-05
0.5588018907 	0.002323252461 	-0.001854076619 	-1.275113004e-07 	0.005804967894 	4.269781797e-07 	1.106588221e-05
0.5699019192 	0.002051815264 	-0.001501505592 	-1.412093075e-07 	0.004644753202 	4.557384562e-07 	8.854190545e-06
0.5817908876 	0.001891033757 	-0.001144546313 	-1.381394785e-07 	0.003540479137 	4.036927871e-07 	6.74913726e-06
0.5945248701 	0.001762911415 	-0.0008174313453 	-1.217685314e-07 	0.002671363546 	2.934511982e-07 	5.092361386e-06
0.6081639266 	0.001681750088 	-0.0005309068172 	-9.573557987e-08 	0.002092124423 	1.627579874e-07 	3.988170626e-06
0.6227723857 	0.00164951504 	-0.0002812102076 	-7.188529771e-08 	0.001787376926 	5.551360683e-08 	3.407237197e-06
0.638419148 	0.001651791625 	-5.490009809e-05 	-5.512677804e-08 	0.001691832451 	-8.021290173e-09 	3.225102871e-06
0.6551780116 	0.001664500102 	0.000156125035 	-3.937339876e-08 	0.001744183429 	-3.24110022e-08 	3.324898386e-06
0.6731280194 	0.001672544782 	0.0003537044754 	-2.604176604e-08 	0.001903802009 	-3.237937073e-08 	3.629175763e-06
0.6923538328 	0.001671843503 	0.0005416263595 	-1.523627674e-08 	0.002152261318 	-1.961096349e-08 	4.102808262e-06
0.7129461301 	0.001662880248 	0.0007232244552 	-5.76263787e-09 	0.002485926378 	3.236177641e-10 	4.738866603e-06
0.7350020349 	0.00164922741 	0.0008980177888 	4.903895599e-09 	0.002904488108 	2.339104822e-08 	5.536761594e-06
0.7570579485 	0.001639866842 	0.001063546177 	1.700847293e-08 	0.003388954533 	5.135809885e-08 	6.460289251e-06
0.7776502527 	0.001648257138 	0.001221750781 	3.027522062e-08 	0.003910043929 	7.919784738e-08 	7.453630469e-06
0.7968760713 	0.001727644734 	0.001371801278 	5.411033098e-08 	0.004414025833 	1.463415566e-07 	8.414360052e-06
0.814826083 	0.001896047369 	0.001524221232 	7.744654453e-08 	0.004900710659 	2.234922519e-07 	9.342116598e-06
0.831584949 	0.002108284211 	0.001695964708 	9.022757352e-08 	0.005428847206 	2.695071314e-07 	1.034889164e-05
0.8472317127 	0.002342562569 	0.001885818653 	1.022063629e-07 	0.006010928366 	3.121242345e-07 	1.145850012e-05
0.8618401721 	0.002589837996 	0.002085645328 	1.106348252e-07 	0.006631581606 	3.397920232e-07 	1.264163769e-05
0.8754792281 	0.002840848121 	0.002288139658 	1.118819975e-07 	0.007266737155 	3.471414157e-07 	1.38524207e-05
0.8882132094 	0.003086504836 	0.002486108267 	1.069801841e-07 	0.007892339228 	3.34579063e-07 	1.504499213e-05
0.9001021759 	0.003319283008 	0.002673530947 	9.788337818e-08 	0.008488539671 	3.077320457e-07 	1.618151588e-05
0.9112022019 	0.003533815678 	0.002846142102 	8.646256052e-08 	0.00904067376 	2.728496323e-07 	1.723403691e-05
0.9215656407 	0.003726876752 	0.003001362006 	7.39853255e-08 	0.009539700605 	2.355836689e-07 	1.818532078e-05
0.9312413717 	0.003896901931 	0.003137841603 	6.272310663e-08 	0.009981543568 	1.980678455e-07 	1.902759627e-05
0.9402750304 	0.004043411203 	0.003255204579 	5.309567823e-08 	0.01036477465 	1.634009739e-07 	1.975814122e-05
0.9487092242 	0.004171118504 	0.003355835734 	4.10983595e-08 	0.01068087545 	1.198375335e-07 	2.036071721e-05
0.9565837329 	0.004286071784 	0.00343556709 	3.19075416e-08 	0.01091839338 	8.606723126e-08 	2.081349239e-05
0.9639356968 	0.004397894114 	0.003478459295 	2.834660077e-08 	0.01103548573 	7.455017227e-08 	2.103670296e-05
0.9688006083 	0.004470051594 	0.003495929408 	2.534376017e-08 	0.01107208467 	6.715743478e-08 	2.110647071e-05
0.9731064834 	0.004485268907 	0.003503425728 	2.30890135e-08 	0.01108458723 	6.38087414e-08 	2.113030407e-05
0.976917562 	0.004465807517 	0.003492434956 	2.160949128e-08 	0.01105064861 	6.105712888e-08 	2.106560761e-05
0.9802907021 	0.004403964897 	0.003458021616 	2.037348082e-08 	0.01095879862 	5.903156696e-08 	2.0890516e-05
0.9832762282 	0.004290677506 	0.003395060202 	1.928545465e-08 	0.01078081118 	5.73012928e-08 	2.055122248e-05
0.9859186816 	0.004110649976 	0.003287763521 	1.868715956e-08 	0.01047007111 	5.685875543e-08 	1.995886554e-05
0.9882574856 	0.003858093407 	0.003102554476 	1.800917546e-08 	0.009917292313 	5.621814829e-08 	1.890511552e-05
0.990327533 	0.003494196551 	0.002812727661 	1.6907032e-08 	0.008965332644 	5.344671069e-08 	1.709041581e-05
0.9921597073 	0.002934057947 	0.002358069648 	1.559161152e-08 	0.007441947042 	4.907737159e-08 	1.418641944e-05
0.9937813429 	0.002234028659 	0.001678227859 	1.299673746e-08 	0.005239953222 	4.039482793e-08 	9.988807211e-06
0.9948347186 	0.001486831811 	0.0009238561767 	8.70541007e-09 	0.002885690134 	2.673067474e-08 	5.500927432e-06
0.9958880943 	0.0007248455667 	0.0003320717947 	3.768286596e-09 	0.001109208039 	1.185262895e-08 	2.11445881e-06
0.9969414701 	0.000192553248 	4.998690887e-05 	6.718701388e-10 	0.0002245156114 	2.544533219e-09 	4.279891561e-07
0.9979948458 	1.78046444e-05 	1.482081e-06 	2.134507318e-11 	1.805741759e-05 	2.001837962e-10 	3.442245672e-08
0.9990482216 	2.392754095e-07 	2.233253107e-09 	3.204693619e-14 	2.388588436e-07 	2.633413191e-12 	4.553313433e-10
0.9990482216 	2.392754095e-07 	2.233253107e-09 	3.204693619e-14 	2.388588436e-07 	2.633413191e-12 	4.553313433e-10
