0.4709558481 	3.726875418e-07 	-3.12106636e-09 	2.132287188e-13 	3.719580028e-07 	-1.709411156e-11 	7.090553337e-10
0.4709558481 	3.726875418e-07 	-3.12106636e-09 	2.132287188e-13 	3.719580028e-07 	-1.709411156e-11 	7.090553337e-10
0.4720092239 	3.060387801e-05 	-2.254782884e-06 	1.516202276e-10 	3.054322461e-05 	-1.403486121e-09 	5.822387515e-08
0.4730625996 	0.0003483231487 	-7.467191158e-05 	4.552199867e-09 	0.0003485506499 	-1.560438803e-08 	6.644344134e-07
0.4741159754 	0.001427656158 	-0.0004829321314 	2.364254029e-08 	0.001429990993 	-5.547627228e-08 	2.725960278e-06
0.4751693511 	0.003135081669 	-0.001293848342 	4.958425834e-08 	0.003123563621 	-9.863181463e-08 	5.954380411e-06
0.4762227269 	0.004957667152 	-0.002241746257 	6.091025076e-08 	0.004913939175 	-1.225954957e-07 	9.367333826e-06
0.4778443634 	0.006486125072 	-0.00300969532 	5.936909306e-08 	0.006445649595 	-1.266944924e-07 	1.22871996e-05
0.4796765386 	0.00745545272 	-0.003465155827 	5.144930984e-08 	0.007448631421 	-1.08880927e-07 	1.419916173e-05
0.4817465869 	0.007978024945 	-0.003706997096 	3.584058669e-08 	0.007972948886 	-7.426076918e-08 	1.519865654e-05
0.4840853915 	0.008206378736 	-0.003809663147 	1.320503501e-08 	0.008182019209 	-2.495734791e-08 	1.559720269e-05
0.4867278453 	0.008226601122 	-0.003816750678 	-1.769903326e-08 	0.008190795591 	4.243029133e-08 	1.561393291e-05
0.4897133715 	0.00809059211 	-0.003751617147 	-5.888466061e-08 	0.008046497368 	1.320964343e-07 	1.533886039e-05
0.4930865115 	0.007819733005 	-0.00362370411 	-1.131886581e-07 	0.0077672552 	2.501693758e-07 	1.480654721e-05
0.4968975894 	0.007415899678 	-0.003433831908 	-1.843058242e-07 	0.007354437116 	4.044585516e-07 	1.40196012e-05
0.5012034633 	0.006868270065 	-0.00317726889 	-2.760275589e-07 	0.006798754979 	5.981304084e-07 	1.296031661e-05
0.506068373 	0.006088833438 	-0.002813642325 	-3.98601755e-07 	0.006015178924 	8.633792427e-07 	1.146660286e-05
0.5134203412 	0.005018532927 	-0.002315207808 	-5.095218405e-07 	0.004941213013 	1.107435246e-06 	9.419325342e-06
0.5212948542 	0.003873783777 	-0.001754566672 	-6.466164655e-07 	0.003799555474 	1.132207941e-06 	7.243008766e-06
0.529729052 	0.002914786992 	-0.00119264308 	-6.564144953e-07 	0.002866006564 	9.40091389e-07 	5.463405076e-06
0.5387627144 	0.002253561337 	-0.0007235401095 	-4.778880186e-07 	0.002231150723 	6.165826881e-07 	4.253193394e-06
0.5484384488 	0.001906259944 	-0.0004205095668 	-3.177611597e-07 	0.001890260224 	2.752106201e-07 	3.603361358e-06
0.5588018907 	0.001776518584 	-0.0002192462593 	-2.228898516e-07 	0.001767249676 	4.995979795e-08 	3.368869065e-06
0.5699019192 	0.001754293848 	-6.26185941e-05 	-1.84105259e-07 	0.001759871709 	-5.717599879e-08 	3.354804607e-06
0.5817908876 	0.001777618211 	7.134122354e-05 	-1.638527511e-07 	0.001797168192 	-1.013491985e-07 	3.425902071e-06
0.5945248701 	0.001819442769 	0.0001938106884 	-1.536875422e-07 	0.001851396409 	-1.187987022e-07 	3.529276125e-06
0.6081639266 	0.001868682033 	0.0003108167362 	-1.486878856e-07 	0.001912347724 	-1.24191935e-07 	3.645466271e-06
0.6227723857 	0.001920114426 	0.0004241695277 	-1.444485462e-07 	0.001974838015 	-1.222532708e-07 	3.764590134e-06
0.638419148 	0.001970494218 	0.0005332686319 	-1.378466829e-07 	0.002035623796 	-1.146156464e-07 	3.880464728e-06
0.6551780116 	0.002017526911 	0.0006356972243 	-1.25863683e-07 	0.002092117571 	-1.017332144e-07 	3.988157565e-06
0.6731280194 	0.002059730085 	0.0007278103592 	-1.061157447e-07 	0.002142296569 	-8.404737268e-08 	4.08381268e-06
0.6923538328 	0.002096759791 	0.0008060527426 	-7.82568578e-08 	0.002185183609 	-6.240271678e-08 	4.165567299e-06
0.7129461301 	0.002130024822 	0.0008690846626 	-4.512519059e-08 	0.002221516639 	-3.801748007e-08 	4.234828153e-06
0.7350020349 	0.002162768526 	0.0009188721804 	-1.235992632e-08 	0.002253991444 	-1.26258121e-08 	4.296734157e-06
0.7570579485 	0.002199083543 	0.0009600682041 	1.43829674e-08 	0.002286861241 	1.159041356e-08 	4.359393126e-06
0.7776502527 	0.00224283727 	0.0009989762887 	3.33883807e-08 	0.002324876858 	3.341643491e-08 	4.431861457e-06
0.7968760713 	0.002297177824 	0.00104091085 	4.652200614e-08 	0.00237256674 	5.449395938e-08 	4.522771628e-06
0.814826083 	0.002364859841 	0.001088366947 	5.638864556e-08 	0.002432633509 	7.505606921e-08 	4.637275583e-06
0.831584949 	0.00244826359 	0.001141884213 	6.758025038e-08 	0.002506701363 	9.656970561e-08 	4.778469499e-06
0.8472317127 	0.0025494022 	0.001196055458 	7.141885313e-08 	0.002598563591 	1.26280591e-07 	4.953584437e-06
0.8618401721 	0.002672026298 	0.001252219266 	7.923074317e-08 	0.002712274804 	1.663869695e-07 	5.170349615e-06
0.8754792281 	0.002822077693 	0.001319624823 	1.043719898e-07 	0.002851775782 	2.180445027e-07 	5.436277251e-06
0.8882132094 	0.003006685353 	0.001402741027 	1.379790581e-07 	0.003024315464 	2.885467358e-07 	5.765185838e-06
0.9001021759 	0.0032352835 	0.001506021196 	1.814504161e-07 	0.003239971416 	3.81502962e-07 	6.176286022e-06
0.9112022019 	0.003519406176 	0.001634870918 	2.338830036e-07 	0.003510381387 	4.942566256e-07 	6.691762583e-06
0.9215656407 	0.003869475716 	0.001794382931 	2.899048041e-07 	0.003846926634 	6.158797683e-07 	7.333311363e-06
0.9312413717 	0.004289461006 	0.001986781206 	3.386651563e-07 	0.004255061594 	7.229577429e-07 	8.111330032e-06
0.9402750304 	0.004770392848 	0.002208271284 	3.663932007e-07 	0.004727274522 	7.855972311e-07 	9.011499116e-06
0.9487092242 	0.005286774685 	0.002447183914 	3.627344786e-07 	0.005238607911 	7.811256816e-07 	9.986242674e-06
0.9565837329 	0.005798243369 	0.002684861168 	3.265072158e-07 	0.005749219977 	7.064722239e-07 	1.095961119e-05
0.9639356968 	0.006226192938 	0.002884745202 	2.712048764e-07 	0.006180982467 	5.897577063e-07 	1.17826705e-05
0.9688006083 	0.006520893553 	0.003023179723 	2.174158689e-07 	0.006481968737 	4.746010451e-07 	1.235643398e-05
0.9731064834 	0.006715219194 	0.003114940117 	1.718149838e-07 	0.006682531945 	3.758440294e-07 	1.27387632e-05
0.976917562 	0.006834216897 	0.003171581057 	1.327677158e-07 	0.00680730101 	2.907592735e-07 	1.297660772e-05
0.9802907021 	0.006872822134 	0.003190705291 	1.011403815e-07 	0.006851145762 	2.215319146e-07 	1.3060188e-05
0.9832762282 	0.006818826278 	0.003166676418 	7.659477555e-08 	0.006802193125 	1.676462911e-07 	1.296687067e-05
0.9859186816 	0.006645260748 	0.003087434214 	5.818536777e-08 	0.00663651326 	1.273857264e-07 	1.26510388e-05
0.9882574856 	0.006301855047 	0.002929970187 	4.470502061e-08 	0.00630553641 	9.77519176e-08 	1.202010493e-05
0.990327533 	0.005715338502 	0.002656208784 	3.491832659e-08 	0.005707837759 	7.586150271e-08 	1.088072518e-05
0.9921597073 	0.004767669866 	0.002207742764 	2.499048967e-08 	0.004733862782 	5.890333357e-08 	9.024058172e-06
0.9937813429 	0.003429550941 	0.001519963118 	1.608369067e-08 	0.003405565236 	4.309587334e-08 	6.491953867e-06
0.9948347186 	0.002002967084 	0.0007759968087 	9.561896739e-09 	0.002001648755 	2.705329004e-08 	3.815698856e-06
0.9958880943 	0.0008424480515 	0.0002551391721 	3.58677229e-09 	0.0008441282451 	1.222696168e-08 	1.609143048e-06
0.9969414701 	0.0001934135178 	3.457961417e-05 	5.337877114e-10 	0.0001932876562 	2.928818242e-09 	3.684599942e-07
0.9979948458 	1.67405438e-05 	9.772851946e-07 	1.552562288e-11 	1.670563148e-05 	2.550914667e-10 	3.184557669e-08
0.9990482216 	2.233423391e-07 	1.466106213e-09 	2.312799404e-14 	2.229111655e-07 	3.405062055e-12 	4.249306365e-10
