0 	0.5301241827 	-3.600333531e-14 	-1.308625946e-20
0.001897455474 	0.5301416792 	-0.0001980039246 	3.36460756e-07
0.003794892374 	0.5302044825 	-0.000376435049 	6.28723736e-07
0.005692310628 	0.5303204623 	-0.0005507418958 	9.050826038e-07
0.007589710222 	0.5304851445 	-0.000730674367 	1.181319622e-06
0.009487091198 	0.5307331094 	-0.0009374745308 	1.49087534e-06
0.01240800929 	0.5311415909 	-0.00120262507 	1.863760636e-06
0.01570810102 	0.5317607311 	-0.001518528838 	2.284413241e-06
0.01943658229 	0.5326366629 	-0.00187490457 	2.726253387e-06
0.02367094077 	0.5338547522 	-0.002277165698 	3.183568815e-06
0.02846027043 	0.5355233655 	-0.002729907179 	3.646885747e-06
0.03387129226 	0.5377816669 	-0.003237658469 	4.102672194e-06
0.03998469373 	0.5408168913 	-0.003806199272 	4.534559105e-06
0.04692959072 	0.5448751357 	-0.004440234745 	4.916772156e-06
0.05477825357 	0.5502689203 	-0.005141690524 	5.220843254e-06
0.06366252918 	0.5581770184 	-0.005992003297 	5.482085678e-06
0.07713370694 	0.5703461046 	-0.007046439706 	5.425856963e-06
0.09161486344 	0.5871047222 	-0.008186692641 	5.103435957e-06
0.1071709409 	0.6085446751 	-0.009320862679 	4.4246947e-06
0.1238870721 	0.6355740989 	-0.01041836004 	3.35264812e-06
0.1418521582 	0.668992757 	-0.0112575973 	1.947794886e-06
0.1611593353 	0.7090037521 	-0.01176517968 	4.03848617e-07
0.1663236545 	0.7204896018 	-0.01188127562 	1.180866898e-05
0.1819064892 	0.7551774141 	-0.01224077421 	1.619451646e-06
0.2041968131 	0.8072730687 	-0.01253804224 	3.822673804e-06
0.2281394077 	0.8649750088 	-0.01239442839 	5.988362749e-06
0.2538499191 	0.926920204 	-0.01195021602 	8.18685261e-06
0.2814521981 	0.9900042292 	-0.01124439985 	1.025456424e-05
0.3110878587 	1.049342962 	-0.01034763045 	1.22099722e-05
0.3428858929 	1.100526868 	-0.009626952697 	1.433521983e-05
0.3770024796 	1.142624177 	-0.009018919392 	1.578400244e-05
0.4135933852 	1.176383899 	-0.008284145858 	1.647183363e-05
0.4528269635 	1.200689738 	-0.007476417927 	1.689352047e-05
0.4948837842 	1.213666081 	-0.006612898364 	1.676368873e-05
0.5369652409 	1.216310537 	-0.005762121012 	1.617500158e-05
0.5762689992 	1.212241613 	-0.004958276441 	1.531638927e-05
0.6129728545 	1.203910442 	-0.004204948092 	1.431498935e-05
0.647245611 	1.192096024 	-0.003500937954 	1.324495182e-05
0.6792465651 	1.17698688 	-0.002841861675 	1.216528921e-05
0.7091254687 	1.15865219 	-0.002223279778 	1.100049379e-05
0.7370223283 	1.137174321 	-0.001642444504 	9.982949266e-06
0.7630684005 	1.112662168 	-0.001061073273 	9.103050234e-06
0.7873862966 	1.085228586 	-0.0004944904804 	7.971527878e-06
0.8100905866 	1.054994652 	-1.617927902e-06 	6.962752814e-06
0.8312882979 	1.022193312 	0.0004555417862 	6.14846287e-06
0.8510793781 	0.9871367933 	0.0008917822907 	5.257076517e-06
0.8695571553 	0.9501160437 	0.00127596662 	4.349242648e-06
0.8868087717 	0.9114775928 	0.001581609225 	3.258112767e-06
0.9029155904 	0.8717603823 	0.001753448136 	2.380989701e-06
0.9179535776 	0.831644354 	0.001871085075 	1.708906077e-06
0.931993659 	0.794315326 	0.001916215841 	7.127589878e-07
0.9412842046 	0.763450585 	0.001792720973 	-1.377555696e-08
0.9495071555 	0.736855217 	0.001608307563 	-2.98857334e-07
0.9567851912 	0.711548935 	0.001420370008 	-5.079162826e-07
0.9632268937 	0.6869513705 	0.001219722439 	-6.333744184e-07
0.9689283675 	0.6623145488 	0.001016103003 	-6.844081473e-07
0.973974674 	0.6366488773 	0.0008116535051 	-6.833118262e-07
0.9784410995 	0.6085167328 	0.0005879437544 	-6.488506645e-07
0.9823942794 	0.5757451006 	0.0002161632896 	-5.943951767e-07
0.9858931917 	0.5348450877 	-8.671212831e-05 	-4.708864301e-07
0.9889900372 	0.4833170668 	0.0002095149259 	-2.76440664e-07
0.991001674 	0.4217575079 	0.0008749855505 	-1.577981001e-07
0.9930133109 	0.3409971513 	0.000713473627 	-1.432844924e-07
0.9950249478 	0.2353629379 	-0.0003607961581 	-8.204342006e-08
0.9970365847 	0.1180613506 	-0.0006199846673 	-8.464009028e-09
0.9990482216 	0.03351945387 	-0.0001618917489 	1.075985516e-09
0.9990482216 	0.03351945387 	-0.0001618917489 	1.075985516e-09
