0.4709558481 	3.282150389e-07 	-2.593621182e-09 	2.810325878e-14 	3.27574996e-07 	-2.47917226e-12 	6.244489871e-10
0.4709558481 	3.282150389e-07 	-2.593621182e-09 	2.810325878e-14 	3.27574996e-07 	-2.47917226e-12 	6.244489871e-10
0.4720092239 	2.695371393e-05 	-1.878743533e-06 	2.01217225e-11 	2.689940824e-05 	-2.035796921e-10 	5.12777484e-08
0.4730625996 	0.0003077846825 	-6.322606793e-05 	6.215704579e-10 	0.0003078896998 	-2.280884675e-09 	5.869233414e-07
0.4741159754 	0.001280320632 	-0.0004219361531 	3.398737096e-09 	0.001282764021 	-8.403471908e-09 	2.44530475e-06
0.4751693511 	0.00286350641 	-0.001162961902 	7.455510707e-09 	0.002855662526 	-1.561153538e-08 	5.443686466e-06
0.4762227269 	0.004610093076 	-0.002074358919 	9.864277557e-09 	0.00457163132 	-2.039267795e-08 	8.714799916e-06
0.4778443634 	0.006115840091 	-0.002837715357 	1.052763495e-08 	0.006077592672 	-2.251603805e-08 	1.158558081e-05
0.4796765386 	0.007108079423 	-0.003304505995 	1.028820473e-08 	0.007106140658 	-2.199331912e-08 	1.354627914e-05
0.4817465869 	0.007687255572 	-0.003573947741 	9.281732194e-09 	0.007691870217 	-1.97483986e-08 	1.466284248e-05
0.4840853915 	0.008002768271 	-0.003716363101 	8.362890596e-09 	0.007990353575 	-1.624406583e-08 	1.523183472e-05
0.4867278453 	0.008141189012 	-0.003770264341 	7.102427793e-09 	0.008123284391 	-1.161595711e-08 	1.54852378e-05
0.4897133715 	0.008161345918 	-0.003769362519 	4.969029513e-09 	0.008142193997 	-5.967717158e-09 	1.552128476e-05
0.4930865115 	0.008095076706 	-0.00373652027 	2.350928152e-09 	0.008072357353 	1.00455252e-09 	1.538815671e-05
0.4968975894 	0.007956861777 	-0.003674730039 	-1.092748599e-09 	0.007931160522 	9.912004525e-09 	1.511899631e-05
0.5012034633 	0.007755222346 	-0.003589474907 	-5.155161319e-09 	0.007725593251 	2.12345774e-08 	1.472712795e-05
0.506068373 	0.007465090884 	-0.003461832849 	-1.374902368e-08 	0.007430641704 	3.610655687e-08 	1.416486833e-05
0.5134203412 	0.007040682143 	-0.003265147399 	-2.644033926e-08 	0.007003553731 	5.818678758e-08 	1.335071995e-05
0.5212948542 	0.006499635827 	-0.003012644725 	-4.033788725e-08 	0.006459049446 	8.865746308e-08 	1.231274344e-05
0.529729052 	0.005876520947 	-0.002722183644 	-5.715856232e-08 	0.005833506131 	1.241059614e-07 	1.112028402e-05
0.5387627144 	0.005178068923 	-0.002397219538 	-7.551765741e-08 	0.005135269989 	1.639956807e-07 	9.789251874e-06
0.5484384488 	0.00443491437 	-0.002050819008 	-8.964778128e-08 	0.004387192976 	1.96746632e-07 	8.363209169e-06
0.5588018907 	0.003701458503 	-0.001676911513 	-1.182859082e-07 	0.003651843435 	2.039009566e-07 	6.961428565e-06
0.5699019192 	0.003027231555 	-0.001263878606 	-1.383144727e-07 	0.002992299736 	1.931586211e-07 	5.704154963e-06
0.5817908876 	0.002458394771 	-0.0008724350318 	-1.240778842e-07 	0.002439597226 	1.695114303e-07 	4.650550363e-06
0.5945248701 	0.00204069422 	-0.0005604664296 	-1.014589575e-07 	0.002028797071 	1.249629816e-07 	3.867451092e-06
0.6081639266 	0.00178763591 	-0.0003259713847 	-7.922223635e-08 	0.001782520506 	7.41162551e-08 	3.39797951e-06
0.6227723857 	0.001674227242 	-0.0001445634869 	-6.387508794e-08 	0.001678413893 	3.399260734e-08 	3.199523371e-06
0.638419148 	0.001657060808 	1.267769434e-05 	-5.451721753e-08 	0.001671029248 	7.55208862e-09 	3.185446184e-06
0.6551780116 	0.001697167685 	0.0001591429979 	-4.724073181e-08 	0.001720257376 	-6.965490513e-09 	3.27928868e-06
0.6731280194 	0.00177374485 	0.0003037977359 	-4.101836401e-08 	0.001804753681 	-1.307751452e-08 	3.44036212e-06
0.6923538328 	0.001879083568 	0.0004537175795 	-3.398431212e-08 	0.001916890814 	-1.242119352e-08 	3.654126664e-06
0.7129461301 	0.002012918263 	0.0006141832612 	-2.413193055e-08 	0.002055314836 	-5.006839341e-09 	3.918001322e-06
0.7350020349 	0.002176063469 	0.0007870978182 	-9.825667276e-09 	0.002223129119 	9.109860582e-09 	4.237901987e-06
0.7570579485 	0.002367137639 	0.0009674568178 	9.697014786e-09 	0.002415718184 	2.857759183e-08 	4.605030274e-06
0.7776502527 	0.002584821967 	0.001154328711 	2.714956265e-08 	0.002624278029 	5.328061446e-08 	5.002603304e-06
0.7968760713 	0.002830736217 	0.001316764361 	4.074509791e-08 	0.00286045255 	8.352510279e-08 	5.452817582e-06
0.814826083 	0.003114671021 	0.001453668991 	5.541394316e-08 	0.003138398759 	1.162506166e-07 	5.982660308e-06
0.831584949 	0.003444943531 	0.0016046664 	6.944030378e-08 	0.003457453441 	1.472060219e-07 	6.590867208e-06
0.8472317127 	0.003817326348 	0.001775011718 	8.083728238e-08 	0.003816974081 	1.725455595e-07 	7.276213472e-06
0.8618401721 	0.0042219325 	0.00196098233 	8.799035992e-08 	0.004212175807 	1.886560538e-07 	8.029577802e-06
0.8754792281 	0.004645557738 	0.002156364946 	9.014859256e-08 	0.004628967056 	1.939895957e-07 	8.824097763e-06
0.8882132094 	0.005071655314 	0.00235346934 	8.767180628e-08 	0.00505069136 	1.893237719e-07 	9.6280215e-06
0.9001021759 	0.005484498848 	0.002544961638 	8.158040873e-08 	0.005461538596 	1.767369052e-07 	1.041121052e-05
0.9112022019 	0.005871573743 	0.002724924494 	7.313901021e-08 	0.005848547883 	1.58897782e-07 	1.114895778e-05
0.9215656407 	0.006224347055 	0.002889260442 	6.359458428e-08 	0.006202613211 	1.385294407e-07 	1.182390471e-05
0.9312413717 	0.0065378181 	0.003035623291 	5.395270909e-08 	0.006518882557 	1.180383063e-07 	1.242680198e-05
0.9402750304 	0.006809346039 	0.00316284669 	4.491400941e-08 	0.006795360402 	9.817592333e-08 	1.29538456e-05
0.9487092242 	0.007039905891 	0.003270187757 	3.693768826e-08 	0.007025523957 	8.019339124e-08 	1.33926013e-05
0.9565837329 	0.007226066297 	0.003352179504 	2.620784631e-08 	0.007208241107 	6.612314447e-08 	1.374091098e-05
0.9639356968 	0.007348349325 	0.003382624895 	1.801274531e-08 	0.007336571182 	5.511801051e-08 	1.398554377e-05
0.9688006083 	0.00740986484 	0.003385189672 	1.576129923e-08 	0.007402930302 	4.644847706e-08 	1.411204269e-05
0.9731064834 	0.007431013286 	0.003389939734 	1.384206586e-08 	0.007420752988 	4.021976788e-08 	1.414601769e-05
0.976917562 	0.007409972355 	0.003381812158 	1.246727155e-08 	0.00739886328 	3.529628452e-08 	1.410428982e-05
0.9802907021 	0.007336826181 	0.003357449638 	1.148143992e-08 	0.007328930708 	3.124661703e-08 	1.39709789e-05
0.9832762282 	0.007196738261 	0.003309776098 	1.063538707e-08 	0.007190128123 	2.802030182e-08 	1.37063826e-05
0.9859186816 	0.006959200572 	0.003222463718 	1.066650695e-08 	0.00695461324 	2.520094777e-08 	1.325742577e-05
0.9882574856 	0.006568177379 	0.003054262016 	1.068556338e-08 	0.006574009097 	2.300478007e-08 	1.253188849e-05
0.990327533 	0.005945338608 	0.002763403462 	9.841615409e-09 	0.005939838916 	2.125162758e-08 	1.132298387e-05
0.9921597073 	0.00496492274 	0.002296611375 	8.841706722e-09 	0.004931017918 	1.901282413e-08 	9.399890657e-06
0.9937813429 	0.00358572885 	0.001586832416 	7.1433846e-09 	0.003560549733 	1.554047026e-08 	6.787397395e-06
0.9948347186 	0.002106921457 	0.0008177895494 	4.576433246e-09 	0.002105226829 	1.073064701e-08 	4.013147453e-06
0.9958880943 	0.0008913779831 	0.0002715754884 	1.842265522e-09 	0.00089318207 	5.206817385e-09 	1.702653273e-06
0.9969414701 	0.0002054628872 	3.713841603e-05 	2.931213709e-10 	0.0002053509592 	1.298868274e-09 	3.914560025e-07
0.9979948458 	1.779752629e-05 	1.053359915e-06 	8.808604897e-12 	1.776050452e-05 	1.138597657e-10 	3.385645789e-08
0.9990482216 	2.37450128e-07 	1.580251607e-09 	1.326330778e-14 	2.36991305e-07 	1.519894751e-12 	4.517712957e-10
