1.640171017e-35 	0.00752099293 	-5.188614878e-16 	-3.527015677e-19 	1.53113816e-15 	6.685093579e-17 	2.918774891e-18
0.001912604907 	0.007513488998 	-4.468640434e-05 	1.273064169e-08 	0.008455097849 	-1.924392871e-06 	1.611776647e-05
0.003825194192 	0.007511980988 	-0.0001069365244 	4.424948246e-08 	0.008484812355 	-1.912779686e-06 	1.617441058e-05
0.005737767794 	0.007518814569 	-0.0001595642822 	6.572863578e-08 	0.00849072913 	-1.888353986e-06 	1.61856896e-05
0.007650325701 	0.007522139859 	-0.0002125109572 	8.652699734e-08 	0.008498631123 	-1.864906384e-06 	1.620075299e-05
0.00956286795 	0.007528673438 	-0.0002729389306 	1.095565919e-07 	0.008504885128 	-1.840692073e-06 	1.621267486e-05
0.01250713205 	0.00753950622 	-0.0003504571838 	1.374920177e-07 	0.008514570698 	-1.803428513e-06 	1.623113825e-05
0.01583360909 	0.007555976142 	-0.0004433153471 	1.694849191e-07 	0.008529623204 	-1.763656207e-06 	1.625983251e-05
0.01959191156 	0.007579100693 	-0.0005486331206 	2.036926236e-07 	0.008550649184 	-1.721120074e-06 	1.629991387e-05
0.02385649769 	0.007610908367 	-0.0006681880751 	2.397312407e-07 	0.008579625196 	-1.673874179e-06 	1.635515021e-05
0.02867914987 	0.007653956287 	-0.0008038949183 	2.772322359e-07 	0.008618817365 	-1.623679235e-06 	1.642986137e-05
0.03412783817 	0.007711332311 	-0.0009579828422 	3.156173117e-07 	0.008670978658 	-1.570559574e-06 	1.65292953e-05
0.04028381842 	0.007786955254 	-0.001133232888 	3.540769544e-07 	0.008739381755 	-1.513757495e-06 	1.665969061e-05
0.04727081711 	0.007885497483 	-0.001333093261 	3.911250551e-07 	0.00882786118 	-1.450188437e-06 	1.682835699e-05
0.05516671354 	0.008011656611 	-0.001561203339 	4.252267328e-07 	0.008941265287 	-1.380324941e-06 	1.704453673e-05
0.0641017149 	0.008186941995 	-0.001848126469 	4.607598663e-07 	0.009098701843 	-1.305149488e-06 	1.734465457e-05
0.07764239172 	0.008436040246 	-0.002221215493 	4.772876401e-07 	0.009319095075 	-1.172293971e-06 	1.776478532e-05
0.09218964228 	0.008742276455 	-0.002652623394 	4.752694065e-07 	0.009583966382 	-1.020236979e-06 	1.826970365e-05
0.1078092542 	0.009075319928 	-0.003119196657 	4.430771462e-07 	0.009864679148 	-8.382148768e-07 	1.88048202e-05
0.1245847907 	0.009410234792 	-0.003616356152 	3.710769423e-07 	0.01013582853 	-6.229945489e-07 	1.932170628e-05
0.1426038343 	0.009716751923 	-0.004118183118 	2.510938189e-07 	0.01034083583 	-3.760626665e-07 	1.971250718e-05
0.1619584402 	0.009945273653 	-0.004554357532 	9.394271819e-08 	0.01042041709 	-1.31662137e-07 	1.986421118e-05
0.17459936 	0.009984809002 	-0.004718939488 	4.817799328e-06 	0.01037980957 	-2.137449487e-05 	1.978680197e-05
0.1827456333 	0.01001008775 	-0.00482479892 	5.161857443e-08 	0.01035345544 	-7.654892181e-08 	1.973656366e-05
0.2050679472 	0.009833778045 	-0.004877775355 	1.362228495e-07 	0.0100751701 	-2.0808967e-07 	1.920607447e-05
0.229034003 	0.009367938224 	-0.00472146094 	1.482311225e-07 	0.009486280953 	-1.928649187e-07 	1.808348807e-05
0.2547591248 	0.008560922933 	-0.004355834212 	6.371726505e-08 	0.008555898115 	-1.777966584e-08 	1.63099198e-05
0.2823668212 	0.007395462539 	-0.003766746343 	-1.272070536e-07 	0.007308899458 	2.76469087e-07 	1.393279377e-05
0.3119969157 	0.005970217323 	-0.002984860385 	-3.392192151e-07 	0.00584829455 	5.310871608e-07 	1.114847486e-05
0.3437800877 	0.004533569461 	-0.002139325445 	-4.036588497e-07 	0.00442185951 	4.966833366e-07 	8.429293218e-06
0.3778714604 	0.003358501741 	-0.001407197728 	-2.684261356e-07 	0.003283051059 	2.216459175e-07 	6.258407796e-06
0.4144274988 	0.002544264613 	-0.0008701300645 	-8.494508469e-08 	0.002490780442 	-1.489344733e-08 	4.748119798e-06
0.4536170638 	0.002049632351 	-0.0004855568662 	1.62113858e-08 	0.001995777287 	-1.161740302e-07 	3.804506206e-06
0.4956212291 	0.00184182896 	-0.0001777766846 	4.351881582e-08 	0.001780491033 	-1.16138999e-07 	3.394110771e-06
0.5376461177 	0.001884260725 	0.0001003675203 	5.143778997e-08 	0.001812264211 	-7.005463502e-08 	3.454679279e-06
0.5768947117 	0.002099830914 	0.0003707272744 	6.549957002e-08 	0.00201533962 	-7.455952083e-09 	3.841797451e-06
0.6135457513 	0.002430370225 	0.0006517014181 	9.116727909e-08 	0.002334753067 	6.628342502e-08 	4.450688257e-06
0.6477684763 	0.002845910046 	0.0009558543403 	1.264029155e-07 	0.002742074451 	1.445250694e-07 	5.227156024e-06
0.6797223209 	0.003324981758 	0.001289078305 	1.671939246e-07 	0.00321449607 	2.154569367e-07 	6.127722932e-06
0.7095570023 	0.003854670422 	0.001647339966 	2.121829134e-07 	0.003733996534 	2.741866372e-07 	7.118035204e-06
0.7374124644 	0.004421023204 	0.001995019853 	2.013311698e-07 	0.004291679042 	3.4056992e-07 	8.181133065e-06
0.7634198193 	0.005007534465 	0.002297604271 	1.775387824e-07 	0.00488127116 	4.013956551e-07 	9.30505951e-06
0.7877015329 	0.005597862857 	0.00257324144 	1.857281491e-07 	0.005478559311 	4.152319312e-07 	1.044365673e-05
0.8103720244 	0.00616134519 	0.002836425313 	1.60113889e-07 	0.006047023162 	3.630017499e-07 	1.152730683e-05
0.8315381713 	0.006655180655 	0.003068763013 	9.304024639e-08 	0.006552166041 	2.288671559e-07 	1.249024955e-05
0.851299777 	0.007038901303 	0.003252676397 	-1.365992975e-08 	0.006960452156 	9.530776158e-09 	1.326855637e-05
0.8697500334 	0.007283977566 	0.003373697205 	-1.455952673e-07 	0.007235403094 	-2.795645271e-07 	1.379268927e-05
0.8869759541 	0.007376481169 	0.003421284351 	-3.343107491e-07 	0.007355111315 	-5.689976619e-07 	1.402088641e-05
0.9030587819 	0.007313667214 	0.003346575164 	-5.602808051e-07 	0.007328366502 	-7.868473222e-07 	1.396990337e-05
0.9180743698 	0.007110065597 	0.003159979208 	-6.605120064e-07 	0.007162748156 	-9.444870558e-07 	1.365418877e-05
0.9320935383 	0.006812989054 	0.002933374654 	-6.295747932e-07 	0.006886449053 	-1.029479957e-06 	1.312748588e-05
0.9413702454 	0.006499851162 	0.002723076903 	-5.674223033e-07 	0.006578171039 	-1.027421684e-06 	1.253982231e-05
0.9495809481 	0.006192404326 	0.002546532826 	-4.848320886e-07 	0.006266273929 	-9.776425859e-07 	1.194525973e-05
0.9568481429 	0.005874984484 	0.002386155501 	-3.941283151e-07 	0.005939940757 	-8.989841158e-07 	1.1323178e-05
0.9632802503 	0.005552188502 	0.002244418917 	-3.03393957e-07 	0.005606387159 	-7.962642756e-07 	1.068733214e-05
0.9689732317 	0.005224972412 	0.002121300239 	-2.179740037e-07 	0.00526769111 	-6.768433584e-07 	1.004168333e-05
0.9740120216 	0.004888626312 	0.002014580707 	-1.428084009e-07 	0.004921934842 	-5.470835494e-07 	9.38257579e-06
0.9784717943 	0.004527798421 	0.001913731613 	-8.220804824e-08 	0.004560854095 	-4.140485317e-07 	8.694255529e-06
0.9824190858 	0.004116455492 	0.00179227493 	-3.879208372e-08 	0.004142324779 	-2.856381162e-07 	7.896422328e-06
0.9859127864 	0.003594046547 	0.001609032534 	-1.31632618e-08 	0.003588367734 	-1.718951177e-07 	6.840426237e-06
0.9890050191 	0.002862773123 	0.001278818541 	-1.063668979e-09 	0.002836351416 	-8.890011739e-08 	5.406874121e-06
0.9910136596 	0.001941435998 	0.0008171347844 	3.893816644e-09 	0.001928079853 	-3.904427176e-08 	3.675456081e-06
0.9930223001 	0.0009308608686 	0.0003387140057 	3.81531855e-09 	0.0009313120244 	-1.142693719e-08 	1.775339563e-06
0.9950309406 	0.0002201179777 	5.351808925e-05 	1.287064407e-09 	0.0002207352089 	-1.233926403e-09 	4.207826583e-07
0.9970395811 	1.475862345e-05 	1.138062007e-06 	4.084848882e-11 	1.473522774e-05 	-5.570021194e-11 	2.808943952e-08
0.9990482216 	1.048566333e-07 	6.779875755e-10 	3.01703831e-14 	1.046502833e-07 	-1.929062269e-13 	1.994925261e-10
0.9990482216 	1.048566333e-07 	6.779875755e-10 	3.01703831e-14 	1.046502833e-07 	-1.929062269e-13 	1.994925261e-10
