0.4709558481 	3.654356262e-07 	-4.241905644e-09 	2.939858334e-13 	3.648279641e-07 	-1.71335393e-11 	6.954634983e-10
0.4720092239 	2.967957005e-05 	-3.044985062e-06 	2.069013502e-10 	3.035696201e-05 	-1.442542224e-09 	5.786880688e-08
0.4730625996 	0.0003089260566 	-9.514599483e-05 	5.681070121e-09 	0.000381893466 	-1.875299202e-08 	7.279950879e-07
0.4741159754 	0.001078764769 	-0.0005563121982 	2.591753794e-08 	0.001801284724 	-7.912071056e-08 	3.433749324e-06
0.4751693511 	0.002064255069 	-0.001391835016 	5.040146962e-08 	0.004327936192 	-1.559641739e-07 	8.25024927e-06
0.4762227269 	0.002968784732 	-0.002304738298 	6.221435095e-08 	0.007206766491 	-1.954915892e-07 	1.373809995e-05
0.4778443634 	0.003769149245 	-0.003041590716 	6.303759619e-08 	0.009616333406 	-1.986216367e-07 	1.833140419e-05
0.4796765386 	0.004335102877 	-0.003488816904 	5.698899373e-08 	0.01112261699 	-1.764510008e-07 	2.120279936e-05
0.4817465869 	0.004648115408 	-0.003738564176 	4.418311133e-08 	0.01192994859 	-1.307700274e-07 	2.274179777e-05
0.4840853915 	0.004795754288 	-0.003860854236 	2.44522304e-08 	0.01227930475 	-6.476039033e-08 	2.34077677e-05
0.4867278453 	0.004824664146 	-0.003885691391 	-2.505261936e-09 	0.01233566395 	2.53278815e-08 	2.351520401e-05
0.4897133715 	0.004766844377 	-0.003839875302 	-3.854688689e-08 	0.01217403246 	1.449790941e-07 	2.320708947e-05
0.4930865115 	0.004636700874 	-0.003735732626 	-8.634662055e-08 	0.01182641057 	3.022978054e-07 	2.254442553e-05
0.4968975894 	0.004437293031 	-0.003575858951 	-1.489932113e-07 	0.01129999525 	5.086810471e-07 	2.154093162e-05
0.5012034633 	0.004165004412 	-0.00335761665 	-2.307970675e-07 	0.01058418575 	7.76730942e-07 	2.017639977e-05
0.506068373 	0.003773045001 	-0.003042132772 	-3.510275858e-07 	0.009568143321 	1.14229873e-06 	1.82395405e-05
0.5134203412 	0.003210812483 	-0.002589303279 	-4.891866781e-07 	0.0081191521 	1.57577977e-06 	1.54773605e-05
0.5212948542 	0.002567110326 	-0.002072661521 	-5.567478399e-07 	0.006455259718 	1.808434116e-06 	1.230551917e-05
0.529729052 	0.002098691045 	-0.001562797116 	-5.982124141e-07 	0.004806496074 	1.887131341e-06 	9.162517413e-06
0.5387627144 	0.001857575852 	-0.001092413814 	-5.79969003e-07 	0.003379478904 	1.621679376e-06 	6.442226068e-06
0.5484384488 	0.001732238338 	-0.0007150294674 	-4.546651275e-07 	0.002437791776 	9.700152167e-07 	4.647108675e-06
0.5588018907 	0.001697445038 	-0.0004295836782 	-3.59045703e-07 	0.001957778225 	4.29034545e-07 	3.732069434e-06
0.5699019192 	0.001710461163 	-0.0002000623217 	-3.089307528e-07 	0.001781673604 	9.296809624e-08 	3.396365079e-06
0.5817908876 	0.001734491774 	-1.873445524e-06 	-2.662154855e-07 	0.001765450926 	-8.336775098e-08 	3.365440146e-06
0.5945248701 	0.001747171262 	0.0001726676727 	-2.338850899e-07 	0.001833951902 	-1.787092779e-07 	3.496022045e-06
0.6081639266 	0.001743078409 	0.0003288088119 	-2.096007195e-07 	0.00195228913 	-2.364171018e-07 	3.721605693e-06
0.6227723857 	0.001721336233 	0.0004692721013 	-1.867172167e-07 	0.002104171488 	-2.717081933e-07 	4.011135681e-06
0.638419148 	0.001683163015 	0.0005937738614 	-1.619226063e-07 	0.002278843691 	-2.890722647e-07 	4.344109447e-06
0.6551780116 	0.001631649446 	0.0007009400541 	-1.336342811e-07 	0.00246645997 	-2.872203913e-07 	4.701758221e-06
0.6731280194 	0.001572160223 	0.0007895127597 	-1.018613891e-07 	0.002656219376 	-2.626137458e-07 	5.063492389e-06
0.6923538328 	0.001512113648 	0.0008595764366 	-6.833053206e-08 	0.00283699712 	-2.129104865e-07 	5.408105012e-06
0.7129461301 	0.001459493663 	0.0009136181605 	-3.602011527e-08 	0.003000444689 	-1.407634795e-07 	5.719681508e-06
0.7350020349 	0.001421031067 	0.0009561964861 	-8.071501591e-09 	0.003143385569 	-5.668649995e-08 	5.992166553e-06
0.7570579485 	0.001400102373 	0.0009925671432 	1.410672699e-08 	0.003268941908 	2.395765263e-08 	6.231511832e-06
0.7776502527 	0.001394749573 	0.001027722893 	3.063085812e-08 	0.003388130892 	9.26237112e-08 	6.458719163e-06
0.7968760713 	0.001401546949 	0.001065751048 	4.464148961e-08 	0.003514156373 	1.471939005e-07 	6.698958755e-06
0.814826083 	0.001419074666 	0.001109794069 	5.984392119e-08 	0.00365644613 	1.96264529e-07 	6.97020258e-06
0.831584949 	0.00145512351 	0.001160504279 	7.292166496e-08 	0.003813182338 	2.275898237e-07 	7.268985355e-06
0.8472317127 	0.001518067879 	0.00121856426 	9.079302903e-08 	0.00398395895 	2.704921679e-07 	7.594533042e-06
0.8618401721 	0.001603647251 	0.001288532697 	1.207079681e-07 	0.004185954876 	3.560511663e-07 	7.979593419e-06
0.8754792281 	0.0017096069 	0.001375143886 	1.584143202e-07 	0.004437131022 	4.690871721e-07 	8.458404965e-06
0.8882132094 	0.001840817928 	0.001482005507 	2.047781724e-07 	0.004751050934 	6.141656398e-07 	9.056823567e-06
0.9001021759 	0.002002967593 	0.001613630494 	2.595241043e-07 	0.00514314753 	7.877459646e-07 	9.804268657e-06
0.9112022019 	0.002201180909 	0.001774162464 	3.169850007e-07 	0.005627703845 	9.751427313e-07 	1.072796767e-05
0.9215656407 	0.002437299916 	0.001965034357 	3.671444126e-07 	0.006211792081 	1.144508206e-06 	1.184140218e-05
0.9312413717 	0.002707032966 	0.002182741461 	3.972392679e-07 	0.006886946768 	1.253884987e-06 	1.312843467e-05
0.9402750304 	0.002998292933 	0.00241749996 	3.971922862e-07 	0.007624197867 	1.268942002e-06 	1.453384017e-05
0.9487092242 	0.003292519867 	0.002654443919 	3.650684959e-07 	0.008376045616 	1.180563255e-06 	1.596707095e-05
0.9565837329 	0.003567485615 	0.002875647538 	3.079459172e-07 	0.009085236129 	1.008572352e-06 	1.731898517e-05
0.9639356968 	0.003785541526 	0.003050636483 	2.435353372e-07 	0.009654501404 	8.073050748e-07 	1.840416301e-05
0.9688006083 	0.003928376679 	0.003164900417 	1.897516886e-07 	0.01003255898 	6.340793113e-07 	1.912484582e-05
0.9731064834 	0.004017909839 	0.003236390129 	1.48069045e-07 	0.01027231579 	4.965873418e-07 	1.958188895e-05
0.976917562 	0.004067339042 	0.003275693911 	1.143651545e-07 	0.01040780558 	3.839723257e-07 	1.984017014e-05
0.9802907021 	0.004073806983 	0.003280446716 	8.817054555e-08 	0.0104318677 	2.953064133e-07 	1.988603923e-05
0.9832762282 	0.004029730714 	0.003244432669 	6.830903981e-08 	0.01032576471 	2.2771349e-07 	1.968377744e-05
0.9859186816 	0.003918270144 	0.003153389821 	5.342073005e-08 	0.01005122746 	1.777379089e-07 	1.916043313e-05
0.9882574856 	0.003709252264 	0.002982803745 	4.264058502e-08 	0.009532909249 	1.410369833e-07 	1.817237456e-05
0.990327533 	0.003363175473 	0.002707649436 	3.496345661e-08 	0.00862592541 	1.136163854e-07 	1.644341128e-05
0.9921597073 	0.002816461455 	0.002266341166 	2.804461601e-08 	0.007151710798 	8.75249551e-08 	1.36331485e-05
0.9937813429 	0.002135232187 	0.001605015804 	2.05268995e-08 	0.005013672919 	6.215850596e-08 	9.557454062e-06
0.9948347186 	0.001415904397 	0.0008761864701 	1.255220842e-08 	0.002738561657 	3.892658798e-08 	5.220459663e-06
0.9958880943 	0.0006866276483 	0.0003119210671 	5.02271636e-09 	0.00104468379 	1.665154712e-08 	1.991457658e-06
0.9969414701 	0.0001813779524 	4.64683454e-05 	8.320460936e-10 	0.0002106642581 	3.563108816e-09 	4.01584627e-07
0.9979948458 	1.673002107e-05 	1.370814481e-06 	2.565553328e-11 	1.695891592e-05 	2.863956242e-10 	3.232840723e-08
0.9990482216 	2.247770963e-07 	2.065154021e-09 	3.851622513e-14 	2.243849412e-07 	3.783405248e-12 	4.277400624e-10
0.9990482216 	2.247770963e-07 	2.065154021e-09 	3.851622513e-14 	2.243849412e-07 	3.783405248e-12 	4.277400624e-10
