0.2739420079 	2.51048527e-07 	-4.434102961e-09 	-1.094888508e-12 	2.461175688e-07 	3.872749362e-10 	4.691684909e-10
0.275272557 	2.684566658e-05 	-4.413353555e-06 	5.025098268e-09 	2.433930714e-05 	1.832136486e-08 	4.639748416e-08
0.2766031854 	0.0003035889261 	-0.0001372888944 	1.103238789e-07 	0.000320941715 	1.584132184e-07 	6.1180411e-07
0.2779335901 	0.000983739388 	-0.0006520362478 	-1.734682907e-07 	0.001300422178 	1.77826229e-06 	2.478966105e-06
0.2792634708 	0.001764340599 	-0.001322891078 	-1.695209795e-06 	0.00246730888 	5.081747042e-06 	4.703376479e-06
0.2805925299 	0.002231070638 	-0.001700583386 	-3.679942911e-06 	0.003117940454 	7.502590449e-06 	5.943661093e-06
0.2826362867 	0.002205987995 	-0.001663951982 	-3.458016455e-06 	0.003190979772 	5.795662116e-06 	6.082894333e-06
0.2849408702 	0.001971062555 	-0.001376469202 	-2.680419387e-06 	0.002955606484 	1.568756637e-06 	5.634207427e-06
0.2875370716 	0.001905171689 	-0.001027173662 	-3.077778166e-06 	0.002773482146 	-2.594725141e-06 	5.28702782e-06
0.2904580691 	0.00195317437 	-0.000670224326 	-2.885586103e-06 	0.002759288187 	-5.519298894e-06 	5.259970189e-06
0.2938196317 	0.001970890514 	-0.0003890232654 	-2.059567773e-06 	0.002888478057 	-5.807503432e-06 	5.506241987e-06
0.2976320779 	0.001946040584 	-0.0001922605639 	-1.068404696e-06 	0.003025161753 	-4.525079805e-06 	5.766799101e-06
0.3019179803 	0.001891824653 	-7.054144686e-05 	-2.141011758e-07 	0.003094546776 	-3.011916771e-06 	5.899066239e-06
0.3067337774 	0.001823640424 	-1.268327254e-05 	2.240714514e-07 	0.003087910516 	-1.899888633e-06 	5.886415683e-06
0.3122569715 	0.00175230691 	8.080292654e-06 	3.163769804e-07 	0.003042939898 	-1.173036418e-06 	5.800689187e-06
0.3185112727 	0.001684892382 	1.217348962e-05 	2.649920865e-07 	0.002976275066 	-6.875698036e-07 	5.673607489e-06
0.3279565291 	0.001623088234 	1.161955539e-05 	1.240069061e-07 	0.002901962413 	-2.617536731e-07 	5.531946919e-06
0.3358853299 	0.001583205191 	1.129831673e-05 	-4.307535559e-08 	0.002854959675 	-1.362070049e-06 	5.442346636e-06
0.3381259885 	0.001571433529 	1.101034401e-05 	2.749882233e-08 	0.002841168705 	-6.250013399e-08 	5.416057213e-06
0.3489508731 	0.001530562788 	9.367023347e-06 	1.628613719e-07 	0.002800045278 	-3.132701554e-07 	5.337664533e-06
0.3605981766 	0.001498920762 	7.091382168e-06 	3.181788443e-07 	0.002775886389 	-5.1542404e-07 	5.291610974e-06
0.3731708885 	0.001474273856 	4.83506705e-06 	4.951127063e-07 	0.00276591238 	-6.752621381e-07 	5.272597741e-06
0.3867969958 	0.001454857553 	2.69186595e-06 	6.959633005e-07 	0.00276866157 	-7.990823841e-07 	5.277838463e-06
0.4014972221 	0.001439369323 	8.065870293e-07 	9.215635378e-07 	0.002783075519 	-8.907694233e-07 	5.305315455e-06
0.4173643717 	0.0014265295 	-7.141895388e-07 	1.173015419e-06 	0.002808139379 	-9.52558681e-07 	5.353094139e-06
0.4344885207 	0.001415198977 	-1.73164814e-06 	1.449791843e-06 	0.002843238672 	-9.922188576e-07 	5.420003147e-06
0.4530046648 	0.001404102731 	-1.997520588e-06 	1.380592116e-06 	0.00288753495 	-8.020324512e-07 	5.504444163e-06
0.4729699124 	0.001392173433 	-1.253160943e-06 	1.259909666e-06 	0.002940103261 	-6.337647568e-07 	5.604653974e-06
0.4944634565 	0.001378539328 	7.042556067e-07 	1.126646613e-06 	0.002999626623 	-5.087455922e-07 	5.718122046e-06
0.5176484568 	0.001362501437 	4.104207691e-06 	9.849933298e-07 	0.003064441695 	-4.188834346e-07 	5.841677588e-06
0.542569778 	0.001343184287 	9.533864986e-06 	8.42876925e-07 	0.003132745453 	-3.577216347e-07 	5.971883534e-06
0.5693462178 	0.001319168554 	1.818870871e-05 	7.076344677e-07 	0.003202930153 	-3.184086862e-07 	6.10567508e-06
0.5980874262 	0.001288633655 	3.199403882e-05 	5.863493495e-07 	0.003272901801 	-2.982435242e-07 	6.239060488e-06
0.6289040372 	0.001250888231 	5.290812411e-05 	4.854958111e-07 	0.003338026702 	-2.934694554e-07 	6.36320665e-06
0.6597287896 	0.001208694479 	8.089883789e-05 	4.095842923e-07 	0.003391482388 	-3.035300309e-07 	6.465108045e-06
0.6885070106 	0.001166192963 	0.000114708008 	3.529785503e-07 	0.003430108992 	-3.247993563e-07 	6.538741089e-06
0.7153735372 	0.001126441113 	0.0001549782659 	2.751921241e-07 	0.003454641554 	-2.996680864e-07 	6.58550697e-06
0.7404577418 	0.001093866129 	0.0002033855955 	1.659240777e-07 	0.003465078676 	-1.924226683e-07 	6.605403026e-06
0.763881608 	0.001074835853 	0.0002604035387 	6.627730791e-08 	0.003460584477 	-5.238797793e-08 	6.596835834e-06
0.7857594625 	0.001068396162 	0.0003223916568 	1.530024613e-09 	0.003450508984 	6.286334331e-08 	6.577629142e-06
0.8061955834 	0.001066962828 	0.0003849805696 	-2.901710491e-08 	0.003453404238 	1.531768934e-07 	6.583148301e-06
0.8252873287 	0.001065920767 	0.0004480878982 	-4.168952265e-08 	0.003485549163 	2.702746434e-07 	6.644425464e-06
0.8431242394 	0.001069166867 	0.0005160511446 	-2.733289989e-08 	0.003553443023 	3.747613054e-07 	6.773850031e-06
0.8597896056 	0.001085876046 	0.0005932325651 	9.623421501e-09 	0.003656166799 	3.869589038e-07 	6.969670097e-06
0.8753606451 	0.001127871642 	0.0006814144774 	4.656806038e-08 	0.003787559151 	3.027861103e-07 	7.22014044e-06
0.8899091601 	0.001198646117 	0.0007801588461 	6.894405204e-08 	0.003948328768 	3.196130468e-07 	7.526612013e-06
0.9035021065 	0.001291290194 	0.0008882725351 	8.238579458e-08 	0.004146619836 	4.579144768e-07 	7.9046099e-06
0.9162019423 	0.001400441726 	0.001004064599 	8.570381866e-08 	0.004380315856 	5.486854405e-07 	8.350099467e-06
0.9280669907 	0.001520165277 	0.001123249307 	6.845768386e-08 	0.004635537869 	5.606170886e-07 	8.836623559e-06
0.939151752 	0.00164079395 	0.001238742362 	3.232444674e-08 	0.004888770773 	4.752276954e-07 	9.319355857e-06
0.9495071738 	0.001742965117 	0.001335202317 	-5.897033025e-09 	0.005094544509 	3.185355679e-07 	9.71161779e-06
0.9563628554 	0.001815219207 	0.001404656224 	-3.087395898e-08 	0.005225098045 	1.55958826e-07 	9.960489115e-06
0.962432965 	0.00187512131 	0.001455229047 	-5.537232822e-08 	0.005289094475 	-5.492517263e-08 	1.00824841e-05
0.9678072944 	0.001932967578 	0.001492153142 	-6.289696189e-08 	0.005299477937 	-1.956889332e-07 	1.010227786e-05
0.9725654226 	0.001971605552 	0.001517705689 	-3.154185465e-08 	0.005279892603 	-1.508545531e-07 	1.006494277e-05
0.9767778614 	0.001977144887 	0.001534180661 	2.248398383e-08 	0.005242664124 	-1.022573558e-08 	9.993974944e-06
0.9805070848 	0.00194606267 	0.001536550567 	7.61585434e-08 	0.005174674867 	1.462034791e-07 	9.864368523e-06
0.9838084378 	0.001886922373 	0.001506837918 	1.220512045e-07 	0.005017809423 	2.650411564e-07 	9.565339389e-06
0.9867309446 	0.001780492475 	0.001426642319 	1.497986307e-07 	0.004684752062 	3.444694468e-07 	8.930439489e-06
0.9893180269 	0.001563363214 	0.001258432153 	1.194730132e-07 	0.00405928456 	2.867607391e-07 	7.738124591e-06
0.9916081409 	0.001220328642 	0.0009556893722 	4.326401412e-08 	0.003033316766 	1.049237899e-07 	5.782344824e-06
0.9930959046 	0.0008261598709 	0.0005691929382 	-1.823329665e-08 	0.001787935844 	-6.479336803e-08 	3.40830265e-06
0.9945837944 	0.0004175107493 	0.0002196227602 	-2.388242333e-08 	0.0007110018874 	-7.636743936e-08 	1.35536721e-06
0.9960718106 	0.0001114272358 	3.484435793e-05 	-4.336317967e-09 	0.0001385780617 	-1.122519042e-08 	2.641683014e-07
0.9975599529 	9.170598897e-06 	9.266475347e-07 	1.110147867e-10 	9.37681189e-06 	1.220637826e-09 	1.787480961e-08
0.9990482216 	8.625896509e-08 	8.908068407e-10 	6.919516042e-13 	8.611292854e-08 	5.010033136e-11 	1.641551756e-10
0.9990482216 	8.625896509e-08 	8.908068407e-10 	6.919516042e-13 	8.611292854e-08 	5.010033136e-11 	1.641551756e-10
