0.4534793519 	2.982568404e-07 	-3.094942172e-09 	3.27991307e-13 	2.984882986e-07 	-1.195225593e-11 	5.690016576e-10
0.4534793519 	2.982568404e-07 	-3.094942172e-09 	3.27991307e-13 	2.984882986e-07 	-1.195225593e-11 	5.690016576e-10
0.4545349715 	2.419397315e-05 	-2.246298621e-06 	1.319142945e-10 	2.518895788e-05 	-2.977733577e-10 	4.801715462e-08
0.4555906243 	0.0002501962758 	-7.084764594e-05 	2.929354608e-09 	0.0003206659456 	1.37556749e-09 	6.112784168e-07
0.4566462771 	0.0008794655292 	-0.0004234670199 	1.686539967e-08 	0.001558193852 	2.151365133e-08 	2.970350559e-06
0.4577018969 	0.001696525403 	-0.001082657965 	4.36377295e-08 	0.003877547194 	6.825698536e-08 	7.39168266e-06
0.4587574508 	0.002450182783 	-0.001833136709 	7.2725368e-08 	0.006679889628 	1.263715331e-07 	1.273372621e-05
0.4603822371 	0.003144072036 	-0.002468094135 	8.442208195e-08 	0.0091176831 	1.644777577e-07 	1.738083812e-05
0.4622175431 	0.003667468217 	-0.002874492817 	7.802011841e-08 	0.0106935777 	1.71456319e-07 	2.038493122e-05
0.4642903799 	0.003970980252 	-0.003121202433 	6.26296852e-08 	0.01158890583 	1.515196938e-07 	2.209167548e-05
0.4666426815 	0.004155577631 	-0.003267885547 	4.305129217e-08 	0.01201470707 	1.121296731e-07 	2.2903371e-05
0.4693021407 	0.004276158294 	-0.003335177084 	2.295825453e-08 	0.01213897376 	6.149845911e-08 	2.314025783e-05
0.4723056461 	0.004340723331 	-0.003355455446 	4.050795439e-09 	0.01208647666 	1.052090463e-08 	2.304018377e-05
0.4730447499 	0.004344057227 	-0.003353560405 	3.160557011e-07 	0.01205106479 	-2.361378621e-06 	2.297267891e-05
0.4756893738 	0.00435591542 	-0.003346652573 	1.261478272e-08 	0.01192405082 	2.354823652e-08 	2.273055497e-05
0.4795279125 	0.004331066792 	-0.003312831429 	2.767273228e-08 	0.01168416159 	4.257007396e-08 	2.227325944e-05
0.4838641516 	0.004271785552 	-0.003258675264 	4.014596743e-08 	0.01138131154 	4.643439904e-08 	2.169594306e-05
0.4887697617 	0.004147023228 	-0.003187655492 	4.778620343e-08 	0.01101246451 	3.318505942e-08 	2.099281811e-05
0.4962020164 	0.003968941236 	-0.00307915445 	5.056146975e-08 	0.01049541254 	7.389715464e-11 	2.000717335e-05
0.5041837956 	0.003763296228 	-0.002929107064 	3.875257445e-08 	0.009835180743 	-5.173221191e-08 	1.874858804e-05
0.5127499606 	0.00351913234 	-0.002756141755 	1.370890939e-08 	0.009102153243 	-1.081959838e-07 	1.735123389e-05
0.5219457739 	0.003251306615 	-0.002557662052 	-2.375390443e-08 	0.00828263894 	-1.537246734e-07 	1.578901186e-05
0.5318185128 	0.002972412283 	-0.002328848774 	-7.185135451e-08 	0.007370673779 	-1.702085414e-07 	1.40505528e-05
0.5424177356 	0.002699533678 	-0.002069889954 	-1.279597206e-07 	0.006365329905 	-1.469931006e-07 	1.213408795e-05
0.5537955805 	0.002458529147 	-0.001777176331 	-1.836973603e-07 	0.005283834303 	-9.933388461e-08 	1.007245675e-05
0.5660070967 	0.002268288528 	-0.001450374322 	-2.188366904e-07 	0.004183875282 	-7.963083858e-08 	7.975629136e-06
0.5791106073 	0.002122104577 	-0.001101385211 	-2.141957283e-07 	0.003164085418 	-1.333654695e-07 	6.031626219e-06
0.5931681036 	0.002013560977 	-0.0007483354371 	-1.675383231e-07 	0.002321685382 	-2.623146493e-07 	4.425777617e-06
0.6082461593 	0.001950802497 	-0.0004092710015 	-9.250169195e-08 	0.001721369789 	-4.33864857e-07 	3.281409248e-06
0.6244207255 	0.001941741415 	-8.845351631e-05 	-1.270893837e-08 	0.001376892112 	-6.084266642e-07 	2.624739053e-06
0.641762148 	0.001963657929 	0.0002220789403 	8.860336576e-08 	0.001277277754 	-6.841841807e-07 	2.434846399e-06
0.6603550546 	0.001994934832 	0.0004990663856 	8.035598935e-08 	0.001381601224 	-6.642945397e-07 	2.633715929e-06
0.6802847741 	0.002050925773 	0.0007503934755 	9.442519931e-09 	0.001610869298 	-7.392858134e-07 	3.070764601e-06
0.7016438663 	0.002108625387 	0.001017654082 	9.181597939e-08 	0.001955966765 	-8.518706144e-07 	3.728616288e-06
0.7245320632 	0.002173737582 	0.001245190171 	1.913724901e-07 	0.002411988426 	-8.811737664e-07 	4.597920318e-06
0.747428821 	0.002283468055 	0.001421246783 	2.443284356e-07 	0.002939007213 	-7.991258645e-07 	5.602564603e-06
0.7688123516 	0.002420454091 	0.001614387348 	3.15012526e-07 	0.003534343726 	-6.367375031e-07 	6.737441462e-06
0.7887815006 	0.002566514916 	0.001834695619 	3.595606376e-07 	0.004200907918 	-5.125532044e-07 	8.008098074e-06
0.8074292531 	0.002744096381 	0.00205516712 	3.728868038e-07 	0.004903089307 	-3.976317389e-07 	9.346650962e-06
0.824842804 	0.002961593536 	0.002268491476 	3.733322022e-07 	0.005614142183 	-2.720199947e-07 	1.070211537e-05
0.8411037828 	0.003195334213 	0.002483983759 	3.546640097e-07 	0.006327634292 	-1.899276159e-07 	1.206222963e-05
0.8562883075 	0.003429638967 	0.002692725427 	3.247289949e-07 	0.007018114518 	-1.439065724e-07 	1.337847686e-05
0.8704676062 	0.003650848692 	0.002886805464 	2.915696435e-07 	0.007669164632 	-1.191134331e-07 	1.461955932e-05
0.8837081452 	0.003852174961 	0.003062284025 	2.576388349e-07 	0.008271075491 	-1.033954955e-07 	1.576696871e-05
0.8960719989 	0.004030348356 	0.003217252658 	2.244198978e-07 	0.008819766196 	-9.028719153e-08 	1.68129257e-05
0.9076171404 	0.004184356051 	0.003351193564 	1.929582678e-07 	0.009314832455 	-7.68102446e-08 	1.775665958e-05
0.9183977073 	0.004315164714 	0.003465084597 	1.639009288e-07 	0.009757596461 	-6.227004058e-08 	1.860069084e-05
0.9284642592 	0.004424624601 	0.003560637597 	1.372550951e-07 	0.01015121623 	-4.627060535e-08 	1.935103952e-05
0.9378640164 	0.004520226077 	0.003635560402 	1.12369625e-07 	0.01049408224 	-3.037436354e-08 	2.000463743e-05
0.9466410813 	0.004606170613 	0.00369302771 	9.107816354e-08 	0.01078267274 	-1.173963283e-08 	2.055477113e-05
0.954836645 	0.004666329212 	0.00373747436 	7.369302251e-08 	0.01102958331 	7.685127317e-09 	2.10254513e-05
0.9624891797 	0.00471761723 	0.003752382489 	5.8701813e-08 	0.0111819874 	2.202449742e-08 	2.131597586e-05
0.967553421 	0.004742781551 	0.00374630432 	4.868421033e-08 	0.01125259477 	3.077931793e-08 	2.145057313e-05
0.9720360117 	0.004719300554 	0.003733798743 	4.014566709e-08 	0.01129422265 	3.406485679e-08 	2.152992743e-05
0.9760037277 	0.004667211571 	0.003701692679 	3.219701667e-08 	0.0112783037 	3.27608578e-08 	2.14995815e-05
0.9795156849 	0.004578317722 	0.003644023452 	2.476321759e-08 	0.01118686302 	2.735038702e-08 	2.132527015e-05
0.9826242168 	0.004440145662 	0.003554163784 	1.775496795e-08 	0.0109902775 	1.924457014e-08 	2.09505235e-05
0.9853756515 	0.004240338928 	0.003412670442 	1.112774405e-08 	0.01063456295 	9.651637009e-09 	2.02724327e-05
0.9878109997 	0.003960770037 	0.003191599362 	5.783842064e-09 	0.01002382245 	1.110988212e-09 	1.910819157e-05
0.9899665651 	0.003557838509 	0.002869227414 	1.989155389e-09 	0.009018678353 	-4.574077967e-09 	1.719210755e-05
0.9918744833 	0.002975123116 	0.002381933289 	-7.939370815e-10 	0.007433938978 	-8.968979649e-09 	1.417115385e-05
0.9935632004 	0.002259264116 	0.001678011449 	-1.925851385e-09 	0.005196009467 	-9.080595386e-09 	9.9050382e-06
0.9946601717 	0.001492111216 	0.0009132303714 	-1.73338956e-09 	0.00284384152 	-5.831239571e-09 	5.421152342e-06
0.9957571594 	0.0007198498994 	0.0003221772138 	-9.714878037e-10 	0.001082592591 	-2.716918612e-09 	2.063722369e-06
0.9968541637 	0.0001878804085 	4.666671909e-05 	-2.414974112e-10 	0.0002162255623 	-6.692867347e-10 	4.121860185e-07
0.9979511844 	1.693669088e-05 	1.296698929e-06 	-1.089100768e-11 	1.71307381e-05 	-6.355921965e-11 	3.265594805e-08
0.9990482216 	2.154869597e-07 	1.751431637e-09 	-2.201567748e-14 	2.150987374e-07 	-1.175778304e-12 	4.100379771e-10
