4.166797561e-36 	0.008508014566 	-5.871035287e-16 	-4.054926673e-19 	-2.942515299e-15 	-1.284729925e-16 	-5.60925199e-18
0.001882306041 	0.008456708043 	0.0001159518391 	-2.683996329e-06 	0.01616326228 	-2.279353244e-05 	3.081167025e-05
0.003764590556 	0.008447188688 	-0.0002200101296 	-1.114520007e-06 	0.01642272265 	-2.376116722e-05 	3.130627383e-05
0.005646853463 	0.008495152428 	-0.0004218881981 	-3.07803305e-08 	0.01644401261 	-2.318168993e-05 	3.134685842e-05
0.007529094743 	0.008516103839 	-0.0005932532422 	6.582113895e-07 	0.01646641992 	-2.252272996e-05 	3.138957297e-05
0.009411314447 	0.008552830914 	-0.000776712355 	1.265363251e-06 	0.01646139563 	-2.175704819e-05 	3.137999528e-05
0.01230888652 	0.008604984322 	-0.001009578795 	1.997589578e-06 	0.01645379048 	-2.073693449e-05 	3.136549774e-05
0.01558259296 	0.008672267188 	-0.001291701603 	2.89124759e-06 	0.01645253739 	-1.968873686e-05 	3.136310901e-05
0.01928125303 	0.008755219018 	-0.0016154087 	3.935271622e-06 	0.01645524435 	-1.862482567e-05 	3.136826924e-05
0.02348538385 	0.008858324775 	-0.001986408071 	5.155506558e-06 	0.01646420391 	-1.755536807e-05 	3.138534864e-05
0.02824139099 	0.008987243044 	-0.002412506199 	6.575660986e-06 	0.01648026759 	-1.64849352e-05 	3.141597047e-05
0.03361474634 	0.009149162652 	-0.00289988894 	8.083711008e-06 	0.01650121067 	-1.534155182e-05 	3.145589382e-05
0.03968556905 	0.009351800297 	-0.003439038227 	9.192108726e-06 	0.01652201022 	-1.40098828e-05 	3.149554354e-05
0.04658836433 	0.009594809792 	-0.003997375283 	9.101237276e-06 	0.01654539978 	-1.253377069e-05 	3.154013054e-05
0.0543897936 	0.009870645176 	-0.004529412718 	7.366322065e-06 	0.01657787185 	-1.100382182e-05 	3.160203133e-05
0.06322334345 	0.01019453442 	-0.005067693778 	4.546297761e-06 	0.01660103355 	-9.291171077e-06 	3.164618397e-05
0.07662502217 	0.01057750518 	-0.005629374 	1.791283387e-06 	0.01656435194 	-6.84110577e-06 	3.157625862e-05
0.0910400846 	0.01096020123 	-0.006096127427 	1.677282999e-07 	0.01642489796 	-4.334382545e-06 	3.131042057e-05
0.1065326275 	0.01128674229 	-0.00640445 	-3.444908329e-07 	0.0161394771 	-2.148775996e-06 	3.076632909e-05
0.1231893535 	0.01152130698 	-0.006575768615 	-2.832076525e-07 	0.01566851263 	-7.046926505e-07 	2.986853991e-05
0.1411004821 	0.01159479579 	-0.006612805942 	-1.167754824e-07 	0.015011989 	-1.24327289e-07 	2.861702341e-05
0.1601313758 	0.01142750831 	-0.006493107768 	4.659325561e-07 	0.01417224349 	-1.324817029e-06 	2.701623506e-05
0.1603602305 	0.01142576428 	-0.006491738224 	1.640530633e-09 	0.01416217719 	-2.874700931e-09 	2.699704589e-05
0.181067345 	0.0109779734 	-0.006184210862 	2.390740482e-07 	0.01308306675 	-4.760481124e-07 	2.493996147e-05
0.2033256789 	0.0102064367 	-0.005666632504 	6.561222739e-07 	0.01174876882 	-1.292994288e-06 	2.239641876e-05
0.2272448124 	0.009136004535 	-0.004966145097 	1.151857857e-06 	0.01020246006 	-2.161456227e-06 	1.94487245e-05
0.2529407134 	0.007873178771 	-0.004158949041 	1.605021549e-06 	0.008555262704 	-2.740128184e-06 	1.630870853e-05
0.280537575 	0.006583298439 	-0.00334415402 	1.888122754e-06 	0.006966166552 	-2.777043246e-06 	1.327944959e-05
0.3101788018 	0.005446214359 	-0.002624424509 	1.959477766e-06 	0.005612027987 	-2.260517578e-06 	1.069808513e-05
0.341991698 	0.004551545781 	-0.002065949077 	1.915935288e-06 	0.0045703143 	-1.637734229e-06 	8.712289309e-06
0.3761334987 	0.003819862951 	-0.001643961715 	1.851327779e-06 	0.003736433083 	-1.245831277e-06 	7.122679943e-06
0.4127592716 	0.003135391799 	-0.001271327129 	1.722379898e-06 	0.002974065508 	-8.142007116e-07 	5.669395457e-06
0.4520368631 	0.002542695272 	-0.0009141893057 	1.528039778e-06 	0.002309186965 	-1.63152651e-07 	4.401952161e-06
0.4941463394 	0.002195297303 	-0.0006011994895 	1.423291332e-06 	0.001869927756 	5.743033147e-07 	3.564602022e-06
0.5362843642 	0.002139530909 	-0.0003282307989 	1.446667916e-06 	0.001698086561 	1.237943278e-06 	3.237024944e-06
0.5756432866 	0.002282398943 	-6.299777172e-05 	1.435759932e-06 	0.001730262152 	1.729144698e-06 	3.298360563e-06
0.6123999578 	0.00253632575 	0.0002108873635 	1.340193312e-06 	0.001904987707 	2.027400043e-06 	3.631436034e-06
0.6467227457 	0.002867023738 	0.0005005007198 	1.235544575e-06 	0.002189154085 	2.191527736e-06 	4.17313613e-06
0.6787708094 	0.003263577354 	0.0008095478647 	1.156840068e-06 	0.002559951637 	2.282316174e-06 	4.879979322e-06
0.708693935 	0.003716235417 	0.00113825728 	1.097156089e-06 	0.00299741977 	2.322342666e-06 	5.713915172e-06
0.7366321921 	0.004210707603 	0.001480534901 	1.035278096e-06 	0.003485166992 	2.317511266e-06 	6.643696939e-06
0.7627169818 	0.004728073597 	0.001822240229 	9.716859068e-07 	0.00400667135 	2.282727031e-06 	7.637829191e-06
0.7870710604 	0.005247554777 	0.002149605582 	9.340129808e-07 	0.004539599243 	2.218860098e-06 	8.653737873e-06
0.8098091487 	0.005752942564 	0.00245487368 	9.360396904e-07 	0.005063069271 	2.13295628e-06 	9.651617238e-06
0.8310384246 	0.006233457302 	0.002724962697 	7.692732181e-07 	0.005568485845 	2.129709929e-06 	1.06150817e-05
0.8508589793 	0.006685730967 	0.002955299491 	6.137183661e-07 	0.006055175895 	2.190251806e-06 	1.15428482e-05
0.8693642773 	0.007114107228 	0.003163489505 	6.57025401e-07 	0.006520501914 	2.222995312e-06 	1.242988893e-05
0.8866415892 	0.007517543071 	0.003360248968 	6.74876958e-07 	0.006961397009 	2.212492988e-06 	1.327035752e-05
0.902772399 	0.007879040638 	0.003539262733 	6.08337798e-07 	0.007366920384 	2.042210892e-06 	1.404339778e-05
0.9178327855 	0.008158718659 	0.003683738287 	3.938526061e-07 	0.007704984267 	1.563804322e-06 	1.46878415e-05
0.9318937798 	0.008290051101 	0.003761545601 	2.766128339e-08 	0.007903610091 	7.400301399e-07 	1.506647753e-05
0.9411981638 	0.008265042749 	0.003763151071 	-4.803518543e-07 	0.007939500892 	-1.839727117e-07 	1.513489537e-05
0.949433363 	0.008116985045 	0.003674668248 	-1.190453054e-06 	0.007856163945 	-1.003475715e-06 	1.497603199e-05
0.9567222395 	0.007857326844 	0.003498020045 	-1.756883715e-06 	0.007667348028 	-1.793170649e-06 	1.461609637e-05
0.963173537 	0.007504485672 	0.003272679393 	-1.970870139e-06 	0.007374148686 	-2.521652457e-06 	1.405717693e-05
0.9688835034 	0.007072215147 	0.003020835003 	-2.006355269e-06 	0.006988240024 	-3.043635935e-06 	1.332152777e-05
0.9739373264 	0.006568699455 	0.00276004426 	-1.881983447e-06 	0.00652175102 	-3.324733604e-06 	1.243227007e-05
0.9784104047 	0.00599113466 	0.002497783829 	-1.648341776e-06 	0.005979698814 	-3.378324266e-06 	1.139896791e-05
0.982369473 	0.005326205457 	0.002223793097 	-1.361962848e-06 	0.005333498618 	-3.207389147e-06 	1.016713074e-05
0.985873597 	0.004530894955 	0.001912685803 	-1.079687753e-06 	0.004518188439 	-2.819977851e-06 	8.61292293e-06
0.9889750553 	0.003538898421 	0.001485450834 	-8.305510904e-07 	0.003504931618 	-2.259872212e-06 	6.681373809e-06
0.9909896885 	0.00238417285 	0.0009475539663 	-5.941064634e-07 	0.002365244715 	-1.624138401e-06 	4.508813812e-06
0.9930043218 	0.001145090511 	0.0003946802603 	-2.887587054e-07 	0.001144892159 	-8.637444526e-07 	2.182482662e-06
0.9950189551 	0.0002721485134 	6.186160393e-05 	-5.286350159e-08 	0.0002730331418 	-2.284721122e-07 	5.204770539e-07
0.9970335883 	1.827048883e-05 	1.255247531e-06 	-1.000883241e-09 	1.82438084e-05 	-1.542778693e-08 	3.477776941e-08
0.9990482216 	1.295042449e-07 	6.980695423e-10 	-4.012426263e-13 	1.2924873e-07 	-1.084662735e-10 	2.463840023e-10
0.9990482216 	1.295042449e-07 	6.980695423e-10 	-4.012426263e-13 	1.2924873e-07 	-1.084662735e-10 	2.463840023e-10
