0.2974846888 	0.09628577439 	0.02104168207 	-9.238324159e-06
0.2979023553 	0.3442380474 	0.07474370106 	-3.684777366e-05
0.2983200539 	0.680290379 	0.1473162799 	-7.727270384e-05
0.2987377753 	0.9942893384 	0.2151827514 	-0.0001189343288
0.2991555103 	1.265837345 	0.2737889277 	-0.0001585899212
0.2995732498 	1.487551146 	0.321526219 	-0.0001950786735
0.2999909846 	1.667273404 	0.360118693 	-0.0002286991593
0.3004087056 	1.814436529 	0.391627094 	-0.0002598014682
0.3008264038 	1.937014913 	0.4177864034 	-0.0002890301241
0.30124407 	2.042101577 	0.440134679 	-0.0003171859833
0.3016616952 	2.134197373 	0.4596481764 	-0.0003445720436
0.3020792703 	2.215789357 	0.4768675011 	-0.0003711334098
0.3024967866 	2.288582341 	0.4921621771 	-0.0003967689241
0.3029142348 	2.353812554 	0.5057988213 	-0.000421326784
0.3033316062 	2.412367711 	0.517967333 	-0.0004445698611
0.3037488918 	2.471688198 	0.5302102728 	-0.0004667168565
0.3043959486 	2.535724806 	0.5432560621 	-0.0004955258368
0.3050677116 	2.595173912 	0.5551296884 	-0.0005204713897
0.3057650741 	2.644084815 	0.56459423 	-0.0005419895137
0.3064889544 	2.68362072 	0.5719024144 	-0.000561931865
0.3072402957 	2.715356021 	0.5773890288 	-0.0005809523934
0.308020066 	2.740427366 	0.5813022807 	-0.0005989648086
0.3088292569 	2.759742913 	0.5838429759 	-0.0006164707748
0.3096688834 	2.774288259 	0.5852284016 	-0.0006344205961
0.3105399823 	2.785075184 	0.5856903266 	-0.0006537990402
0.3114436111 	2.793074564 	0.5854522487 	-0.0006751803697
0.3123808464 	2.799115037 	0.584699491 	-0.0006984699755
0.3133527817 	2.803816947 	0.5835613352 	-0.0007232355053
0.3143760646 	2.807592731 	0.5821118516 	-0.0007084546115
0.3154548488 	2.8106744 	0.5804014965 	-0.0006684875191
0.3165738953 	2.813197612 	0.5784782827 	-0.0006281915191
0.317734663 	2.81527035 	0.5763742878 	-0.0005874425962
0.3189386611 	2.816975988 	0.5741072312 	-0.0005461640398
0.3201874506 	2.818373738 	0.571689179 	-0.0005043163005
0.3214826465 	2.819506975 	0.5691281406 	-0.0004618713467
0.322825919 	2.820408344 	0.5664294632 	-0.0004188506224
0.3242189957 	2.821102116 	0.5635965656 	-0.0003753602331
0.3256636633 	2.821602785 	0.5606359533 	-0.0003313770067
0.3271617697 	2.821910399 	0.5575499338 	-0.0002867126995
0.3287152261 	2.822009579 	0.5543181843 	-0.0002415074399
0.3303353281 	2.821879696 	0.5509030046 	-0.0001957977642
0.3320559585 	2.821511098 	0.5472898418 	-0.0001487983416
0.333839651 	2.820908988 	0.5435105416 	-0.0001017140548
0.3356886291 	2.820093901 	0.5395862479 	-5.46546538e-05
0.3376051918 	2.819086224 	0.5355222227 	-7.689032277e-06
0.3379271492 	2.818866341 	0.5347599315 	-4.788368188e-05
0.3395829376 	2.817702047 	0.5308481468 	-3.757305325e-05
0.3426111162 	2.815845888 	0.5249876431 	-0.000103350363
0.3456987708 	2.813616231 	0.518527643 	-0.0001664759362
0.3489315479 	2.811232505 	0.5119401932 	-0.0002287779914
0.3522324454 	2.808738415 	0.5052819556 	-0.0002883786659
0.3555973458 	2.806170982 	0.4986045362 	-0.0003451728772
0.3590275361 	2.803534772 	0.4919025246 	-0.0003991257182
0.362551824 	2.800814884 	0.4851340667 	-0.0004506307911
0.366211845 	2.798005927 	0.4782813049 	-0.0004329929266
0.3699420351 	2.795121616 	0.4713963801 	-0.0003628182937
0.3737438424 	2.792170767 	0.4645047854 	-0.0002958069673
0.377636215 	2.789131394 	0.457565646 	-0.0002316426576
0.3816845686 	2.78599201 	0.4505497705 	-0.0001694590573
0.3858098468 	2.782765174 	0.4435081498 	-0.0001106949989
0.3900136979 	2.779454946 	0.4364584577 	-5.534669651e-05
0.3943476618 	2.776040565 	0.429359115 	-2.756336909e-06
0.3945877001 	2.775851655 	0.4289740687 	-2.546424546e-05
0.3988005284 	2.772480774 	0.4222167803 	-4.605074848e-05
0.4033373189 	2.768824922 	0.4150636355 	-9.145889028e-05
0.4079772799 	2.765062519 	0.4078835921 	-0.0001337347039
0.412790773 	2.761180032 	0.4006487026 	-0.0001734863092
0.4176954152 	2.757189325 	0.3934009025 	-0.0002098088794
0.4227057342 	2.753084866 	0.3861395084 	-0.0002428835868
0.4279000742 	2.748851773 	0.3788346265 	-0.0002732838102
0.4331925414 	2.744497557 	0.3715195497 	-0.0002527020769
0.4386180278 	2.740018921 	0.3641938541 	-0.0002073251247
0.444213329 	2.735407742 	0.3568455298 	-0.000164926478
0.449914448 	2.730664048 	0.3494929921 	-0.0001259938335
0.4557955335 	2.725782082 	0.3421258097 	-8.997934688e-05
0.4618130608 	2.720760434 	0.3347540713 	-5.720148788e-05
0.4679757722 	2.715597224 	0.327383286 	-2.752512958e-05
0.4743179026 	2.710287973 	0.3200093958 	-7.595621604e-07
0.4745153711 	2.710121592 	0.319784091 	-1.489394113e-05
0.4807767245 	2.704808594 	0.3126264452 	-2.325821879e-05
0.4874410388 	2.699176894 	0.3052412708 	-4.472342739e-05
0.4942331918 	2.693389254 	0.297864758 	-6.337597165e-05
0.5012366618 	2.687443399 	0.2904946083 	-7.961802491e-05
0.508378557 	2.681333488 	0.2831380281 	-9.329026034e-05
0.5157340071 	2.675056284 	0.27579403 	-0.0001047353912
0.5232400024 	2.668605825 	0.2684685495 	-0.0001138956653
0.5309604065 	2.661976349 	0.2611605316 	-0.0001210499444
0.5388492331 	2.65516263 	0.2538753947 	-0.0001238056148
0.5469423605 	2.648158037 	0.2466146182 	-0.0001054475494
0.5552282677 	2.640955524 	0.2393804744 	-8.920216385e-05
0.5637063242 	2.633546846 	0.2321756339 	-7.495108395e-05
0.5724028691 	2.625919367 	0.2249978584 	-6.250377818e-05
0.5812952021 	2.618066456 	0.2178523113 	-5.176326405e-05
0.5904001372 	2.609975595 	0.2107398519 	-4.257270098e-05
0.5997251969 	2.601631798 	0.203659449 	-3.477770884e-05
0.6092625142 	2.593023847 	0.196614492 	-2.825507134e-05
0.6190208314 	2.584133915 	0.1896048182 	-2.2866727e-05
0.6290127948 	2.574940894 	0.1826281107 	-1.847145729e-05
0.639231827 	2.565479031 	0.1757222194 	-1.495708308e-05
0.6494521207 	2.555896417 	0.1690018286 	-1.225287806e-05
0.6594487647 	2.546345296 	0.1625667029 	-1.024426087e-05
0.6692285214 	2.53686954 	0.156428976 	-8.773088962e-06
0.6787905383 	2.527464107 	0.1505687757 	-7.716534298e-06
0.6881399399 	2.518122311 	0.1449673548 	-6.977878885e-06
0.6972857759 	2.508836528 	0.1396068515 	-6.478458612e-06
0.7062281678 	2.499601908 	0.1344720173 	-6.157672837e-06
0.7149714871 	2.490412822 	0.1295485902 	-5.971037637e-06
0.7235237178 	2.481262628 	0.1248230668 	-5.881161356e-06
0.7318856538 	2.472146539 	0.1202834524 	-5.859713677e-06
0.7400626383 	2.463059217 	0.1159187828 	-5.887222394e-06
0.7480597475 	2.453995067 	0.11171871 	-5.945394796e-06
0.7558793157 	2.44494907 	0.1076736936 	-6.023222217e-06
0.7635273095 	2.435915836 	0.1037751147 	-6.11143643e-06
0.7710059865 	2.42689042 	0.1000148256 	-6.202573841e-06
0.7783201246 	2.417867765 	0.09638544068 	-6.292899641e-06
0.7854729768 	2.408842814 	0.0928799788 	-6.377573473e-06
0.7924683686 	2.399810608 	0.08949202817 	-6.45558425e-06
0.7993098094 	2.390766114 	0.08621561792 	-6.52413945e-06
0.8060007232 	2.381704258 	0.08304519177 	-6.583574635e-06
0.8125445184 	2.372619777 	0.07997558037 	-6.632396102e-06
0.8189444707 	2.363507263 	0.07700193094 	-6.671521906e-06
0.8252037512 	2.354361131 	0.0741197372 	-6.700166125e-06
0.8313255764 	2.345175646 	0.07132472414 	-6.71942052e-06
0.8373128571 	2.335944888 	0.06861298501 	-6.729099646e-06
0.8431687634 	2.326662627 	0.06598071676 	-6.730205113e-06
0.8488959972 	2.317322266 	0.06342454107 	-6.723211676e-06
0.8544975826 	2.307916659 	0.06094106754 	-6.708584553e-06
0.8599761555 	2.298438115 	0.0585272529 	-6.687269736e-06
0.8653344799 	2.28887839 	0.05618014997 	-6.659321924e-06
0.8705752067 	2.279228656 	0.053896914 	-6.625643376e-06
0.8757008745 	2.269479617 	0.05167502287 	-6.586519654e-06
0.8807140653 	2.259621468 	0.04951187578 	-6.542329524e-06
0.8856171985 	2.24964404 	0.04740512867 	-6.493867469e-06
0.8904126915 	2.23953704 	0.0453525274 	-6.441572655e-06
0.8951029273 	2.229290154 	0.04335168266 	-6.386710656e-06
0.8996901733 	2.218892783 	0.04140032601 	-6.330908686e-06
0.9041766945 	2.20833174 	0.03949633852 	-6.273569547e-06
0.9085647003 	2.19758399 	0.03763763927 	-6.21348693e-06
0.9128563262 	2.186611139 	0.03582139423 	-6.151184698e-06
0.9170536843 	2.175371659 	0.03404500786 	-6.082876831e-06
0.9211588376 	2.163834964 	0.03230740546 	-6.006610722e-06
0.9251737894 	2.151974638 	0.0306076201 	-5.926112939e-06
0.9291005124 	2.139759573 	0.0289443051 	-5.748424991e-06
0.9329409356 	2.127153053 	0.02731620741 	-5.44527661e-06
0.9366969384 	2.114111687 	0.02572217583 	-5.159512726e-06
0.9403703638 	2.100584049 	0.0241611026 	-4.889594388e-06
0.9439630165 	2.086508932 	0.02263182277 	-4.633873221e-06
0.9474766603 	2.071813016 	0.02113331811 	-4.390629561e-06
0.9509130181 	2.057704177 	0.01978400908 	-4.168685032e-06
0.9531502042 	2.045756797 	0.01870701089 	-4.007460198e-06
0.9553044691 	2.034954533 	0.01778209617 	-3.863820368e-06
0.9573788779 	2.02399917 	0.01688982013 	-3.72612969e-06
0.959376383 	2.012874518 	0.01602892229 	-3.593641666e-06
0.9612998274 	2.001562745 	0.01519828751 	-3.465717847e-06
0.9631519502 	1.990044158 	0.01439686359 	-3.341831356e-06
0.9649353896 	1.97829696 	0.01362364592 	-3.221508016e-06
0.9666526869 	1.96629697 	0.01287768671 	-3.10431587e-06
0.9683062896 	1.954017301 	0.01215809363 	-2.989862344e-06
0.9698985551 	1.941427987 	0.01146402698 	-2.877790567e-06
0.9714317537 	1.92849555 	0.01079469627 	-2.767775579e-06
0.9729080722 	1.915182494 	0.01014935636 	-2.659519567e-06
0.9743296165 	1.901446714 	0.009527310821 	-2.552749351e-06
0.9756984151 	1.887240795 	0.008927908225 	-2.447220653e-06
0.9770164214 	1.872511177 	0.008350536311 	-2.342712625e-06
0.9782855171 	1.857197165 	0.007794623665 	-2.239027229e-06
0.979507514 	1.84122973 	0.007259637713 	-2.135989124e-06
0.9806841574 	1.824530053 	0.006745082707 	-2.0334464e-06
0.9818171278 	1.807007752 	0.006250497882 	-1.931271978e-06
0.9829080439 	1.788558683 	0.005775455735 	-1.829363026e-06
0.9839584643 	1.769062209 	0.005319561446 	-1.727635381e-06
0.9849698902 	1.748377759 	0.004882452679 	-1.626039999e-06
0.9859437673 	1.726340452 	0.00446378527 	-1.524688683e-06
0.9868814876 	1.702755465 	0.004063183528 	-1.423998093e-06
0.9877843919 	1.677390701 	0.003680294149 	-1.322799084e-06
0.9886537714 	1.649948601 	0.003315232739 	-1.220669305e-06
0.9894908693 	1.620001426 	0.002968078024 	-1.119427775e-06
0.990296883 	1.586977091 	0.002638744513 	-1.016596784e-06
0.9910729655 	1.550224074 	0.00232741885 	-9.112090629e-07
0.9918202271 	1.512559041 	0.002057409987 	-8.148232494e-07
0.9923020085 	1.478330145 	0.001847062565 	-7.380485838e-07
0.992783802 	1.444449709 	0.001665733621 	-6.700686982e-07
0.9932656077 	1.406236017 	0.001487898549 	-6.021979313e-07
0.9937474255 	1.362763066 	0.00131393249 	-5.347692284e-07
0.9942292554 	1.312831469 	0.001144218974 	-4.681809267e-07
0.9947110974 	1.254862707 	0.0009791835099 	-4.028828991e-07
0.9951929516 	1.186778138 	0.0008193829673 	-3.393466563e-07
0.9956748179 	1.105862305 	0.000665642775 	-2.781114645e-07
0.9961566963 	1.008541658 	0.0005191638571 	-2.197787805e-07
0.9966385868 	0.8900512555 	0.000381420654 	-1.647356558e-07
0.9971204895 	0.7460584908 	0.0002559092617 	-1.134076585e-07
0.9976024043 	0.5777616111 	0.0001500655149 	-6.801119391e-08
0.9980843313 	0.3929631748 	6.631446988e-05 	-3.202103616e-08
0.9985662704 	0.1993265729 	-1.555999612e-05 	-6.325175846e-09
0.9990482216 	0.07286557781 	-4.366973332e-05 	2.959195132e-09
