0.3443831881 	0.02343953362 	-0.006097901902 	2.168182739e-07
0.3443831881 	0.02343953362 	-0.006097901902 	2.168182739e-07
0.344828276 	0.08754084025 	-0.02283074207 	3.572540423e-07
0.3452733899 	0.1855868979 	-0.04832568752 	1.119427815e-07
0.3453683507 	0.2083757185 	-0.05420352456 	-0.0002559396341
0.3457171008 	0.2924409428 	-0.0758802008 	3.578357657e-07
0.3461604356 	0.4026668687 	-0.1041125376 	8.426933879e-07
0.3466037719 	0.5076674587 	-0.1308121752 	1.182448832e-06
0.3470471022 	0.6008829299 	-0.1543022631 	1.291542482e-06
0.3474904186 	0.6809686265 	-0.1742607689 	1.188367585e-06
0.3479337135 	0.7497603343 	-0.1911872123 	9.124464758e-07
0.3483769792 	0.8096578721 	-0.2057240623 	4.891960056e-07
0.3488202083 	0.8626582217 	-0.2184054701 	-6.769898636e-08
0.3492633929 	0.9102528805 	-0.2296306011 	-7.501480638e-07
0.3497065257 	0.9535327771 	-0.2396917329 	-1.552353392e-06
0.350149599 	0.9933015503 	-0.2488046666 	-2.469384663e-06
0.3505926053 	1.030161006 	-0.2571311399 	-3.496553317e-06
0.3510355371 	1.069111777 	-0.2658024759 	-4.746570515e-06
0.3517223991 	1.114334592 	-0.2756792472 	-6.598047026e-06
0.3524355422 	1.161214976 	-0.2857081025 	-8.867938368e-06
0.3531759295 	1.206114284 	-0.2950994373 	-1.146253646e-05
0.3539445536 	1.249344345 	-0.3039351016 	-1.439123483e-05
0.3547424362 	1.291146652 	-0.3122780085 	-1.766163466e-05
0.3555706289 	1.331710603 	-0.3201774906 	-2.12795644e-05
0.3564302123 	1.371186245 	-0.3276725042 	-2.524899613e-05
0.357322296 	1.409693365 	-0.3347940655 	-2.957189758e-05
0.3582480179 	1.447385841 	-0.3415769793 	-3.42523102e-05
0.3592144644 	1.484415446 	-0.348052213 	-3.931487747e-05
0.3602197872 	1.52080249 	-0.3542268587 	-4.475839057e-05
0.3612632246 	1.556524925 	-0.3601005697 	-5.057208673e-05
0.3623462001 	1.591608165 	-0.3656804692 	-5.675290388e-05
0.3634701892 	1.626088929 	-0.370975057 	-6.329777211e-05
0.3646367213 	1.659997259 	-0.3759911208 	-7.020192899e-05
0.3658473815 	1.693357799 	-0.3807340393 	-7.74588573e-05
0.3671038128 	1.726190856 	-0.3852080637 	-8.506027137e-05
0.368407718 	1.758513292 	-0.3894165594 	-9.299611304e-05
0.3697608619 	1.790339272 	-0.3933622106 	-0.000101254486
0.3711650737 	1.821685483 	-0.39704768 	-0.000109822065
0.3726231152 	1.852619765 	-0.40048066 	-0.0001186936486
0.3741466344 	1.883193995 	-0.403665309 	-0.0001278965866
0.3757274577 	1.913347105 	-0.40659457 	-0.0001373558019
0.3773677022 	1.943036702 	-0.4092638458 	-0.0001470401813
0.3790695614 	1.972271413 	-0.4116744282 	-0.0001569228309
0.380835309 	2.001059783 	-0.4138275449 	-0.0001669745561
0.3826673009 	2.029410422 	-0.4157244556 	-0.0001771641204
0.3845679793 	2.057335547 	-0.4173665156 	-0.0001874585435
0.3865408511 	2.084890675 	-0.4187561308 	-0.0001978307566
0.3886006332 	2.115319476 	-0.4200252116 	-0.0002086320877
0.391760195 	2.151330674 	-0.4211117283 	-0.0002236215723
0.3949855825 	2.188491763 	-0.4217734854 	-0.0002383121753
0.3982782105 	2.223817338 	-0.4219325386 	-0.0002523124894
0.4016486081 	2.257533335 	-0.4216363536 	-0.0002656225224
0.4051012641 	2.289787857 	-0.4209238374 	-0.0002782004228
0.408625671 	2.320654689 	-0.4198301092 	-0.0002771464667
0.412223395 	2.350246112 	-0.4183855347 	-0.0002617433819
0.4159074241 	2.37870098 	-0.4166147771 	-0.0002460696757
0.4196774594 	2.406092075 	-0.4145410575 	-0.0002302892415
0.4235257511 	2.432449387 	-0.4121868302 	-0.0002145427537
0.4274540412 	2.457848689 	-0.4095677046 	-0.0001988991154
0.4314842435 	2.482369994 	-0.4066945472 	-0.0001833596212
0.4355981497 	2.506010063 	-0.4035840715 	-0.0001681227359
0.4397974965 	2.528791622 	-0.4002485543 	-0.0001532993138
0.4440982404 	2.550771712 	-0.3966959232 	-0.0001389274347
0.4484938151 	2.571958207 	-0.3929403629 	-0.0001251019729
0.4529806932 	2.592361795 	-0.3889928722 	-0.00011186479
0.4575736477 	2.612009032 	-0.3848598412 	-9.917482686e-05
0.4622681035 	2.630887038 	-0.3805514213 	-8.707571915e-05
0.4670602036 	2.648987161 	-0.3760739887 	-7.559921468e-05
0.4719671655 	2.6663177 	-0.3714309222 	-6.471978752e-05
0.4769790514 	2.68285827 	-0.3666304218 	-5.449542387e-05
0.4820985448 	2.698597483 	-0.3616775549 	-4.491793736e-05
0.4873386125 	2.713530157 	-0.3565760509 	-3.597503297e-05
0.492688021 	2.727635263 	-0.351332364 	-2.769737241e-05
0.4981601174 	2.740902094 	-0.3459509401 	-2.005155327e-05
0.5037516375 	2.753316372 	-0.3404379191 	-1.305554799e-05
0.5094651183 	2.764869462 	-0.3347992282 	-6.688502676e-06
0.5153084041 	2.775559354 	-0.3290412005 	-9.417311981e-07
0.5163719831 	2.777312265 	-0.3279949038 	7.439007604e-05
0.5212718639 	2.785378323 	-0.3231563192 	-4.735286632e-06
0.5273728653 	2.794343786 	-0.3171650803 	-9.879160859e-06
0.5336029526 	2.802467134 	-0.311079471 	-1.436896004e-05
0.5399770547 	2.80976667 	-0.3049070593 	-1.824318248e-05
0.5464870312 	2.816260753 	-0.2986565896 	-2.15072647e-05
0.5531461554 	2.821972508 	-0.2923355191 	-2.420164715e-05
0.5599480631 	2.82692347 	-0.2859518241 	-2.634118541e-05
0.5669056226 	2.831136795 	-0.2795117314 	-2.796677389e-05
0.5740136424 	2.834631977 	-0.2730226436 	-2.910367903e-05
0.5812822127 	2.837428089 	-0.2664898982 	-2.978864266e-05
0.5887104147 	2.839540361 	-0.2599193489 	-3.00582512e-05
0.5963041771 	2.840981478 	-0.2533155182 	-2.994349792e-05
0.6040672937 	2.841760336 	-0.2466826053 	-2.948563229e-05
0.6120015878 	2.841881899 	-0.2400246126 	-2.871344049e-05
0.6201150222 	2.841347393 	-0.2333438406 	-2.766343716e-05
0.6284082265 	2.840153535 	-0.22664402 	-2.636877172e-05
0.6368863256 	2.838292992 	-0.2199274245 	-2.485869502e-05
0.6455553224 	2.83575368 	-0.2131955272 	-2.316863201e-05
0.6544178301 	2.832518898 	-0.2064508003 	-2.133006648e-05
0.6634788634 	2.828566601 	-0.1996946065 	-1.937311824e-05
0.6727446847 	2.82389693 	-0.1929630851 	-1.733466815e-05
0.6820088343 	2.81858222 	-0.1863693393 	-1.528791731e-05
0.6910664607 	2.812732604 	-0.1800163545 	-1.330176166e-05
0.6999230758 	2.806414105 	-0.1739221479 	-1.139838758e-05
0.7085833915 	2.799657541 	-0.1680712406 	-9.592208221e-06
0.7170516781 	2.792487843 	-0.1624492361 	-7.890177111e-06
0.7253328647 	2.784924722 	-0.1570422597 	-6.29582674e-06
0.7334312716 	2.776983702 	-0.151837654 	-4.812122086e-06
0.7413508659 	2.768676521 	-0.1468236344 	-3.436825307e-06
0.7490962263 	2.760011342 	-0.1419888424 	-2.167428626e-06
0.7566710024 	2.750993457 	-0.1373229772 	-1.001389455e-06
0.7635947473 	2.742237908 	-0.1331109669 	1.661046568e-05
0.7640790813 	2.741625641 	-0.1328159138 	-5.241993766e-08
0.7713228311 	2.731910301 	-0.1284540835 	-8.152395958e-07
0.7784074711 	2.7218426 	-0.124234038 	-1.502086427e-06
0.7853368102 	2.711417296 	-0.1201475961 	-2.117008261e-06
0.7921140977 	2.700626382 	-0.1161871389 	-2.664802171e-06
0.7987429526 	2.68945904 	-0.1123453856 	-3.149609583e-06
0.8052264858 	2.6779019 	-0.1086155451 	-3.575366108e-06
0.8115680792 	2.665939402 	-0.1049912091 	-3.945943036e-06
0.8177707413 	2.653554553 	-0.1014664065 	-4.265143065e-06
0.8238376583 	2.640730044 	-0.09803566425 	-4.536838278e-06
0.8297717164 	2.627449711 	-0.09469398888 	-4.764520053e-06
0.8355759148 	2.613699949 	-0.09143696221 	-4.950571902e-06
0.8412530418 	2.599470925 	-0.08826061496 	-5.097385463e-06
0.8468059221 	2.584757318 	-0.08516147866 	-5.206774129e-06
0.8522372468 	2.569558601 	-0.08213648218 	-5.281513881e-06
0.8575496806 	2.553878779 	-0.0791828931 	-5.323565249e-06
0.8627458237 	2.5377256 	-0.0762983204 	-5.335131969e-06
0.8678281947 	2.521109366 	-0.07348048398 	-5.317852504e-06
0.8727992923 	2.504041418 	-0.07072733443 	-5.273241412e-06
0.877661521 	2.486532611 	-0.06803682551 	-5.203160284e-06
0.8824172569 	2.468591873 	-0.06540692265 	-5.109042786e-06
0.8870688218 	2.450224964 	-0.0628356471 	-4.992514181e-06
0.8916184689 	2.431433499 	-0.06032090267 	-4.855055767e-06
0.8960684231 	2.412214155 	-0.0578606013 	-4.697851343e-06
0.9004208485 	2.39255805 	-0.0554526242 	-4.522209971e-06
0.9046778613 	2.372450281 	-0.05309474424 	-4.329226782e-06
0.9088415408 	2.351869536 	-0.0507847569 	-4.119831409e-06
0.9129139129 	2.33078777 	-0.04852044096 	-3.895013701e-06
0.9168969602 	2.309169956 	-0.04629952262 	-3.655619916e-06
0.9207926277 	2.286973862 	-0.04411977707 	-3.402391522e-06
0.9246028153 	2.264149836 	-0.04197904246 	-3.136117122e-06
0.9283293787 	2.24064063 	-0.03987518672 	-2.857611315e-06
0.9319741387 	2.216381238 	-0.03780617145 	-2.567682936e-06
0.9355388764 	2.191298777 	-0.03577012953 	-2.267279932e-06
0.939025331 	2.165312456 	-0.03376534511 	-1.957574459e-06
0.9424352066 	2.138333791 	-0.03179029998 	-1.639947911e-06
0.9457701716 	2.11026725 	-0.02984377676 	-1.316092111e-06
0.9490318579 	2.081011691 	-0.02792492472 	-9.879866702e-07
0.9522218606 	2.050463145 	-0.02603319793 	-6.580450269e-07
0.9553417423 	2.021208948 	-0.02432099516 	-3.596951929e-07
0.9573729156 	1.9965447 	-0.02294898149 	-1.166397187e-07
0.959328821 	1.97435925 	-0.02176736737 	8.862189807e-08
0.9612122391 	1.951990296 	-0.02062474105 	2.846015681e-07
0.9630258482 	1.929441496 	-0.01952049752 	4.698963368e-07
0.9647722284 	1.906721995 	-0.0184541424 	6.429346811e-07
0.966453865 	1.883844123 	-0.01742531034 	8.020605467e-07
0.9680731521 	1.860819148 	-0.01643371115 	9.456551628e-07
0.9696323954 	1.837649714 	-0.01547907289 	1.072493679e-06
0.9711338161 	1.814317454 	-0.01456076581 	1.183104371e-06
0.9725795532 	1.79078236 	-0.01367765245 	1.279261164e-06
0.9739716673 	1.767006007 	-0.01282871082 	1.361947493e-06
0.9753121429 	1.74296508 	-0.01201328122 	1.431402952e-06
0.9766028914 	1.718640827 	-0.01123070495 	1.487710237e-06
0.9778457537 	1.694010977 	-0.01048025514 	1.530987373e-06
0.979042503 	1.669049051 	-0.009761233806 	1.561442002e-06
0.9801948469 	1.643723568 	-0.00907294774 	1.579368069e-06
0.9813044301 	1.617997104 	-0.008414699813 	1.585138513e-06
0.9823728366 	1.591825162 	-0.007785789671 	1.579199662e-06
0.9834015919 	1.565154805 	-0.007185515343 	1.562065276e-06
0.9843921651 	1.537922942 	-0.006613174468 	1.534309838e-06
0.9853459713 	1.5100542 	-0.006068065624 	1.4965616e-06
0.986264373 	1.481458189 	-0.005549490278 	1.449495801e-06
0.9871486825 	1.452025992 	-0.005056754153 	1.393828482e-06
0.9880001636 	1.421625542 	-0.00458916901 	1.330311049e-06
0.9888200333 	1.390095497 	-0.004146055862 	1.25972557e-06
0.9896094638 	1.357236949 	-0.003726747263 	1.182880201e-06
0.9903695837 	1.322802046 	-0.003330582457 	1.100606893e-06
0.99110148 	1.286478075 	-0.002956888205 	1.013777789e-06
0.9918061995 	1.247864769 	-0.002605052358 	9.190991165e-07
0.9924847502 	1.209898766 	-0.002300411791 	8.288449309e-07
0.9929222326 	1.176517994 	-0.002063075207 	7.547754549e-07
0.9933597267 	1.144372043 	-0.001858686031 	6.877117546e-07
0.9937972326 	1.109027714 	-0.001658535754 	6.194376515e-07
0.9942347503 	1.069752324 	-0.001462896102 	5.502424714e-07
0.9946722798 	1.025557604 	-0.001272129183 	4.80575301e-07
0.995109821 	0.9750857266 	-0.001086639832 	4.110530556e-07
0.995547374 	0.9164460651 	-0.0009069292055 	3.425172532e-07
0.9959849388 	0.847016402 	-0.0007337046779 	2.760962216e-07
0.9964225153 	0.7633613313 	-0.0005681223097 	2.132000636e-07
0.9968601036 	0.6619111496 	-0.000412434773 	1.555219985e-07
0.9972977036 	0.5416558605 	-0.0002713267656 	1.049682732e-07
0.9977353155 	0.4075908484 	-0.0001529242362 	6.288069924e-08
0.9981729391 	0.2688327105 	-7.009415192e-05 	3.026186103e-08
0.9986105744 	0.1321739353 	-4.516928046e-05 	8.446514472e-09
0.9990482216 	0.04740443882 	-3.71120357e-05 	3.093379809e-10
