0.2166463761 	6.716932133e-06 	-1.279722847e-07 	-6.875155519e-12 	6.505721287e-06 	1.076827373e-09 	1.240171294e-08
0.2171572358 	0.0002743808064 	-2.840811313e-05 	5.461178627e-09 	0.0002299188553 	2.569467034e-09 	4.382892408e-07
0.2176681208 	0.002398273682 	-0.0005007594924 	6.944653248e-08 	0.001618598376 	8.444388101e-08 	3.085498371e-06
0.2181790146 	0.00825396666 	-0.00221217067 	-2.082146052e-07 	0.004819576335 	8.833246947e-07 	9.187452027e-06
0.2186899005 	0.0154186126 	-0.004409266505 	-1.638636405e-06 	0.008589233487 	3.016359501e-06 	1.637346628e-05
0.2192007621 	0.02041037027 	-0.005904089624 	-3.747943356e-06 	0.01128805147 	6.178630055e-06 	2.151816346e-05
0.2197115828 	0.02283534316 	-0.006694890834 	-5.950677977e-06 	0.01252283409 	9.411338776e-06 	2.387200231e-05
0.2202223462 	0.02317481592 	-0.006860145867 	-8.28852732e-06 	0.01265620971 	1.169370619e-05 	2.412625331e-05
0.2207330361 	0.02216598412 	-0.00655894462 	-9.621409107e-06 	0.01218043831 	1.27304622e-05 	2.321930079e-05
0.221243636 	0.02054753443 	-0.006030795104 	-8.979202635e-06 	0.01147222195 	1.250040229e-05 	2.186924358e-05
0.2217541297 	0.01891054462 	-0.005520440368 	-7.132681704e-06 	0.01076710391 	1.053422328e-05 	2.052509261e-05
0.222264501 	0.01751682144 	-0.005092445785 	-6.081015476e-06 	0.01024622797 	6.23587186e-06 	1.95321583e-05
0.2227747338 	0.0163496816 	-0.004646787878 	-6.356183055e-06 	0.01003445027 	3.191319252e-07 	1.912845114e-05
0.223284812 	0.01540314996 	-0.004194644147 	-5.82435981e-06 	0.01009577722 	-5.217591667e-06 	1.924535736e-05
0.2237947196 	0.01468679417 	-0.003807759287 	-4.528210747e-06 	0.01033713661 	-1.010882147e-05 	1.970545544e-05
0.2243044406 	0.01412147064 	-0.003489358474 	-3.726155869e-06 	0.01074167667 	-1.5318042e-05 	2.047662122e-05
0.2250946569 	0.01361182799 	-0.003157311787 	-3.163942552e-06 	0.01138566642 	-2.085891683e-05 	2.170424468e-05
0.2259148042 	0.01317771554 	-0.002815329962 	-2.562921159e-06 	0.01220404321 	-2.55675246e-05 	2.32642983e-05
0.2267659227 	0.01284732379 	-0.002533337449 	-1.951588311e-06 	0.01304168506 	-2.93864884e-05 	2.486107648e-05
0.2276490757 	0.01257703802 	-0.002294950346 	-1.42600193e-06 	0.01386070612 	-3.26704444e-05 	2.642235826e-05
0.2285653483 	0.01234041881 	-0.002089441768 	-9.394923529e-07 	0.01464051741 	-3.557394467e-05 	2.790889531e-05
0.2295158458 	0.01212129675 	-0.00190828718 	-4.80665031e-07 	0.01536919713 	-3.81263883e-05 	2.929796139e-05
0.2305016917 	0.01190893999 	-0.001744857288 	-1.141430201e-07 	0.01604120931 	-4.028393037e-05 	3.057900337e-05
0.2315240249 	0.01169763305 	-0.001586325439 	-1.978087077e-07 	0.01662940393 	-3.899216745e-05 	3.170026579e-05
0.2325839972 	0.01148480096 	-0.001423143992 	-9.210473053e-07 	0.01711167637 	-3.364726258e-05 	3.26196111e-05
0.2336827697 	0.01127179736 	-0.001245610048 	-1.763675533e-06 	0.01744778356 	-2.721483396e-05 	3.326032483e-05
0.2348215088 	0.01106143564 	-0.001057441434 	-2.176877154e-06 	0.01763782198 	-2.117556814e-05 	3.362259088e-05
0.2360013815 	0.01085766082 	-0.0008718688383 	-1.83541382e-06 	0.01770783931 	-1.696677411e-05 	3.375606337e-05
0.2372430878 	0.01066299962 	-0.0007010675768 	-9.669350917e-07 	0.01768455845 	-1.427468412e-05 	3.371168358e-05
0.2385518782 	0.01047894123 	-0.0005601261378 	-5.465604493e-08 	0.01761789857 	-1.18481561e-05 	3.358461133e-05
0.2399085124 	0.01030900613 	-0.0004516533278 	7.102935464e-07 	0.01751611942 	-9.768853733e-06 	3.339059197e-05
0.2413146526 	0.01015340801 	-0.0003737318223 	1.241262138e-06 	0.01738887907 	-8.022217088e-06 	3.31480365e-05
0.2427720136 	0.0100115638 	-0.0003208474274 	1.538920029e-06 	0.01724465517 	-6.564924148e-06 	3.287310566e-05
0.2442823642 	0.009882027184 	-0.0002873443629 	1.627261136e-06 	0.01709070838 	-5.338040381e-06 	3.25796403e-05
0.2458475291 	0.009762912419 	-0.0002678675965 	1.548163636e-06 	0.01693289066 	-4.280324878e-06 	3.227879585e-05
0.2474693895 	0.009652376294 	-0.0002576476027 	1.350830803e-06 	0.01677558077 	-3.338758873e-06 	3.197891948e-05
0.2491498857 	0.009548804129 	-0.0002528854142 	1.07850484e-06 	0.01662182416 	-2.473280973e-06 	3.168581665e-05
0.2508910183 	0.009450911872 	-0.0002508501924 	7.622245238e-07 	0.01647356401 	-1.657468088e-06 	3.140319159e-05
0.2526948498 	0.009357780987 	-0.0002497526236 	4.20402459e-07 	0.01633190711 	-8.764487073e-07 	3.113315417e-05
0.2545635066 	0.00926863985 	-0.0002486619625 	6.147340865e-08 	0.01619718485 	-1.233643094e-07 	3.08763361e-05
0.2548830704 	0.009254499327 	-0.0002484336625 	-3.795378973e-08 	0.01617608625 	-1.685422227e-06 	3.083611631e-05
0.2564898972 	0.009182002131 	-0.0002479695072 	2.821432876e-07 	0.0160675092 	-6.002987322e-07 	3.062913827e-05
0.2585313912 	0.00909791384 	-0.0002469660842 	6.435224005e-07 	0.01594348117 	-1.315122441e-06 	3.039270637e-05
0.260645692 	0.009017484373 	-0.0002455659872 	1.020601416e-06 	0.0158263117 	-2.004555921e-06 	3.016934879e-05
0.262835234 	0.008941617763 	-0.0002431410626 	1.414152571e-06 	0.01571666724 	-2.669257363e-06 	2.996033598e-05
0.2651025266 	0.008869658201 	-0.0002404159914 	1.82634585e-06 	0.01561473006 	-3.309942409e-06 	2.976601538e-05
0.2674501564 	0.008791941807 	-0.0002393281917 	2.264223661e-06 	0.01550910544 	-3.919996267e-06 	2.956466551e-05
0.271042675 	0.008705912623 	-0.0002364948268 	2.942215797e-06 	0.01539565007 	-4.785393876e-06 	2.934838803e-05
0.2746994974 	0.008622857532 	-0.0002324306098 	3.650049496e-06 	0.01528805911 	-5.566138771e-06 	2.914328975e-05
0.2785254168 	0.008549206064 	-0.000228399697 	4.41020939e-06 	0.01519669941 	-6.297439499e-06 	2.896913277e-05
0.2824251173 	0.008484174702 	-0.0002244596505 	4.157954075e-06 	0.01512131477 	-5.558974046e-06 	2.882542871e-05
0.2863932015 	0.008427741712 	-0.0002199647365 	3.541868995e-06 	0.01506107717 	-4.435722517e-06 	2.871059909e-05
0.2904309162 	0.008378924626 	-0.0002150450189 	2.896821726e-06 	0.01501465689 	-3.399266421e-06 	2.862210915e-05
0.294573134 	0.008336671649 	-0.0002096522537 	2.214546093e-06 	0.01498084114 	-2.434942088e-06 	2.855764692e-05
0.2988699963 	0.00830058659 	-0.0002032778778 	1.485154613e-06 	0.0149589472 	-1.529559378e-06 	2.851591099e-05
0.3032408173 	0.008270585066 	-0.0001958178968 	7.230219114e-07 	0.01494842724 	-6.978610787e-07 	2.849585702e-05
0.3072901568 	0.008248371909 	-0.000188194696 	-2.769059071e-08 	0.01494872326 	-7.749875395e-07 	2.849642131e-05
0.307683455 	0.008246159644 	-0.0001875728225 	6.539417694e-08 	0.01494854872 	-6.699501983e-08 	2.849608859e-05
0.3121879332 	0.008226508755 	-0.0001800253046 	8.200791616e-07 	0.01495681249 	-7.908944925e-07 	2.851184164e-05
0.3168689661 	0.008211677772 	-0.0001710184031 	1.624376604e-06 	0.01497502682 	-1.474218273e-06 	2.854656322e-05
0.3216307364 	0.008201655926 	-0.000160387062 	2.461899023e-06 	0.01500260081 	-2.103941695e-06 	2.85991269e-05
0.3264749096 	0.008196057952 	-0.0001485201073 	3.333645616e-06 	0.01503918052 	-2.683855256e-06 	2.866885799e-05
0.3314629572 	0.008194477806 	-0.0001351633875 	4.251122614e-06 	0.01508477062 	-3.223371151e-06 	2.875576539e-05
0.3365979395 	0.008196946404 	-0.0001196862415 	5.214178034e-06 	0.0151390823 	-3.723401598e-06 	2.885929855e-05
0.3418207312 	0.008203307252 	-0.0001022680087 	4.638753224e-06 	0.01520155882 	-3.121997825e-06 	2.897839617e-05
0.3471530973 	0.008213181332 	-8.311877905e-05 	3.859218004e-06 	0.01527223981 	-2.449960066e-06 	2.911313377e-05
0.3526786304 	0.008226540044 	-6.144776174e-05 	3.030292371e-06 	0.01535131032 	-1.815264252e-06 	2.926386415e-05
0.3582978752 	0.008243328038 	-3.719325929e-05 	2.170366205e-06 	0.01543804379 	-1.229070406e-06 	2.942920225e-05
0.3640278778 	0.008263293932 	-1.079738493e-05 	1.277529568e-06 	0.01553243208 	-6.852424091e-07 	2.960913256e-05
0.3699614344 	0.008286383399 	1.860296623e-05 	3.391788896e-07 	0.01563483754 	-1.725639753e-07 	2.980434582e-05
0.3721116093 	0.008295769337 	3.00533985e-05 	1.540659593e-07 	0.01567394382 	-2.086395929e-06 	2.987889327e-05
0.3759744346 	0.008312923281 	4.977098646e-05 	5.698236464e-07 	0.01574306766 	-3.287896691e-07 	3.001066253e-05
0.3821181234 	0.008342688368 	8.298431525e-05 	1.477125866e-06 	0.01585781886 	-8.173700882e-07 	3.022941021e-05
0.3884469116 	0.008375467481 	0.0001197680411 	2.414113668e-06 	0.01598001093 	-1.284402428e-06 	3.046234224e-05
0.3948846144 	0.008411243288 	0.0001598511747 	3.364961137e-06 	0.01610924816 	-1.72732521e-06 	3.070870433e-05
0.4015183131 	0.00844992426 	0.0002036046667 	4.338474918e-06 	0.01624575787 	-2.155115829e-06 	3.096892978e-05
0.4082958517 	0.008491488592 	0.0002514368125 	5.320439344e-06 	0.01638921134 	-2.567476134e-06 	3.124239196e-05
0.4152271829 	0.008535922012 	0.0003032385638 	5.709745926e-06 	0.0165395021 	-2.687331213e-06 	3.152888793e-05
0.4223518173 	0.008583186425 	0.0003597022065 	4.868920188e-06 	0.01669662318 	-2.244241016e-06 	3.182840437e-05
0.4296082521 	0.008633312177 	0.0004207679779 	4.022368331e-06 	0.0168602946 	-1.824777594e-06 	3.214040758e-05
0.437087353 	0.008686322178 	0.0004870955214 	3.163825018e-06 	0.01703057103 	-1.419116729e-06 	3.246500178e-05
0.4446968481 	0.008742223213 	0.0005587844667 	2.311977709e-06 	0.01720703274 	-1.031274688e-06 	3.280138685e-05
0.4525341922 	0.008801105077 	0.0006363799796 	1.460998167e-06 	0.01738962475 	-6.514455597e-07 	3.314945797e-05
0.4605132852 	0.008862982548 	0.0007201650539 	6.298236267e-07 	0.01757789206 	-2.824983794e-07 	3.350834778e-05
0.466862179 	0.00891329217 	0.0007901272536 	5.715393988e-07 	0.01772781352 	-1.080636947e-06 	3.379413976e-05
0.4687170369 	0.008928170985 	0.0008102864212 	1.692976891e-07 	0.01777134528 	-8.960983171e-08 	3.387712339e-05
0.4770612456 	0.008997087694 	0.0009064191199 	8.860110299e-07 	0.01796876608 	-4.751528944e-07 	3.425346231e-05
0.4856357945 	0.009069428429 	0.0010102148 	1.570772718e-06 	0.01817096039 	-8.578581435e-07 	3.463890086e-05
0.4943867518 	0.00914525214 	0.001122278943 	2.209603895e-06 	0.0183771921 	-1.235962318e-06 	3.503203581e-05
0.5033553558 	0.009224810486 	0.001243027411 	2.796590243e-06 	0.01858690025 	-1.61096087e-06 	3.543179784e-05
0.5125279432 	0.009308272202 	0.001373042304 	3.321935799e-06 	0.0187992427 	-1.981871355e-06 	3.583658157e-05
0.5219033258 	0.009395929132 	0.001512885328 	3.775578995e-06 	0.01901328933 	-2.346386383e-06 	3.624461393e-05
0.5315117991 	0.009488139478 	0.00166295926 	4.151298463e-06 	0.01922820333 	-2.702561008e-06 	3.665429976e-05
0.5413267455 	0.009585208883 	0.001823852647 	4.43891642e-06 	0.01944257455 	-3.045186901e-06 	3.706295087e-05
0.5513673254 	0.00968761744 	0.001995886407 	4.632170189e-06 	0.0196551661 	-3.368545928e-06 	3.746820945e-05
0.5616420937 	0.009795845408 	0.00217925469 	4.187200984e-06 	0.01986464268 	-3.247497189e-06 	3.786753004e-05
0.572141739 	0.009910403864 	0.002374226961 	3.641125759e-06 	0.02006923052 	-3.031403449e-06 	3.825753132e-05
0.5828761785 	0.01003191279 	0.002580711366 	3.136053e-06 	0.02026732698 	-2.8221275e-06 	3.863515823e-05
0.5938599386 	0.01016101813 	0.002798421253 	2.672899651e-06 	0.02045730283 	-2.619681284e-06 	3.8997305e-05
0.6050853588 	0.0102975827 	0.003025674954 	2.254599896e-06 	0.02063638791 	-2.425530029e-06 	3.933869095e-05
0.616304903 	0.01043952546 	0.003257359996 	1.887441127e-06 	0.02080039094 	-2.245582349e-06 	3.96513263e-05
0.6272726831 	0.01058442068 	0.003488047446 	1.571904732e-06 	0.02094643671 	-2.083300953e-06 	3.992973013e-05
0.6379972968 	0.0107313807 	0.003715341982 	1.300864601e-06 	0.02107432629 	-1.936409002e-06 	4.017352321e-05
0.6484784085 	0.01088012404 	0.003938231367 	1.067438975e-06 	0.02118475828 	-1.803653919e-06 	4.038403728e-05
0.6587224262 	0.01103032838 	0.004155787924 	8.657873813e-07 	0.02127866186 	-1.683666978e-06 	4.05630436e-05
0.668740208 	0.01118168398 	0.00436721049 	6.89608054e-07 	0.02135714766 	-1.573774055e-06 	4.071265935e-05
0.6785322795 	0.01133385018 	0.004571945459 	5.335933226e-07 	0.0214212194 	-1.471557267e-06 	4.083479789e-05
0.6881039118 	0.01148642534 	0.004769562294 	3.953679023e-07 	0.02147193735 	-1.376641603e-06 	4.09314804e-05
0.6974645066 	0.01163907118 	0.004959694172 	2.723969628e-07 	0.02151046314 	-1.287720904e-06 	4.100492127e-05
0.7066151573 	0.01179167334 	0.005142407987 	1.596221456e-07 	0.02153754239 	-1.200625167e-06 	4.105654185e-05
0.7155620738 	0.01194396637 	0.005317732738 	5.355289996e-08 	0.02155402689 	-1.112408726e-06 	4.108796589e-05
0.7243111915 	0.01209537748 	0.005485337752 	-4.410765197e-08 	0.02156122429 	-1.025338642e-06 	4.110168613e-05
0.7328652014 	0.01224556772 	0.005645197332 	-1.310386885e-07 	0.02156010288 	-9.42798287e-07 	4.109954842e-05
0.7412309507 	0.01239463488 	0.005797704415 	-2.095373765e-07 	0.02155114654 	-8.624047241e-07 	4.108247514e-05
0.7494110226 	0.01254277074 	0.00594342041 	-2.833702081e-07 	0.02153455334 	-7.791576232e-07 	4.105084388e-05
0.7574108228 	0.01268966119 	0.006082501349 	-3.531987715e-07 	0.02151102254 	-6.918961904e-07 	4.100598764e-05
0.765234046 	0.01283470091 	0.006214726132 	-4.169740979e-07 	0.02148181186 	-6.041148443e-07 	4.095030396e-05
0.7728849643 	0.01297744951 	0.006340004099 	-4.726136001e-07 	0.02144803658 	-5.203515841e-07 	4.08859189e-05
0.7803675342 	0.01311783099 	0.006458628202 	-5.188371826e-07 	0.0214101895 	-4.429719296e-07 	4.081377185e-05
0.7876855447 	0.01325620577 	0.006571243741 	-5.568574996e-07 	0.0213681341 	-3.697773665e-07 	4.073360257e-05
0.7948428113 	0.01339352302 	0.006677357457 	-5.422028466e-07 	0.02132098559 	-2.63160054e-07 	4.064372439e-05
0.801842939 	0.01352985201 	0.00677691836 	-4.639982786e-07 	0.02126897872 	-1.132955477e-07 	4.054458484e-05
0.8086894534 	0.01366430691 	0.006870908455 	-3.655288611e-07 	0.02121370511 	4.744004695e-08 	4.043921799e-05
0.8153858853 	0.01379650977 	0.006959629907 	-2.572236886e-07 	0.02115611664 	2.094743262e-07 	4.032943835e-05
0.821935447 	0.01392623741 	0.007043390438 	-1.456819035e-07 	0.02109684689 	3.682781636e-07 	4.021645373e-05
0.8283416184 	0.01405343774 	0.007122642895 	-3.601895049e-08 	0.02103617227 	5.163808457e-07 	4.010079104e-05
0.8346073564 	0.01417837489 	0.0071977622 	7.238033282e-08 	0.02097401016 	6.166005221e-07 	3.998229279e-05
0.8407359853 	0.01430239524 	0.007267186715 	1.754246834e-07 	0.02090911811 	6.858985738e-07 	3.985859051e-05
0.8467303714 	0.01442594522 	0.007330764539 	2.770666697e-07 	0.02084139331 	7.405315536e-07 	3.972948821e-05
0.8525935489 	0.01454810537 	0.007390413058 	3.698812889e-07 	0.02077233436 	7.896709389e-07 	3.959784265e-05
0.8583284008 	0.01466858073 	0.007446532487 	4.492299968e-07 	0.02070255988 	8.357427153e-07 	3.946483312e-05
0.8639376986 	0.01478732721 	0.007499361761 	5.16211821e-07 	0.02063237614 	8.740356309e-07 	3.933104339e-05
0.8694242615 	0.01490489422 	0.007548462985 	5.413782253e-07 	0.02056144047 	8.844784371e-07 	3.919582028e-05
0.8747907151 	0.0150217671 	0.007593791097 	5.181355325e-07 	0.02048952116 	8.636569393e-07 	3.90587221e-05
0.8800396981 	0.01513777143 	0.007636299423 	4.773187931e-07 	0.0204171006 	8.300289042e-07 	3.892066837e-05
0.885173803 	0.01525282973 	0.007676447687 	4.245350605e-07 	0.02034444247 	7.893439206e-07 	3.87821618e-05
0.8901954922 	0.01536698702 	0.007714392326 	3.637005496e-07 	0.02027167024 	7.419942603e-07 	3.86434377e-05
0.8951072341 	0.01548021585 	0.007750326276 	3.038342103e-07 	0.02019896769 	6.900803334e-07 	3.850484642e-05
0.8999114295 	0.01559251222 	0.007784373361 	2.499848572e-07 	0.02012638864 	6.369816815e-07 	3.836649058e-05
0.9046103978 	0.01570388911 	0.007816514551 	2.027239945e-07 	0.02005392564 	5.851861741e-07 	3.822835598e-05
0.9092064384 	0.01581431036 	0.007846742295 	1.609011392e-07 	0.01998160617 	5.353326415e-07 	3.809049496e-05
0.9137017939 	0.01592373548 	0.007875091929 	1.233429719e-07 	0.01990936525 	4.871467668e-07 	3.795278368e-05
0.9180986392 	0.01603209811 	0.007901551802 	8.918692719e-08 	0.01983707233 	4.402431033e-07 	3.781497329e-05
0.9223991208 	0.01613924505 	0.007926097625 	5.792572882e-08 	0.01976463824 	3.943940608e-07 	3.767689379e-05
0.9266053371 	0.01624497852 	0.007948744814 	2.933307488e-08 	0.01969191704 	3.49501948e-07 	3.753826697e-05
0.9307193289 	0.01634907719 	0.007969476506 	3.329841897e-09 	0.01961865511 	3.055773555e-07 	3.739860935e-05
0.9347431008 	0.01645125471 	0.007988252048 	-2.007271167e-08 	0.01954456385 	2.627971784e-07 	3.725737084e-05
0.9386786163 	0.01655118818 	0.008005061179 	-4.079061678e-08 	0.01946925237 	2.21426981e-07 	3.711380622e-05
0.9425277937 	0.0166483873 	0.008020791937 	-5.862766601e-08 	0.01939244864 	1.816388455e-07 	3.696739696e-05
0.9462925056 	0.01673511266 	0.008028445163 	-7.192277189e-08 	0.01931985429 	1.468927805e-07 	3.682901196e-05
0.9487435688 	0.01680343171 	0.008031857885 	-8.179035603e-08 	0.01925933213 	1.198238295e-07 	3.67136399e-05
0.9511038636 	0.01686107289 	0.00803796863 	-8.82301626e-08 	0.01920569816 	9.803997668e-08 	3.661139864e-05
0.9533767396 	0.01691582343 	0.008042592119 	-9.31123201e-08 	0.01915206489 	7.816300899e-08 	3.650915872e-05
0.9555654232 	0.0169676402 	0.008046375858 	-9.643924137e-08 	0.01909843587 	6.021100726e-08 	3.64069269e-05
0.9576730218 	0.01701657292 	0.008049424205 	-9.823318323e-08 	0.01904468422 	4.428962452e-08 	3.630446132e-05
0.9597025296 	0.01706265412 	0.008051845064 	-9.851933375e-08 	0.01899075161 	3.048796806e-08 	3.620165077e-05
0.9616568309 	0.0171059201 	0.00805375729 	-9.732392424e-08 	0.01893660351 	1.887398914e-08 	3.609842944e-05
0.9635387045 	0.01714641759 	0.008055283862 	-9.467700759e-08 	0.01888221088 	9.507165446e-09 	3.599474198e-05
0.9653508267 	0.01718419889 	0.008056550892 	-9.061272618e-08 	0.01882755262 	2.440099658e-09 	3.589054814e-05
0.9670957755 	0.0172193172 	0.008057685167 	-8.516984478e-08 	0.01877261445 	-2.282500451e-09 	3.578582071e-05
0.9687760344 	0.01725182151 	0.00805881141 	-7.839212447e-08 	0.0187173856 	-4.624277896e-09 	3.568053918e-05
0.9703939951 	0.0172817516 	0.008060049481 	-7.032834861e-08 	0.01866185087 	-4.557849661e-09 	3.557467455e-05
0.9719519613 	0.01730912994 	0.008061506848 	-6.103332412e-08 	0.01860598356 	-2.064847303e-09 	3.546817593e-05
0.9734521523 	0.01733394995 	0.008063273509 	-5.056846907e-08 	0.01854973938 	2.864285208e-09 	3.536095889e-05
0.9748967055 	0.01735616405 	0.008065416347 	-3.900146362e-08 	0.01849304196 	1.022959754e-08 	3.525287784e-05
0.9762876798 	0.0173756678 	0.008067967853 	-2.64072155e-08 	0.01843576538 	2.002094579e-08 	3.514369277e-05
0.977627058 	0.01739227782 	0.00807091466 	-1.286853305e-08 	0.01837771428 	3.221725419e-08 	3.503303124e-05
0.9789167501 	0.01740570408 	0.008074182405 	1.522774291e-09 	0.01831859598 	4.678513353e-08 	3.492033532e-05
0.9801585955 	0.01741551348 	0.008077616209 	1.666434995e-08 	0.01825798381 	6.367691559e-08 	3.480479168e-05
0.9813543657 	0.01742108165 	0.008080955206 	3.244115865e-08 	0.01819526877 	8.282797285e-08 	3.468523938e-05
0.9825057671 	0.01742152861 	0.008083798888 	4.872257042e-08 	0.01812959507 	1.041530414e-07 	3.456004707e-05
0.983614443 	0.01741563224 	0.008085562044 	6.535839061e-08 	0.01805977359 	1.275413045e-07 	3.442694791e-05
0.984681976 	0.01740171139 	0.008085413853 	8.217345778e-08 	0.01798416358 	1.528515407e-07 	3.428281422e-05
0.9857098904 	0.01737746466 	0.008082193204 	9.896007328e-08 	0.01790051368 	1.79912071e-07 	3.412335426e-05
0.986699654 	0.01733974489 	0.008074290801 	1.15467966e-07 	0.01780574872 	2.085220579e-07 	3.39427059e-05
0.9876526808 	0.0172842532 	0.008059481813 	1.313903973e-07 	0.01769565814 	2.383793202e-07 	3.373284267e-05
0.988570332 	0.01720514165 	0.008036053419 	1.549709916e-07 	0.01756438896 	2.691574126e-07 	3.348260713e-05
0.9894539191 	0.01709426319 	0.008002660301 	1.577079413e-07 	0.01740353738 	2.981912632e-07 	3.317597931e-05
0.9903047047 	0.01693888284 	0.007935633102 	1.511119026e-07 	0.01719946753 	3.235270543e-07 	3.278696546e-05
0.9911239049 	0.016739743 	0.007833430847 	1.600979667e-07 	0.01695728838 	3.415962468e-07 	3.232530469e-05
0.9916520721 	0.01652216507 	0.007724786909 	1.651215323e-07 	0.01670638186 	3.51906158e-07 	3.184700712e-05
0.9921802566 	0.01627013303 	0.007601226277 	1.667009849e-07 	0.01642602855 	3.551914705e-07 	3.13125758e-05
0.9927084583 	0.01593842532 	0.007440948499 	1.650686164e-07 	0.01606741516 	3.516558936e-07 	3.0628959e-05
0.9932366772 	0.01549685065 	0.007230082194 	1.593790739e-07 	0.01560056492 	3.392638575e-07 	2.973901269e-05
0.9937649133 	0.01490344044 	0.006949550566 	1.482312287e-07 	0.01498374524 	3.155972846e-07 	2.856318294e-05
0.9942931667 	0.01409985769 	0.00657105253 	1.303956305e-07 	0.01415887814 	2.780441173e-07 	2.699075699e-05
0.9948214372 	0.01300695089 	0.006057797799 	1.052771291e-07 	0.01304717488 	2.245336177e-07 	2.48715416e-05
0.995349725 	0.01152424904 	0.005364451748 	7.286364729e-08 	0.01154863512 	1.551950794e-07 	2.201490831e-05
0.99587803 	0.009541579189 	0.004422861916 	3.182034958e-08 	0.009553521873 	7.518473871e-08 	1.821166795e-05
0.9964063522 	0.006992543609 	0.003110027207 	-9.897473033e-09 	0.006995666421 	2.416934853e-09 	1.333568454e-05
0.9969346917 	0.004131024323 	0.001611600238 	-2.525808473e-08 	0.00412968773 	-2.997929547e-08 	7.8723326e-06
0.9974630483 	0.001734133539 	0.0005151365559 	-1.266651018e-08 	0.001732408166 	-1.826454005e-08 	3.302451463e-06
0.9979914222 	0.0004395144027 	7.716832181e-05 	-1.648229629e-09 	0.0004388506263 	-1.97978082e-09 	8.36571266e-07
0.9985198133 	5.077168593e-05 	3.327379331e-06 	1.929755095e-11 	5.068056789e-05 	7.446110765e-10 	9.661124834e-08
0.9990482216 	1.661337691e-06 	1.722827046e-08 	1.246781545e-12 	1.658179207e-06 	9.713148773e-11 	3.160950435e-09
0.9990482216 	1.661337691e-06 	1.722827046e-08 	1.246781545e-12 	1.658179207e-06 	9.713148773e-11 	3.160950435e-09
