0.3810353131 	0.08360250881 	0.0108239662 	-6.172879923e-06
0.3813884705 	0.2863394489 	0.03678776686 	-2.138253881e-05
0.3817416543 	0.568100301 	0.07276162056 	-4.103678018e-05
0.3820948603 	0.837643969 	0.107229179 	-5.837840827e-05
0.3824480844 	1.080111636 	0.1382083231 	-7.226059678e-05
0.3828013223 	1.284398261 	0.1642631682 	-8.236663839e-05
0.3831545698 	1.45191576 	0.1855840036 	-8.938410902e-05
0.3835078228 	1.590493637 	0.2031810866 	-9.408234283e-05
0.3838610772 	1.706884918 	0.217923707 	-9.703151507e-05
0.3842143287 	1.806189458 	0.230467767 	-9.868651659e-05
0.3845675733 	1.892513583 	0.2413408585 	-9.937063551e-05
0.3849208068 	1.968732574 	0.2509128146 	-9.928813631e-05
0.3852740251 	2.036810837 	0.2594366264 	-9.857597929e-05
0.385627224 	2.098233229 	0.2671032734 	-9.733655411e-05
0.3859803996 	2.154159612 	0.2740616616 	-9.564868695e-05
0.3863335476 	2.212321808 	0.2812759244 	-9.385574523e-05
0.3868812478 	2.278586414 	0.2894601985 	-8.973205332e-05
0.3874499978 	2.345948363 	0.2977426537 	-8.498622652e-05
0.3880405847 	2.409080297 	0.3054636158 	-7.939030495e-05
0.3886538221 	2.46856939 	0.3126980167 	-7.296027736e-05
0.38929055 	2.524826479 	0.3194974755 	-6.570474125e-05
0.3899516357 	2.578085359 	0.3258898262 	-5.76259762e-05
0.3906379739 	2.628369696 	0.3318744586 	-4.872978279e-05
0.3913504871 	2.675446415 	0.3374158117 	-3.905497141e-05
0.3920901257 	2.718863992 	0.3424480121 	-2.870311152e-05
0.3928578679 	2.758124916 	0.3468987612 	-1.78366434e-05
0.3936547198 	2.792971821 	0.350731727 	-6.621312709e-06
0.3941306705 	2.810689805 	0.3526063697 	5.150737972e-05
0.3944807552 	2.823766372 	0.3539924544 	-4.710017376e-06
0.3953475702 	2.851130573 	0.3567516789 	-1.625501769e-05
0.3962595561 	2.875117038 	0.3590074268 	-2.82123727e-05
0.3972062093 	2.895479363 	0.3607292956 	-4.02909559e-05
0.3981888309 	2.912265487 	0.3619227735 	-5.244199708e-05
0.3992087697 	2.92577541 	0.3626248679 	-6.466195378e-05
0.4002674244 	2.936408385 	0.362885254 	-7.696930283e-05
0.4013662449 	2.944595403 	0.3627615746 	-8.941532594e-05
0.4025067345 	2.950796622 	0.3623202729 	-0.0001020866377
0.4036904516 	2.955487616 	0.3616266552 	-0.0001150462797
0.4049190122 	2.959077181 	0.3607336492 	-0.000128315974
0.4061940912 	2.961857504 	0.3596804086 	-0.0001418963635
0.4075174253 	2.96402688 	0.3584925148 	-0.0001557695561
0.4088974251 	2.965726487 	0.3571797927 	-0.000169999131
0.4103585888 	2.967045968 	0.3557465663 	-0.0001848649102
0.411874817 	2.968036539 	0.3542086521 	-0.0001999516512
0.4134481514 	2.968742208 	0.3525791294 	-0.0002152482031
0.415080708 	2.969200094 	0.3508622616 	-0.0002307372808
0.4167746803 	2.96944798 	0.3488441394 	-0.0002461816394
0.4193738901 	2.969435291 	0.3462737619 	-0.0002696442296
0.4220281845 	2.969060857 	0.3433894784 	-0.0002917147792
0.4247994043 	2.968367044 	0.3403964729 	-0.0002616917561
0.4276328339 	2.96739318 	0.3373204785 	-0.0002322872909
0.4305258756 	2.966158519 	0.3341925409 	-0.0002034633861
0.4334798118 	2.964626335 	0.3309958523 	-0.0001748144486
0.4365157626 	2.962727165 	0.3276856175 	-0.0001464569656
0.4396642916 	2.96043548 	0.3242548352 	-0.0001184583787
0.4428786391 	2.957794836 	0.3207400835 	-9.129336039e-05
0.4461602362 	2.954864439 	0.3171590376 	-6.493833094e-05
0.4495231813 	2.951676578 	0.3135002543 	-3.928038743e-05
0.4530154029 	2.948262507 	0.3097574633 	-1.392021597e-05
0.4550276535 	2.946236085 	0.3076110701 	-0.0001071061409
0.4565776114 	2.944668834 	0.3059608251 	-1.032880881e-05
0.4602107055 	2.94092802 	0.3021243031 	-3.343206529e-05
0.4639559416 	2.937045385 	0.2982284432 	-5.597031013e-05
0.4678163894 	2.933031496 	0.2942748161 	-7.787856624e-05
0.4717570908 	2.928908235 	0.2902823976 	-9.88434388e-05
0.4757919202 	2.924669382 	0.2862456693 	-0.0001189449262
0.4799729276 	2.920303501 	0.2821512527 	-0.0001384687056
0.4842405501 	2.9158261 	0.2780170942 	-0.0001569492124
0.488605864 	2.911233241 	0.273844009 	-0.0001744458585
0.4931269537 	2.906509702 	0.2696171211 	-0.0001912359647
0.4977415191 	2.901665706 	0.2653507117 	-0.0001880966969
0.5024756562 	2.896697837 	0.2610453767 	-0.0001649408723
0.5073571758 	2.891598107 	0.2566943004 	-0.0001426202984
0.512339608 	2.886369135 	0.2523058132 	-0.0001214357769
0.5174781532 	2.88100407 	0.2478749977 	-0.0001011216852
0.5227415229 	2.875503454 	0.2434058035 	-8.190130039e-05
0.5281366949 	2.869865942 	0.2389012042 	-6.374833689e-05
0.5336897591 	2.864087158 	0.2343586575 	-4.659954319e-05
0.5393628973 	2.858165105 	0.2297823921 	-3.06232446e-05
0.5452145328 	2.852095306 	0.2251694389 	-1.562201453e-05
0.5511874012 	2.845876104 	0.2205245978 	-1.82196974e-06
0.552041361 	2.844992537 	0.2198751725 	-4.144696423e-05
0.5573406867 	2.839498976 	0.2158478994 	-1.087045238e-05
0.5636240519 	2.832965461 	0.21114125 	-2.239089046e-05
0.5700946173 	2.826272742 	0.2064040426 	-3.292334691e-05
0.5767061473 	2.819417154 	0.2016391127 	-4.234117847e-05
0.5835069224 	2.812393163 	0.19684607 	-5.076847073e-05
0.5904632679 	2.80519734 	0.1920276274 	-5.814320436e-05
0.5976026856 	2.797823925 	0.1871848481 	-6.453045645e-05
0.6049171433 	2.790267375 	0.182318921 	-6.994589313e-05
0.6124068726 	2.782520994 	0.1774315723 	-7.440530538e-05
0.6200921811 	2.774574024 	0.1725216708 	-7.797494123e-05
0.6279566857 	2.76642136 	0.1675922751 	-8.066448497e-05
0.6360136361 	2.758052457 	0.162644203 	-8.252331245e-05
0.6442692243 	2.749454752 	0.1576770967 	-8.360512147e-05
0.6527181401 	2.74061899 	0.1526932229 	-8.394696691e-05
0.6613675425 	2.731530052 	0.1476928436 	-8.359887343e-05
0.6702274725 	2.722170002 	0.1426748937 	-8.261983953e-05
0.6792935168 	2.712576531 	0.1376672566 	-8.10756628e-05
0.6883649462 	2.7029014 	0.1327547713 	-7.78374713e-05
0.6972413332 	2.693298277 	0.1280142823 	-7.338934919e-05
0.7059277796 	2.683810159 	0.1234599695 	-6.956312438e-05
0.7144237362 	2.674429939 	0.1190815128 	-6.626046324e-05
0.7227332366 	2.665149143 	0.1148689891 	-6.339752476e-05
0.7308633074 	2.655958675 	0.1108127578 	-6.089931021e-05
0.7388142626 	2.646851916 	0.106904541 	-5.870432627e-05
0.7465897049 	2.637821709 	0.1031364594 	-5.676404013e-05
0.7541959686 	2.628860194 	0.09950093135 	-5.503324801e-05
0.7616339741 	2.619961175 	0.09599114819 	-5.347500381e-05
0.7689081397 	2.611118117 	0.09260082098 	-5.077801079e-05
0.7760226514 	2.602324397 	0.08932392724 	-4.803720885e-05
0.7829796733 	2.59357397 	0.08615483614 	-4.538483297e-05
0.7897841164 	2.584860602 	0.08308842805 	-4.282689539e-05
0.796438081 	2.57617851 	0.08011978954 	-4.036848268e-05
0.80294561 	2.567521891 	0.07724443638 	-3.800996138e-05
0.8093095587 	2.558884987 	0.07445807139 	-3.57544443e-05
0.8155332585 	2.55026215 	0.07175671084 	-3.359954102e-05
0.8216197627 	2.541647725 	0.06913659976 	-3.15463858e-05
0.827572097 	2.533036095 	0.06659420926 	-2.959129657e-05
0.8333932385 	2.524421588 	0.06412622465 	-2.77339513e-05
0.8390860938 	2.51579848 	0.06172950945 	-2.597002535e-05
0.8446534567 	2.50716093 	0.05940112818 	-2.429822402e-05
0.8500981786 	2.498502927 	0.05713826972 	-2.271402614e-05
0.8554228511 	2.489818256 	0.05493834451 	-2.121532967e-05
0.8606302747 	2.481100438 	0.05279880337 	-1.979796881e-05
0.8657228796 	2.472342875 	0.05071736893 	-1.845897671e-05
0.8707033347 	2.463539118 	0.04869172122 	-1.719538646e-05
0.8755740165 	2.454683707 	0.04671971979 	-1.600385385e-05
0.8803373791 	2.445773621 	0.04479913267 	-1.488356371e-05
0.8849957983 	2.436810187 	0.04292743252 	-1.383373894e-05
0.8895515478 	2.4278004 	0.04110188516 	-1.285242577e-05
0.8940069298 	2.418753494 	0.0393203018 	-1.19235025e-05
0.8983641218 	2.409664768 	0.03758214275 	-1.104819568e-05
0.9026252846 	2.400497711 	0.03588546154 	-1.023607697e-05
0.9067925517 	2.391202173 	0.03422801421 	-9.464204331e-06
0.9108679623 	2.381746556 	0.03261020764 	-8.729453728e-06
0.9148535424 	2.372112501 	0.03103140732 	-8.042823999e-06
0.9187512738 	2.362280254 	0.02948966472 	-7.399396658e-06
0.9225630747 	2.352227817 	0.02798361841 	-6.795613534e-06
0.9262908367 	2.341930437 	0.02651209285 	-6.229501173e-06
0.9299364098 	2.331360015 	0.02507392602 	-5.699037572e-06
0.933501593 	2.320484371 	0.02366808681 	-5.202160774e-06
0.9369881536 	2.309266295 	0.0222936356 	-4.737161302e-06
0.9403978207 	2.297662357 	0.020949648 	-4.302349676e-06
0.9437322807 	2.285621398 	0.01963532676 	-3.895947237e-06
0.9469931854 	2.27308257 	0.01834999857 	-3.516453429e-06
0.9501821516 	2.259972781 	0.01709301406 	-3.16246868e-06
0.9533007598 	2.246203354 	0.01586393362 	-2.832617853e-06
0.9563505546 	2.232894101 	0.01476026236 	-2.538274178e-06
0.9583359594 	2.221543608 	0.01388167648 	-2.333841717e-06
0.9602476889 	2.2112138 	0.01312932707 	-2.15527409e-06
0.9620884727 	2.200665565 	0.01240558444 	-1.989023095e-06
0.9638609394 	2.189874665 	0.01170952555 	-1.834212632e-06
0.9655676202 	2.178814545 	0.0110403346 	-1.690021668e-06
0.967210953 	2.167456102 	0.01039722518 	-1.55571507e-06
0.968793286 	2.155767421 	0.009779441592 	-1.430615752e-06
0.9703168801 	2.143713482 	0.009186267495 	-1.314098514e-06
0.9717839131 	2.131255836 	0.008617022989 	-1.2055865e-06
0.9731964818 	2.118352233 	0.008071060922 	-1.104547748e-06
0.9745566058 	2.10495621 	0.007547762799 	-1.010491868e-06
0.9758662299 	2.091016615 	0.007046534256 	-9.229649064e-07
0.9771272267 	2.07647706 	0.006566806018 	-8.41546743e-07
0.9783413998 	2.061275292 	0.006108028999 	-7.658557223e-07
0.979510486 	2.045342448 	0.005669668071 	-6.955382033e-07
0.9806361577 	2.028602185 	0.005251203203 	-6.302664569e-07
0.9817200256 	2.010969628 	0.004852123455 	-5.697619777e-07
0.9827636406 	1.992350104 	0.004471893483 	-5.138449509e-07
0.9837684963 	1.972637583 	0.004109909036 	-4.621661361e-07
0.9847360307 	1.951710292 	0.00376583237 	-4.138784337e-07
0.985667629 	1.929397678 	0.003439638679 	-3.688270795e-07
0.9865646246 	1.905455575 	0.003131178044 	-3.267118563e-07
0.9874283018 	1.879611457 	0.002840491425 	-2.872414149e-07
0.9882598972 	1.851600806 	0.002567564108 	-2.509617906e-07
0.9890606017 	1.821148834 	0.002311818841 	-2.180140357e-07
0.9898315618 	1.787944429 	0.002072453083 	-1.882483465e-07
0.9905738817 	1.751616325 	0.001848619762 	-1.614653933e-07
0.9912886248 	1.711708742 	0.001639447233 	-1.374656804e-07
0.9919768147 	1.667656644 	0.001444039754 	-1.160492657e-07
0.9926394374 	1.622942008 	0.00127598284 	-9.821072931e-08
0.9930666442 	1.582666656 	0.001145788316 	-8.551821073e-08
0.9934938574 	1.54312574 	0.001033910843 	-7.479834928e-08
0.9939210772 	1.498890656 	0.0009243971813 	-6.474188108e-08
0.9943483034 	1.448996682 	0.0008173247509 	-5.535375596e-08
0.9947755362 	1.392194114 	0.0007127588286 	-4.663554383e-08
0.9952027755 	1.326846601 	0.000610785936 	-3.85866279e-08
0.9956300212 	1.250833537 	0.0005116026812 	-3.120783566e-08
0.9960572735 	1.161424948 	0.0004156113279 	-2.45054541e-08
0.9964845323 	1.055021905 	0.0003235336554 	-1.849060594e-08
0.9969117976 	0.9269490083 	0.000236486592 	-1.316872159e-08
0.9973390694 	0.7734710335 	0.0001573565201 	-8.585632137e-09
0.9977663477 	0.596639773 	9.145435706e-05 	-4.903345012e-09
0.9981936325 	0.4045497477 	3.948794227e-05 	-2.108143229e-09
0.9986209238 	0.2046625339 	-1.475985612e-05 	5.329534723e-10
0.9990482216 	0.07462723547 	-3.313611202e-05 	1.372171477e-09
