0.4709558481 	0.06750036473 	2.422175232e-08 	-1.06774963e-12
0.4709558481 	0.06750036473 	2.422175232e-08 	-1.06774963e-12
0.4713069734 	0.2197415021 	3.543431096e-07 	-1.378687376e-11
0.4716580986 	0.4382410024 	1.313920206e-06 	-5.017253376e-11
0.4720092239 	0.6512654737 	2.927496335e-06 	-1.107714961e-10
0.4723603491 	0.8487060462 	5.115990772e-06 	-1.923797145e-10
0.4727114744 	1.019868639 	7.713468207e-06 	-2.887612966e-10
0.4730625996 	1.16155661 	1.056383569e-05 	-3.942607982e-10
0.4734137249 	1.277928619 	1.358678275e-05 	-5.061359824e-10
0.4737648501 	1.374969883 	1.675427679e-05 	-6.234847052e-10
0.4741159754 	1.457248901 	2.004314811e-05 	-7.454291594e-10
0.4744671006 	1.52795131 	2.343422935e-05 	-8.712195206e-10
0.4748182259 	1.589475179 	2.691536409e-05 	-1.000356437e-09
0.4751693511 	1.64363814 	3.047814283e-05 	-1.132469938e-09
0.4755204764 	1.69182494 	3.411607247e-05 	-1.267290138e-09
0.4758716016 	1.735105358 	3.782342482e-05 	-1.404624004e-09
0.4762227269 	1.779480896 	4.212326264e-05 	-1.564032557e-09
0.4767673536 	1.829229387 	4.764362312e-05 	-1.769955367e-09
0.4773330083 	1.878916605 	5.401594286e-05 	-2.010985682e-09
0.4779205028 	1.924762948 	6.078171139e-05 	-2.270306815e-09
0.4785306805 	1.967459789 	6.7961409e-05 	-2.547771134e-09
0.479164417 	2.007511627 	7.557106572e-05 	-2.842324788e-09
0.4798226221 	2.045291985 	8.362913765e-05 	-3.152947244e-09
0.4805062404 	2.081105029 	9.215861862e-05 	-3.480652868e-09
0.4812162531 	2.115201346 	0.000101183342 	-3.826370048e-09
0.4819536793 	2.147789571 	0.0001107284641 	-4.190998459e-09
0.4827195775 	2.179045082 	0.0001208207821 	-4.57552054e-09
0.483515047 	2.209116593 	0.0001314888157 	-4.981025721e-09
0.4843412294 	2.238131219 	0.0001427628637 	-5.40871176e-09
0.4851993106 	2.266198402 	0.0001546750856 	-5.859891416e-09
0.4860905223 	2.293413 	0.0001672595999 	-6.336002564e-09
0.4870161436 	2.319857729 	0.0001805525931 	-6.838618853e-09
0.487977503 	2.345605122 	0.0001945924403 	-7.369460489e-09
0.4889759804 	2.370719102 	0.0002094198395 	-7.930405358e-09
0.4900130089 	2.395256264 	0.0002250779587 	-8.523500093e-09
0.491090077 	2.419266921 	0.0002416126006 	-9.150969179e-09
0.4922087306 	2.44279597 	0.0002590724196 	-9.81522396e-09
0.4933705753 	2.465883597 	0.0002775092453 	-1.051890182e-08
0.4945772787 	2.488565879 	0.0002969782407 	-1.126497458e-08
0.4958305727 	2.510875278 	0.0003175368058 	-1.205670319e-08
0.4971322564 	2.532841062 	0.0003392420325 	-1.28956564e-08
0.4984841978 	2.554491908 	0.0003621781181 	-1.378747909e-08
0.4998883377 	2.575862865 	0.0003864626673 	-1.474346212e-08
0.5013466912 	2.596994758 	0.0004122428328 	-1.577405572e-08
0.5028613516 	2.617923604 	0.0004396702093 	-1.68887855e-08
0.5044344929 	2.638678504 	0.0004688681454 	-1.809506499e-08
0.506068373 	2.661788793 	0.0005038666581 	-1.956284112e-08
0.5085784129 	2.68926691 	0.0005492023025 	-2.148851063e-08
0.5111453651 	2.71806335 	0.0006014099886 	-2.372567804e-08
0.5137705202 	2.745757205 	0.0006566282381 	-2.610365363e-08
0.5164551977 	2.772439377 	0.000714942127 	-2.862364962e-08
0.5192007473 	2.798188891 	0.0007764141828 	-3.128566777e-08
0.5220085492 	2.823066178 	0.0008410656589 	-3.407836133e-08
0.5248800149 	2.847104381 	0.0009088450322 	-3.696869727e-08
0.5278165879 	2.870298216 	0.0009795818461 	-3.989826451e-08
0.5308197445 	2.89259233 	0.00105292793 	-4.279175162e-08
0.5338909942 	2.913875301 	0.001128293783 	-4.557646134e-08
0.5370318812 	2.933990517 	0.00120480307 	-4.820093083e-08
0.5402439843 	2.95277768 	0.001281309686 	-5.06322845e-08
0.5435289183 	2.970152446 	0.00135658036 	-5.282844859e-08
0.5468883345 	2.986215792 	0.001430270553 	-5.487763516e-08
0.5503239217 	3.001205418 	0.001502798896 	-5.689739961e-08
0.5538374071 	3.015283583 	0.001574479012 	-5.884543654e-08
0.5574305568 	3.028487072 	0.001645147996 	-6.069694648e-08
0.5611051773 	3.040813969 	0.001714243613 	-6.243410194e-08
0.5648631156 	3.0522572 	0.001781227387 	-6.398632753e-08
0.5687062611 	3.062806144 	0.001845476724 	-6.528901323e-08
0.5726365456 	3.072449166 	0.001906298906 	-6.628394727e-08
0.576655945 	3.081176615 	0.001962961654 	-6.692239388e-08
0.5807664798 	3.088983976 	0.00201472917 	-6.71701829e-08
0.5849702164 	3.095874911 	0.002060899727 	-6.701115941e-08
0.5892692681 	3.101864763 	0.002100861046 	-6.645901078e-08
0.593665796 	3.106985044 	0.00213416933 	-6.556315897e-08
0.5981620103 	3.11128428 	0.002160593985 	-6.439128468e-08
0.6027601713 	3.114821019 	0.002180086487 	-6.300644587e-08
0.6074625904 	3.117655048 	0.002192713759 	-6.145772183e-08
0.6122716317 	3.119843011 	0.002198612142 	-5.9785035e-08
0.6171897127 	3.121437037 	0.002197965936 	-5.802204232e-08
0.6222193057 	3.122484109 	0.002190990793 	-5.619523956e-08
0.6273629392 	3.12302578 	0.002177918919 	-5.432452562e-08
0.6326231989 	3.123098137 	0.0021589878 	-5.242407431e-08
0.6380027291 	3.122731957 	0.002134432174 	-5.050326757e-08
0.6435042341 	3.121952974 	0.002104478743 	-4.856760474e-08
0.6491304798 	3.120782214 	0.002069343132 	-4.6619529e-08
0.6548842942 	3.119236345 	0.002029228643 	-4.465913628e-08
0.6607685701 	3.117328021 	0.001984326385 	-4.268475754e-08
0.6667862654 	3.115066188 	0.001934816443 	-4.069342246e-08
0.6729404052 	3.112456352 	0.001880869834 	-3.868122017e-08
0.6792340834 	3.109500779 	0.001822651059 	-3.664357606e-08
0.6856704637 	3.106198648 	0.001760321139 	-3.457546323e-08
0.6922527818 	3.102546123 	0.001694041052 	-3.247156579e-08
0.6989843466 	3.098536358 	0.001623975554 	-3.032640877e-08
0.7058685423 	3.094159422 	0.001550297384 	-2.813446746e-08
0.7129088294 	3.089402139 	0.001473191879 	-2.589026721e-08
0.7201087472 	3.084247821 	0.001392862026 	-2.35884839e-08
0.7274719152 	3.078675894 	0.001309534056 	-2.122404629e-08
0.7350020349 	3.072694759 	0.001223931919 	-1.880540535e-08
0.7425321576 	3.066392372 	0.001137854441 	-1.637109326e-08
0.7498953284 	3.059874727 	0.001053124083 	-1.396156627e-08
0.7570952489 	3.053182017 	0.0009705080592 	-1.158986185e-08
0.7641355384 	3.046318682 	0.00089026659 	-9.256799401e-09
0.7710197363 	3.039286951 	0.0008126234967 	-6.963890056e-09
0.7777513032 	3.032087171 	0.0007377706306 	-4.713221527e-09
0.7843336232 	3.024718074 	0.0006658713342 	-2.507353686e-09
0.7907700052 	3.017176996 	0.0005970632065 	-3.492161252e-10
0.7970636849 	3.009460058 	0.0005314603279 	1.757991039e-09
0.8032178261 	3.00156232 	0.0004691550676 	3.810892416e-09
0.8092355226 	2.993477919 	0.0004102195776 	5.806028034e-09
0.8151197995 	2.985200181 	0.0003547070538 	7.739938661e-09
0.8208736149 	2.976721725 	0.000302652829 	9.609244748e-09
0.8264998613 	2.968034552 	0.0002540753517 	1.141071764e-08
0.8320013671 	2.959130129 	0.0002089770913 	1.314134067e-08
0.8373808978 	2.949999458 	0.0001673453778 	1.479835712e-08
0.8426411579 	2.940633139 	0.000129153203 	1.637930735e-08
0.8477847917 	2.931021422 	9.436035805e-05 	1.788206498e-08
0.8528143849 	2.921154257 	6.291552241e-05 	1.930480303e-08
0.857732466 	2.911021325 	3.475558889e-05 	2.064560703e-08
0.8625415073 	2.900612067 	9.788491103e-06 	2.190192034e-08
0.8672439263 	2.889915698 	-1.211794148e-05 	2.307629742e-08
0.8718420871 	2.878902221 	-3.087691889e-05 	2.4168454e-08
0.8763383011 	2.86749977 	-4.622049817e-05 	2.517206281e-08
0.8807348287 	2.855621542 	-5.779576593e-05 	2.608629711e-08
0.8850338799 	2.843208178 	-6.533406279e-05 	2.689089784e-08
0.889237616 	2.830233536 	-6.893380879e-05 	2.754007433e-08
0.8933481502 	2.816693843 	-6.890751215e-05 	2.798811554e-08
0.8973675489 	2.802598958 	-6.567904974e-05 	2.820004795e-08
0.9012978327 	2.787965687 	-5.973180768e-05 	2.815852489e-08
0.9051409774 	2.772813075 	-5.157397662e-05 	2.786517025e-08
0.9088989149 	2.757159425 	-4.171159259e-05 	2.733700007e-08
0.9125735344 	2.741020636 	-3.062820311e-05 	2.660068246e-08
0.9161666832 	2.72440941 	-1.877077406e-05 	2.568733293e-08
0.9196801676 	2.707334989 	-6.541513231e-06 	2.462905562e-08
0.9231157538 	2.689803178 	5.704871278e-06 	2.345671261e-08
0.9264751689 	2.671816521 	1.765921173e-05 	2.219754252e-08
0.9297601017 	2.653374574 	2.905203105e-05 	2.087200135e-08
0.9329722036 	2.63447419 	3.964475969e-05 	1.949132069e-08
0.9361130893 	2.615109687 	4.921985157e-05 	1.805915434e-08
0.9391843379 	2.5952726 	5.757352624e-05 	1.657997098e-08
0.9421874931 	2.574950507 	6.451674773e-05 	1.50724363e-08
0.9451240648 	2.554124179 	6.989014898e-05 	1.357997019e-08
0.9479955291 	2.532762064 	7.359973249e-05 	1.216731456e-08
0.9508033297 	2.510811063 	7.56894402e-05 	1.089450914e-08
0.9535488779 	2.4881826 	7.645805245e-05 	9.771508084e-09
0.956233554 	2.464750613 	7.627300875e-05 	8.772956052e-09
0.9588587076 	2.440379948 	7.543809602e-05 	7.862837997e-09
0.9614256584 	2.414946033 	7.410451852e-05 	7.019610068e-09
0.9639356968 	2.390558301 	7.2429239e-05 	6.306641242e-09
0.9655695775 	2.369935108 	7.075319606e-05 	5.769688374e-09
0.9671427194 	2.351327422 	6.908224249e-05 	5.330348527e-09
0.9686573803 	2.332498181 	6.726942364e-05 	4.924832277e-09
0.9701157342 	2.313429526 	6.533508659e-05 	4.549916499e-09
0.9715198744 	2.294101964 	6.329860113e-05 	4.202730578e-09
0.9728718162 	2.27449418 	6.117827795e-05 	3.880718735e-09
0.9741735001 	2.254582828 	5.899097182e-05 	3.581635779e-09
0.9754267944 	2.234342279 	5.675206799e-05 	3.30351834e-09
0.9766334979 	2.213744332 	5.44755624e-05 	3.044647694e-09
0.9777953427 	2.192757863 	5.217413794e-05 	2.803513202e-09
0.9789139964 	2.171348424 	4.985923874e-05 	2.578779195e-09
0.9799910645 	2.149477751 	4.754114769e-05 	2.369256199e-09
0.981028093 	2.127103194 	4.522906536e-05 	2.173876738e-09
0.9820265703 	2.104177021 	4.293118832e-05 	1.991675524e-09
0.9829879297 	2.080645588 	4.065478535e-05 	1.821773549e-09
0.9839135509 	2.056448327 	3.840627089e-05 	1.663365472e-09
0.9848047624 	2.031516511 	3.61912752e-05 	1.515709706e-09
0.9856628435 	2.005771744 	3.401471111e-05 	1.378120642e-09
0.9864890258 	1.979124079 	3.188083715e-05 	1.249962533e-09
0.987284495 	1.951469673 	2.979331736e-05 	1.130644634e-09
0.988050393 	1.922687829 	2.775527806e-05 	1.019617281e-09
0.988787819 	1.89263723 	2.576936207e-05 	9.163686507e-10
0.9894978315 	1.861151087 	2.383777776e-05 	8.20422286e-10
0.9901814495 	1.828030831 	2.196233682e-05 	7.31335593e-10
0.9908396543 	1.793037792 	2.014450726e-05 	6.486967994e-10
0.9914733905 	1.755882092 	1.838559766e-05 	5.721119142e-10
0.9920835679 	1.716207601 	1.668724514e-05 	5.011826006e-10
0.9926710621 	1.673559179 	1.50481834e-05 	4.357189333e-10
0.9932367165 	1.627309292 	1.346430209e-05 	3.75611419e-10
0.9937813429 	1.580937408 	1.20533216e-05 	3.249889967e-10
0.9941324681 	1.539488828 	1.092375262e-05 	2.866698332e-10
0.9944835934 	1.498990854 	9.928343128e-06 	2.544703258e-10
0.9948347186 	1.453845288 	8.932330361e-06 	2.236588426e-10
0.9951858439 	1.403065531 	7.938245438e-06 	1.942594406e-10
0.9955369691 	1.345390455 	6.948946122e-06 	1.662963056e-10
0.9958880943 	1.279191682 	5.968177878e-06 	1.39804893e-10
0.9962392196 	1.202351167 	5.002011418e-06 	1.148609422e-10
0.9965903448 	1.111966653 	4.058466137e-06 	9.153376884e-11
0.9969414701 	1.004057355 	3.147050733e-06 	6.98815837e-11
0.9972925953 	0.8744235997 	2.284247365e-06 	5.006008462e-11
0.9976437206 	0.7216664108 	1.503675025e-06 	3.257078927e-11
0.9979948458 	0.5503757698 	8.548310335e-07 	1.829562608e-11
0.9983459711 	0.3692264395 	3.821599859e-07 	8.047758426e-12
0.9986970963 	0.1849319055 	1.028032332e-07 	2.089530795e-12
0.9990482216 	0.0681861154 	8.381006556e-09 	1.243792959e-13
