0.3179487347 	0.09230540992 	0.01795897582 	-3.748534418e-06
0.3183477642 	0.3266163014 	0.06312674898 	-1.559917458e-05
0.3187468252 	0.6463225088 	0.1245804253 	-3.41999373e-05
0.3191459099 	0.9471316356 	0.1824619283 	-5.471144562e-05
0.3195450105 	1.209820098 	0.2329449177 	-7.526730674e-05
0.3199441193 	1.425671323 	0.2743354933 	-9.494356161e-05
0.3203432286 	1.601095453 	0.3078895464 	-0.0001138983849
0.3207423307 	1.745292497 	0.3353952019 	-0.0001322173019
0.3211414178 	1.86582118 	0.3583178535 	-0.0001500440837
0.3215404823 	1.969156019 	0.3779088216 	-0.0001677129622
0.3219395166 	2.059728046 	0.3950245769 	-0.000185356166
0.322338513 	2.14020214 	0.4101814323 	-0.000202945718
0.322737464 	2.212397655 	0.4237313581 	-0.0002204403957
0.3231363619 	2.277655327 	0.4359328509 	-0.0002377811429
0.3235351992 	2.336979907 	0.4469786877 	-0.0002548907036
0.3239339683 	2.398267398 	0.4583407032 	-0.0002722984604
0.3245523426 	2.466838043 	0.4709618436 	-0.0002967650136
0.3251943695 	2.534139018 	0.483230035 	-0.0003209015578
0.3258609118 	2.593508219 	0.4938871392 	-0.0003433255051
0.3265528576 	2.644602622 	0.5028547469 	-0.0003636118784
0.3272711207 	2.687584323 	0.5101607073 	-0.0003823932399
0.3280166398 	2.72334799 	0.5159728033 	-0.0004005704727
0.328790379 	2.75287349 	0.5204739081 	-0.0004181105669
0.3295933264 	2.776789478 	0.5237867454 	-0.0004348294734
0.330426494 	2.795676235 	0.5260243669 	-0.0004510892778
0.3312909166 	2.810250448 	0.5273241772 	-0.0004674050421
0.3321876502 	2.821278375 	0.5278396374 	-0.0004843099079
0.3331177711 	2.829560046 	0.5277304631 	-0.0005023044245
0.3340968784 	2.835853733 	0.5271359812 	-0.0005219491783
0.3351288678 	2.840722548 	0.5261648816 	-0.0005432396452
0.3361995527 	2.844543192 	0.5249060284 	-0.0005655599917
0.3373103481 	2.847587543 	0.5234219052 	-0.0005828921387
0.3384627185 	2.850045307 	0.5217506192 	-0.0005498805058
0.3396581797 	2.852043427 	0.51991686 	-0.0005165248983
0.3408983008 	2.853669248 	0.5179371648 	-0.0004827438963
0.3421847056 	2.854984446 	0.5158228559 	-0.0004484967527
0.3435190747 	2.85603364 	0.5135818091 	-0.0004137676634
0.3449031473 	2.856849926 	0.5112193323 	-0.0003785473432
0.3463387234 	2.857458626 	0.5087381548 	-0.0003428234409
0.3478276656 	2.857879655 	0.5061365939 	-0.000306679044
0.3493806174 	2.858125918 	0.5033987788 	-0.0002699515328
0.3510293663 	2.85819497 	0.5005112493 	-0.0002318036826
0.3527389737 	2.85806475 	0.4974861122 	-0.0001931727053
0.354511614 	2.857711674 	0.4943251466 	-0.0001543360145
0.3563495367 	2.857121318 	0.491026693 	-0.0001154317676
0.358255069 	2.856166798 	0.4871886876 	-7.635893323e-05
0.3611759101 	2.854705182 	0.482331913 	-1.938867982e-05
0.3622097425 	2.854024041 	0.4804542509 	-0.0001228159323
0.3641468965 	2.852725011 	0.4769485439 	-3.44868683e-05
0.3672522399 	2.850439494 	0.4714231498 	-8.728328824e-05
0.3704242249 	2.847937855 	0.4658009667 	-0.0001381633299
0.3736590732 	2.845290024 	0.4601328258 	-0.000187064752
0.3769580734 	2.842527497 	0.4544206057 	-0.000233993849
0.380348346 	2.839653134 	0.4486340118 	-0.0002793159551
0.38386912 	2.836671944 	0.4427605417 	-0.0003234592514
0.3874589807 	2.833605706 	0.4368444445 	-0.0003653634069
0.391119375 	2.830466976 	0.430907881 	-0.0003712420154
0.394868194 	2.827234979 	0.4249170409 	-0.0003157664924
0.3987670626 	2.823897549 	0.4188471631 	-0.0002614844264
0.4027418376 	2.820469434 	0.4127402992 	-0.0002096287804
0.4067941598 	2.816955077 	0.4066114705 	-0.000160216396
0.4109726112 	2.813332746 	0.4004255303 	-0.0001126769175
0.4152804221 	2.809599493 	0.3941836185 	-6.715052019e-05
0.4196716934 	2.805768593 	0.387919839 	-2.424755893e-05
0.4223310026 	2.803436505 	0.3841875059 	-0.0001679151186
0.4241590823 	2.801817206 	0.381623608 	-1.590725809e-05
0.4288070214 	2.797726785 	0.3752700339 	-5.382151436e-05
0.4335451144 	2.793525817 	0.3688895143 	-8.914940004e-05
0.4383871492 	2.7892089 	0.3624817303 	-0.0001220280897
0.4434071716 	2.784760183 	0.3560208005 	-0.0001529716667
0.4485243471 	2.780188867 	0.3495347521 	-0.0001812801849
0.4537716951 	2.775491521 	0.3430234492 	-0.0002072226015
0.4591841386 	2.770659808 	0.336476243 	-0.0002309509095
0.4647014119 	2.765695049 	0.3299088629 	-0.0002157207308
0.4703936634 	2.760590863 	0.3233123392 	-0.0001800023904
0.4762199901 	2.755346797 	0.3166952121 	-0.0001468269062
0.4821887613 	2.749961263 	0.3100623851 	-0.0001161085743
0.4883325311 	2.744429776 	0.3034102541 	-8.770153045e-05
0.4946023327 	2.738748867 	0.2967465227 	-6.18183936e-05
0.5010720237 	2.732914636 	0.2900662815 	-3.810386366e-05
0.5076678127 	2.726923668 	0.2833784001 	-1.684162925e-05
0.513608687 	2.721552135 	0.2775269297 	-5.481610909e-05
0.5144679327 	2.720772026 	0.2766798994 	-2.345700785e-06
0.5213977834 	2.714446698 	0.2699709414 	-1.939225163e-05
0.5285358005 	2.707955394 	0.26325663 	-3.451113996e-05
0.5358224586 	2.701293021 	0.2565423384 	-4.758496413e-05
0.5433184023 	2.694453866 	0.2498272377 	-5.884924972e-05
0.550980186 	2.687433423 	0.2431163063 	-6.828495998e-05
0.5588419667 	2.680225352 	0.2364110493 	-7.604536685e-05
0.5668929284 	2.672823147 	0.2297136743 	-8.221792194e-05
0.5751326193 	2.665219086 	0.223026826 	-8.689079244e-05
0.5835861254 	2.657401002 	0.2163486743 	-9.021239416e-05
0.5922320278 	2.649362906 	0.2096841372 	-9.22618601e-05
0.6010863991 	2.64109286 	0.2030342553 	-9.316284788e-05
0.610156463 	2.63257655 	0.1963983542 	-8.775498671e-05
0.6194348514 	2.623803474 	0.189779809 	-7.818255579e-05
0.6289299585 	2.614756561 	0.1831787655 	-6.980608401e-05
0.6386538652 	2.605415541 	0.1765933777 	-6.250725778e-05
0.6486003963 	2.595816263 	0.1700597601 	-5.620844108e-05
0.6585496474 	2.586109548 	0.1636872656 	-5.090265648e-05
0.6682824376 	2.576449465 	0.1575720882 	-4.651894944e-05
0.6778050816 	2.566879818 	0.1517276877 	-4.289302586e-05
0.6871166916 	2.557394714 	0.146136827 	-3.988622752e-05
0.6962220875 	2.547986674 	0.1407831475 	-3.738467121e-05
0.7051298331 	2.538647359 	0.1356509659 	-3.529129622e-05
0.7138400171 	2.529371205 	0.1307268861 	-3.352873569e-05
0.7223567975 	2.520151922 	0.1259983155 	-3.203718454e-05
0.7306877701 	2.510982278 	0.1214532699 	-3.076370684e-05
0.738833703 	2.501856898 	0.1170810771 	-2.966624509e-05
0.7467997124 	2.492769906 	0.1128719582 	-2.871350978e-05
0.7545906522 	2.483715227 	0.1088166394 	-2.787509853e-05
0.7622087886 	2.474687383 	0.1049065409 	-2.71303519e-05
0.7696598439 	2.465680585 	0.1011339009 	-2.646086677e-05
0.7769460131 	2.456689517 	0.09749134959 	-2.585083066e-05
0.7840719025 	2.447708778 	0.09397220037 	-2.528986103e-05
0.7910406583 	2.438732984 	0.09057010615 	-2.476621676e-05
0.7978559875 	2.429756837 	0.08727922591 	-2.427394659e-05
0.8045212853 	2.420774985 	0.08409409852 	-2.380478876e-05
0.8110398796 	2.411782069 	0.08100963063 	-2.335534445e-05
0.817415073 	2.40277261 	0.07802107139 	-2.29198509e-05
0.8236500534 	2.393741026 	0.0751239566 	-2.144213962e-05
0.8297478997 	2.384681581 	0.07231413373 	-1.999953643e-05
0.8357117433 	2.375588368 	0.06958765361 	-1.864863323e-05
0.8415444167 	2.366455271 	0.06694089701 	-1.738463085e-05
0.8472490049 	2.357275865 	0.06437032386 	-1.620147561e-05
0.8528281435 	2.348043412 	0.06187278693 	-1.509434594e-05
0.8582847746 	2.338750705 	0.05944511765 	-1.405855826e-05
0.8636214725 	2.32939007 	0.05708447598 	-1.308906498e-05
0.8688409285 	2.319953339 	0.05478810824 	-1.218217094e-05
0.87394573 	2.310431817 	0.05255334975 	-1.133322513e-05
0.8789383532 	2.300816486 	0.05037783455 	-1.053878123e-05
0.8838213153 	2.291098144 	0.04825910415 	-9.795496141e-06
0.8885969795 	2.281267857 	0.04619491892 	-9.100129498e-06
0.8932677034 	2.271317558 	0.04418305987 	-8.451076772e-06
0.8978358124 	2.261240332 	0.04222106541 	-7.846881056e-06
0.902303521 	2.251029421 	0.04030664415 	-7.283784237e-06
0.9066730387 	2.240672588 	0.03843823818 	-6.755543891e-06
0.9109465224 	2.230138061 	0.03661364208 	-6.262979164e-06
0.9151260573 	2.219378007 	0.03482975553 	-5.803130833e-06
0.9192137044 	2.208353812 	0.03308532399 	-5.367872943e-06
0.9232114777 	2.197038637 	0.03137966065 	-4.957578828e-06
0.927121333 	2.185404727 	0.02971118542 	-4.572645766e-06
0.9309451957 	2.17342005 	0.02807851247 	-4.211260605e-06
0.9346849485 	2.161047294 	0.02648037992 	-3.872123364e-06
0.9383424262 	2.148242659 	0.02491564789 	-3.553971775e-06
0.9419194277 	2.134954315 	0.02338326201 	-3.25567669e-06
0.9454177141 	2.121120454 	0.02188214567 	-2.976113267e-06
0.9488390069 	2.106666742 	0.02041139587 	-2.714111451e-06
0.9521849878 	2.092779801 	0.01908741703 	-2.477755283e-06
0.9543633048 	2.081010155 	0.01803091878 	-2.313659448e-06
0.9564608598 	2.070360258 	0.0171239266 	-2.16857484e-06
0.9584806397 	2.059550046 	0.01624924205 	-2.032457748e-06
0.9604255213 	2.048562099 	0.01540567221 	-1.904600837e-06
0.9622982752 	2.037377193 	0.01459215901 	-1.784355698e-06
0.9641015702 	2.025974074 	0.01380769852 	-1.671157193e-06
0.9658379768 	2.01432921 	0.01305133109 	-1.564489691e-06
0.9675099711 	2.002416499 	0.01232215099 	-1.463880341e-06
0.9691199376 	1.990206941 	0.01161930496 	-1.368895985e-06
0.9706701729 	1.977668248 	0.0109419894 	-1.279139911e-06
0.9721628889 	1.964764403 	0.01028944706 	-1.194248709e-06
0.9736002158 	1.951455144 	0.009660963286 	-1.113887396e-06
0.9749842053 	1.937695352 	0.00905586918 	-1.037746917e-06
0.9763168332 	1.923434338 	0.008473537873 	-9.655502095e-07
0.9776000025 	1.908615001 	0.007913378588 	-8.970450877e-07
0.978835546 	1.893172815 	0.007374837976 	-8.320028946e-07
0.9800252286 	1.877034625 	0.006857397733 	-7.702175458e-07
0.9811707501 	1.860117176 	0.006360572055 	-7.115047491e-07
0.9822737474 	1.842325337 	0.005883905282 	-6.557003106e-07
0.9833357971 	1.823549898 	0.005426970482 	-6.026565572e-07
0.9843584172 	1.803664844 	0.004989368983 	-5.522471081e-07
0.9853430698 	1.782523922 	0.004570718256 	-5.04408385e-07
0.9862911628 	1.759956295 	0.004170600794 	-4.591768732e-07
0.987204052 	1.735760954 	0.003788588409 	-4.160029677e-07
0.9880830431 	1.709686049 	0.00342472364 	-3.745707544e-07
0.9889293935 	1.681370694 	0.003079081974 	-3.35251322e-07
0.9897443141 	1.650326388 	0.002751558974 	-2.973720772e-07
0.9905289707 	1.616000824 	0.00244233172 	-2.607993494e-07
0.9912844862 	1.577790161 	0.002151283057 	-2.263620249e-07
0.992011942 	1.538663116 	0.001899649262 	-1.964603836e-07
0.9924809525 	1.503144743 	0.001704090256 	-1.742220442e-07
0.9929499737 	1.468031372 	0.001535817063 	-1.549669723e-07
0.9934190056 	1.428481309 	0.001371049744 	-1.363938785e-07
0.9938880481 	1.383557872 	0.001210094827 	-1.185732882e-07
0.9943571014 	1.332048587 	0.001053255407 	-1.015800394e-07
0.9948261653 	1.272360487 	0.0009008668463 	-8.549196681e-08
0.9952952399 	1.202404866 	0.0007533912227 	-7.038528106e-08
0.9957643252 	1.119465316 	0.0006115457421 	-5.634283021e-08
0.9962334212 	1.019976156 	0.000476411477 	-4.344943256e-08
0.9967025279 	0.8992129354 	0.0003493823896 	-3.174435714e-08
0.9971716453 	0.7529842179 	0.0002338573051 	-2.129074202e-08
0.9976407733 	0.5826689138 	0.0001368285961 	-1.246570126e-08
0.998109912 	0.3960973956 	6.010052823e-05 	-5.669968761e-09
0.9985790615 	0.2008413077 	-1.650047282e-05 	-4.334825405e-10
0.9990482216 	0.07339408509 	-4.27077194e-05 	1.363421679e-09
