0.4709558481 	5.079746806e-06 	-6.072972772e-08 	1.00087244e-12 	5.070081469e-06 	-5.99253129e-11 	9.664984436e-09
0.4713069734 	0.0001245408135 	-7.958022544e-06 	1.302744522e-10 	0.0001243037242 	-1.468300139e-09 	2.369574467e-07
0.4716580986 	0.0009098611968 	-0.0001472014959 	2.309798294e-09 	0.0009081259669 	-1.060795464e-08 	1.731140494e-06
0.4720092239 	0.003325484504 	-0.0009157217682 	1.287826488e-08 	0.003319121227 	-3.687799134e-08 	6.327167561e-06
0.4723603491 	0.007748153966 	-0.002860054735 	3.404771961e-08 	0.007733261976 	-7.754508888e-08 	1.474174668e-05
0.4727114744 	0.0132129119 	-0.005651032673 	5.551515929e-08 	0.01318738641 	-1.155984903e-07 	2.513882375e-05
0.4730625996 	0.01836726946 	-0.00838146826 	6.879830844e-08 	0.0183315872 	-1.405847211e-07 	3.49451002e-05
0.4734137249 	0.02259280532 	-0.01049373043 	7.383637771e-08 	0.02254865808 	-1.547073315e-07 	4.298400937e-05
0.4737648501 	0.02590206034 	-0.01203264805 	7.582149872e-08 	0.02585113446 	-1.627429653e-07 	4.927944723e-05
0.4741159754 	0.02847867408 	-0.01322969379 	7.800753556e-08 	0.02842230465 	-1.673685851e-07 	5.418081223e-05
0.4744671006 	0.03048711991 	-0.0141627454 	7.912407851e-08 	0.03042633541 	-1.697197959e-07 	5.800105185e-05
0.4748182259 	0.03206383383 	-0.01489493209 	7.957066499e-08 	0.03199940899 	-1.706433088e-07 	6.099976732e-05
0.4751693511 	0.03331422574 	-0.01547548251 	7.960431303e-08 	0.03324673986 	-1.70652022e-07 	6.337752662e-05
0.4755204764 	0.03431709442 	-0.01594115719 	7.935141052e-08 	0.03424698183 	-1.700446349e-07 	6.528426583e-05
0.4758716016 	0.03513076668 	-0.01631896469 	7.889376183e-08 	0.03505835558 	-1.689957246e-07 	6.683096969e-05
0.4762227269 	0.0358815896 	-0.01666755334 	7.818279245e-08 	0.03580686681 	-1.673920772e-07 	6.825784013e-05
0.4767673536 	0.03662272723 	-0.01701158232 	7.704740277e-08 	0.03654544172 	-1.648544577e-07 	6.966576919e-05
0.4773330083 	0.03725510749 	-0.0173045763 	7.645932592e-08 	0.03717526991 	-1.614237023e-07 	7.086639677e-05
0.4779205028 	0.03774578137 	-0.01751560753 	7.543099396e-08 	0.03766358524 	-1.573616016e-07 	7.179726152e-05
0.4785306805 	0.03812524528 	-0.01766824989 	7.338084358e-08 	0.03804082337 	-1.527623273e-07 	7.251638224e-05
0.479164417 	0.038414817 	-0.01778939235 	7.145267418e-08 	0.03832824404 	-1.477039471e-07 	7.306428592e-05
0.4798226221 	0.03862942354 	-0.01787830264 	6.93207431e-08 	0.03854074261 	-1.421909511e-07 	7.346936726e-05
0.4805062404 	0.03878056915 	-0.01794016479 	6.698554025e-08 	0.03868979838 	-1.362244892e-07 	7.375350898e-05
0.4812162531 	0.03887721693 	-0.01797894237 	6.444552016e-08 	0.03878435531 	-1.298029366e-07 	7.393376077e-05
0.4819536793 	0.03892641889 	-0.01799769847 	6.169741002e-08 	0.03883144951 	-1.229219435e-07 	7.40235354e-05
0.4827195775 	0.03893377096 	-0.01799882097 	5.873637826e-08 	0.03883666362 	-1.155746837e-07 	7.403347496e-05
0.483515047 	0.03890374611 	-0.01798418378 	5.555610744e-08 	0.03880445941 	-1.077520735e-07 	7.397208478e-05
0.4843412294 	0.03883994121 	-0.01795526405 	5.214879538e-08 	0.03873842418 	-9.944294348e-08 	7.384620327e-05
0.4851993106 	0.03874526219 	-0.01791322844 	4.850509682e-08 	0.03864145566 	-9.063417602e-08 	7.366135432e-05
0.4860905223 	0.03862206462 	-0.01785899759 	4.46140104e-08 	0.03851590231 	-8.131082408e-08 	7.342201475e-05
0.4870161436 	0.03847226158 	-0.01779329471 	4.046271237e-08 	0.03836367101 	-7.145622322e-08 	7.313181957e-05
0.487977503 	0.03829740734 	-0.01771668263 	3.603633584e-08 	0.03818631062 	-6.105211441e-08 	7.279372138e-05
0.4889759804 	0.03809876312 	-0.01762959239 	3.131769605e-08 	0.03798507765 	-5.007880093e-08 	7.241011541e-05
0.4900130089 	0.03787734921 	-0.01753234539 	2.628696636e-08 	0.03776098832 	-3.851537137e-08 	7.198293886e-05
0.491090077 	0.03763398693 	-0.01742517068 	2.092131603e-08 	0.03751486041 	-2.634003055e-08 	7.151375067e-05
0.4922087306 	0.03736933276 	-0.01730821862 	1.519453093e-08 	0.03724734743 	-1.353057187e-08 	7.100379657e-05
0.4933705753 	0.03708390659 	-0.01718157161 	9.076650257e-09 	0.03695896665 	-6.496593685e-11 	7.045406265e-05
0.4945772787 	0.0367781155 	-0.01704525263 	2.533666206e-09 	0.03665012286 	1.407789059e-08 	6.986532055e-05
0.4958305727 	0.03645227367 	-0.01689923191 	-4.472644641e-09 	0.03632112946 	2.891648627e-08 	6.923816768e-05
0.4971322564 	0.03610661895 	-0.01674343227 	-1.198467007e-08 	0.03597222879 	4.446054884e-08 	6.857306604e-05
0.4984841978 	0.03574133752 	-0.01657970248 	-1.598350099e-08 	0.0356035909 	6.072767951e-08 	6.787033976e-05
0.4998883377 	0.03535641251 	-0.01640577371 	-2.702492539e-08 	0.03521514764 	7.809041254e-08 	6.712985894e-05
0.5013466912 	0.03495141875 	-0.01621821138 	-4.25485611e-08 	0.03480641039 	9.719696686e-08 	6.635069215e-05
0.5028613516 	0.03452551716 	-0.01601919246 	-5.224263344e-08 	0.03437653254 	1.18431802e-07 	6.553122548e-05
0.5044344929 	0.03407752224 	-0.01580985963 	-6.298352353e-08 	0.03392440029 	1.419191127e-07 	6.466933576e-05
0.506068373 	0.03354697626 	-0.01556199327 	-7.632465191e-08 	0.03338912824 	1.709951268e-07 	6.364895846e-05
0.5085784129 	0.03286851677 	-0.01524507499 	-9.418910708e-08 	0.0327048591 	2.098160295e-07 	6.234455129e-05
0.5111453651 	0.03209760629 	-0.01488502919 	-1.153889721e-07 	0.03192761373 	2.557996693e-07 	6.086290559e-05
0.5137705202 	0.03129337048 	-0.01450949575 	-1.383926168e-07 	0.03111711391 	3.056378922e-07 	5.931786766e-05
0.5164551977 	0.03045550797 	-0.01411835347 	-1.632260968e-07 	0.03027313568 	3.593846819e-07 	5.770901058e-05
0.5192007473 	0.02958347558 	-0.01371137011 	-1.899082123e-07 	0.02939522306 	4.170501782e-07 	5.603546514e-05
0.5220085492 	0.02867668434 	-0.01328829153 	-2.183724704e-07 	0.02848287171 	4.784565854e-07 	5.429626988e-05
0.5248800149 	0.02773503538 	-0.01284908985 	-2.483472079e-07 	0.02753606249 	5.430060658e-07 	5.249138836e-05
0.5278165879 	0.02675986692 	-0.01239440208 	-2.791842106e-07 	0.0265562035 	6.093258362e-07 	5.062350478e-05
0.5308197445 	0.02575530035 	-0.01192615438 	-3.096638598e-07 	0.02554747106 	6.748428187e-07 	4.87005804e-05
0.5338909942 	0.02472971589 	-0.01144824793 	-3.378905417e-07 	0.02451828522 	7.355270856e-07 	4.673866614e-05
0.5370318812 	0.02369665403 	-0.01096698122 	-3.614567456e-07 	0.02348222448 	7.861811755e-07 	4.476364641e-05
0.5402439843 	0.02267393609 	-0.01049064998 	-3.781918798e-07 	0.02245717655 	8.219684829e-07 	4.280962015e-05
0.5435289183 	0.02167948689 	-0.01002759877 	-3.877527444e-07 	0.02146105463 	8.419824405e-07 	4.091073491e-05
0.5468883345 	0.02072320608 	-0.009553023192 	-4.403238789e-07 	0.02050414616 	8.527484054e-07 	3.908660141e-05
0.5503239217 	0.01980371158 	-0.009033253802 	-4.827995072e-07 	0.01958582581 	8.60576766e-07 	3.733602758e-05
0.5538374071 	0.01891810634 	-0.00850494275 	-4.871115217e-07 	0.01870277611 	8.630892872e-07 	3.565268943e-05
0.5574305568 	0.01806882471 	-0.007991397972 	-5.091246407e-07 	0.01785694008 	8.571264647e-07 	3.404029088e-05
0.5611051773 	0.01726018555 	-0.007475010767 	-5.297982089e-07 	0.01705280754 	8.427584041e-07 	3.250739076e-05
0.5648631156 	0.01649611534 	-0.006957369578 	-5.487279184e-07 	0.0162942817 	8.199331379e-07 	3.106142969e-05
0.5687062611 	0.01578017158 	-0.006440157789 	-5.654129101e-07 	0.01558500595 	7.887126809e-07 	2.970935297e-05
0.5726365456 	0.01511551321 	-0.005925211004 	-5.793375298e-07 	0.0149282038 	7.493131197e-07 	2.845730553e-05
0.576655945 	0.01450480168 	-0.005414473736 	-5.900161523e-07 	0.01432657916 	7.021791984e-07 	2.731044174e-05
0.5807664798 	0.01395009504 	-0.00490994651 	-5.970441838e-07 	0.01378221441 	6.480015801e-07 	2.627273123e-05
0.5849702164 	0.01345278355 	-0.004413680026 	-5.999008413e-07 	0.01329650664 	5.876906515e-07 	2.534683722e-05
0.5892692681 	0.01301368418 	-0.003927918446 	-5.982699038e-07 	0.01287024821 	5.22024804e-07 	2.45342702e-05
0.593665796 	0.01263354061 	-0.003453896835 	-5.938543824e-07 	0.01250413484 	4.51411609e-07 	2.383635635e-05
0.5981620103 	0.01231262161 	-0.002991222253 	-5.878074985e-07 	0.01219836907 	3.776899542e-07 	2.325348181e-05
0.6027601713 	0.01204914014 	-0.002539966358 	-5.789667625e-07 	0.01195103806 	3.044067549e-07 	2.278200017e-05
0.6074625904 	0.01183922515 	-0.002100987995 	-5.673421927e-07 	0.01175809989 	2.341400965e-07 	2.241420639e-05
0.6122716317 	0.01167830701 	-0.001674596718 	-5.538508294e-07 	0.01161481748 	1.68063485e-07 	2.214107029e-05
0.6171897127 	0.01156184551 	-0.00126059912 	-5.389232749e-07 	0.01151648935 	1.068948171e-07 	2.195362953e-05
0.6222193057 	0.01148549068 	-0.0008586489502 	-5.228674524e-07 	0.01145860691 	5.105938893e-08 	2.184328953e-05
0.6273629392 	0.01144517674 	-0.0004683001098 	-5.059378254e-07 	0.0114369516 	7.479587884e-10 	2.180200848e-05
0.6326231989 	0.01143717981 	-8.90398075e-05 	-4.883363511e-07 	0.01144765343 	-4.402416089e-08 	2.182240915e-05
0.6380027291 	0.01145814569 	0.0002796847687 	-4.70216326e-07 	0.01148721934 	-8.336423994e-08 	2.189783277e-05
0.6435042341 	0.01150509546 	0.0006384461597 	-4.516878786e-07 	0.01155253883 	-1.174578146e-07 	2.202234988e-05
0.6491304798 	0.01157541587 	0.000987822242 	-4.328241466e-07 	0.0116408741 	-1.465336554e-07 	2.219074145e-05
0.6548842942 	0.01166684046 	0.001328387039 	-4.136674671e-07 	0.01174984065 	-1.708374976e-07 	2.239846199e-05
0.6607685701 	0.01177742617 	0.001660705971 	-3.94235154e-07 	0.01187738309 	-1.906133172e-07 	2.264159332e-05
0.6667862654 	0.01190552882 	0.001985334788 	-3.745246324e-07 	0.01202174964 	-2.060906963e-07 	2.291679608e-05
0.6729404052 	0.01204977991 	0.002302821547 	-3.545178406e-07 	0.01218146786 	-2.17476859e-07 	2.32212634e-05
0.6792340834 	0.01220906646 	0.002613711044 	-3.341849145e-07 	0.01235532332 	-2.249521378e-07 	2.355268023e-05
0.6856704637 	0.01238251475 	0.002918551325 	-3.13487224e-07 	0.01254234218 	-2.286678624e-07 	2.390919015e-05
0.6922527818 	0.01256947886 	0.003217901922 	-2.923798697e-07 	0.01274177855 	-2.287458974e-07 	2.428937131e-05
0.6989843466 	0.01276953427 	0.003512343664 	-2.708137617e-07 	0.01295310703 	-2.252792592e-07 	2.469222213e-05
0.7058685423 	0.01298247693 	0.003802489932 	-2.48737403e-07 	0.01317602082 	-2.183334263e-07 	2.511715777e-05
0.7129088294 	0.01320832796 	0.004088999356 	-2.260985001e-07 	0.01341043571 	-2.079480911e-07 	2.55640177e-05
0.7201087472 	0.01344734447 	0.004372589989 	-2.028455172e-07 	0.01365650043 	-1.941391766e-07 	2.603308544e-05
0.7274719152 	0.01370003717 	0.004654054981 	-1.789293837e-07 	0.01391461308 	-1.769010248e-07 	2.65251199e-05
0.7350020349 	0.01396572569 	0.004932745458 	-1.544389502e-07 	0.01418396451 	-1.563289708e-07 	2.703857858e-05
0.7425321576 	0.01424048633 	0.005204986713 	-1.297715867e-07 	0.01446053153 	-1.328623615e-07 	2.756579219e-05
0.7498953284 	0.01452002091 	0.005467587935 	-1.053449345e-07 	0.01474004223 	-1.07113077e-07 	2.809861728e-05
0.7570952489 	0.01480311871 	0.005720722614 	-8.129557885e-08 	0.01502140652 	-7.948821067e-08 	2.863497581e-05
0.7641355384 	0.01509013533 	0.005965833007 	-5.7635467e-08 	0.01530511455 	-5.024274434e-08 	2.917580218e-05
0.7710197363 	0.01538150203 	0.006204202387 	-3.438369027e-08 	0.01559172937 	-1.960684029e-08 	2.972216968e-05
0.7777513032 	0.01567769918 	0.006436972897 	-1.156503633e-08 	0.01588186166 	1.220775218e-08 	3.027524245e-05
0.7843336232 	0.01597923598 	0.006665160052 	1.079121072e-08 	0.01617614955 	4.500276908e-08 	3.083623697e-05
0.7907700052 	0.01628663445 	0.006889664684 	3.265236802e-08 	0.01647524256 	7.858954603e-08 	3.140639138e-05
0.7970636849 	0.01660041676 	0.007111282928 	5.398341583e-08 	0.01677978863 	1.127859175e-07 	3.198694084e-05
0.8032178261 	0.01692109499 	0.007330714673 	7.474808233e-08 	0.01709042357 	1.474137633e-07 	3.257909737e-05
0.8092355226 	0.01724916286 	0.007548570855 	9.490996548e-08 	0.01740776226 	1.822971464e-07 	3.318403311e-05
0.8151197995 	0.01758508897 	0.00776537983 	1.144335858e-07 	0.01773239135 	2.172610744e-07 	3.380286637e-05
0.8208736149 	0.01792931127 	0.007981593064 	1.332850211e-07 	0.01806486308 	2.521310154e-07 	3.443664989e-05
0.8264998613 	0.01828223253 	0.008197590277 	1.514313719e-07 	0.01840569018 	2.867334182e-07 	3.508636108e-05
0.8320013671 	0.01864421669 	0.008413684149 	1.688377407e-07 	0.01875534173 	3.208973514e-07 	3.575289412e-05
0.8373808978 	0.01901558593 	0.008630124578 	1.854597428e-07 	0.01911423992 	3.544563971e-07 	3.643705381e-05
0.8426411579 	0.01939661858 	0.008847102415 	2.012289354e-07 	0.01948275747 	3.872498626e-07 	3.713955069e-05
0.8477847917 	0.0197875476 	0.009064752406 	2.160285991e-07 	0.01986121626 	4.191339861e-07 	3.786099832e-05
0.8528143849 	0.02018855748 	0.00928315524 	2.296602575e-07 	0.02024989109 	4.500273674e-07 	3.860192058e-05
0.857732466 	0.02059977752 	0.009502338689 	2.418080484e-07 	0.02064902324 	4.799159593e-07 	3.936277739e-05
0.8625415073 	0.02102130728 	0.009722382261 	2.551011168e-07 	0.02105877233 	5.079253865e-07 	4.014387304e-05
0.8672439263 	0.02145335038 	0.009957012649 	2.70785701e-07 	0.02147909172 	5.32984123e-07 	4.094511862e-05
0.8718420871 	0.02189738587 	0.01018496782 	2.736583483e-07 	0.02191053158 	5.564066173e-07 	4.176756291e-05
0.8763383011 	0.02235608784 	0.0103953908 	2.741772843e-07 	0.02235528522 	5.808219945e-07 	4.261538697e-05
0.8807348287 	0.02283056475 	0.01061266674 	2.850365074e-07 	0.02281523236 	6.058803222e-07 	4.349217404e-05
0.8850338799 	0.02331943609 	0.01083675236 	2.943982617e-07 	0.02329010861 	6.282059038e-07 	4.439742017e-05
0.889237616 	0.02381997433 	0.01106657022 	3.014979447e-07 	0.0237780187 	6.452035412e-07 	4.532751241e-05
0.8933481502 	0.02432881031 	0.01130064494 	3.058989874e-07 	0.02427597678 	6.560676818e-07 	4.627675891e-05
0.8973675489 	0.02484235984 	0.01153733375 	3.074597587e-07 	0.02478048898 	6.60743073e-07 	4.723849939e-05
0.9012978327 	0.02535711218 	0.01177499086 	3.062478552e-07 	0.02528797741 	6.594361346e-07 	4.820591338e-05
0.9051409774 	0.02586981214 	0.01201207241 	3.024614226e-07 	0.02579504947 	6.525183087e-07 	4.917253365e-05
0.9088989149 	0.02637755652 	0.01224719229 	2.963741108e-07 	0.02629864105 	6.405131092e-07 	5.013251917e-05
0.9125735344 	0.02687782642 	0.0124791421 	2.882984148e-07 	0.02679606973 	6.24061092e-07 	5.108075649e-05
0.9161666832 	0.02736847695 	0.01270688847 	2.785597958e-07 	0.02728503342 	6.03865735e-07 	5.201285718e-05
0.9196801676 	0.02784770387 	0.01292955904 	2.674782129e-07 	0.02776358276 	5.806405297e-07 	5.292510523e-05
0.9231157538 	0.02831400351 	0.01314642501 	2.553571808e-07 	0.02823008585 	5.550672642e-07 	5.381438977e-05
0.9264751689 	0.02876613845 	0.01335688572 	2.424814587e-07 	0.02868319617 	5.277699892e-07 	5.467814398e-05
0.9297601017 	0.02920311786 	0.0135604591 	2.291229601e-07 	0.02912183086 	4.993143201e-07 	5.551430362e-05
0.9329722036 	0.02962419813 	0.01375678035 	2.15551023e-07 	0.02954516449 	4.702462956e-07 	5.632129518e-05
0.9361130893 	0.03002890522 	0.01394561022 	2.020399642e-07 	0.02995264238 	4.411714928e-07 	5.709806128e-05
0.9391843379 	0.03041707559 	0.01412685197 	1.888677156e-07 	0.03034401301 	4.128314685e-07 	5.784412247e-05
0.9421874931 	0.03078890978 	0.01430057309 	1.763064099e-07 	0.0307193678 	3.860569439e-07 	5.855965304e-05
0.9451240648 	0.03114503009 	0.01446702282 	1.646133199e-07 	0.0310791551 	3.614091045e-07 	5.924550762e-05
0.9479955291 	0.03148652141 	0.01462662956 	1.540227103e-07 	0.0314241184 	3.385145215e-07 	5.990310355e-05
0.9508033297 	0.03181484263 	0.01477955178 	1.330836074e-07 	0.03175520816 	3.169666922e-07 	6.053425266e-05
0.9535488779 	0.0321313498 	0.01491452993 	1.106732687e-07 	0.03207344765 	2.975067012e-07 	6.114090558e-05
0.956233554 	0.03243665346 	0.01503831982 	1.064933005e-07 	0.03237962982 	2.806922443e-07 	6.17245739e-05
0.9588587076 	0.03273016463 	0.0151623738 	1.054458881e-07 	0.03267360878 	2.655574551e-07 	6.228497949e-05
0.9614256584 	0.0330105733 	0.01528155546 	9.871043175e-08 	0.03295432579 	2.506747657e-07 	6.282010413e-05
0.9639356968 	0.03325509557 	0.01537566898 	9.238190427e-08 	0.03319902498 	2.368624627e-07 	6.328656879e-05
0.9655695775 	0.03344387637 	0.01544483088 	8.729786072e-08 	0.0333878625 	2.256521961e-07 	6.36465456e-05
0.9671427194 	0.03360078947 	0.01550906289 	8.307019422e-08 	0.03354475679 	2.15979985e-07 	6.394562972e-05
0.9686573803 	0.0337467652 	0.01556753696 	7.907041816e-08 	0.03369065973 	2.066531896e-07 	6.422376128e-05
0.9701157342 	0.03388172792 	0.01562126851 	7.532792039e-08 	0.03382550293 	1.976909234e-07 	6.44808099e-05
0.9715198744 	0.0340055667 	0.01567028637 	7.18426059e-08 	0.03394918016 	1.89107407e-07 	6.471657306e-05
0.9728718162 	0.03411812741 	0.01571459393 	6.860732634e-08 	0.03406154247 	1.809107891e-07 	6.493076686e-05
0.9741735001 	0.03421920509 	0.01575416636 	6.561062763e-08 	0.03416239038 	1.731031868e-07 	6.5123011e-05
0.9754267944 	0.03430853525 	0.0157889478 	6.283861089e-08 	0.03425146485 	1.656819158e-07 	6.52928117e-05
0.9766334979 	0.03438578377 	0.01581884785 	6.027623293e-08 	0.03432843716 	1.586406573e-07 	6.543954232e-05
0.9777953427 	0.03445053501 	0.0158437372 	5.790818151e-08 	0.03439289702 	1.519703678e-07 	6.556242074e-05
0.9789139964 	0.03450227766 	0.01586344225 	5.571943889e-08 	0.0344443385 	1.456599985e-07 	6.566048249e-05
0.9799910645 	0.0345403878 	0.01587773838 	5.369562328e-08 	0.03448214304 	1.396970615e-07 	6.573254846e-05
0.981028093 	0.03456410832 	0.0158863416 	5.182317708e-08 	0.03450555898 	1.340680661e-07 	6.577718574e-05
0.9820265703 	0.03457252374 	0.01588889799 	5.008945154e-08 	0.03451367634 	1.287588444e-07 	6.579265968e-05
0.9829879297 	0.03456452906 	0.01588497054 	4.848272375e-08 	0.03450539578 	1.237547853e-07 	6.577687463e-05
0.9839135509 	0.03453879095 	0.01587402233 	4.699217052e-08 	0.03447938984 	1.190409921e-07 	6.572730009e-05
0.9848047624 	0.03449369892 	0.01585539517 	4.560781669e-08 	0.03443405425 	1.146023752e-07 	6.564087785e-05
0.9856628435 	0.0344273034 	0.01582828209 	4.432046884e-08 	0.03436744605 	1.104236851e-07 	6.55139041e-05
0.9864890258 	0.03433723639 	0.01579169159 	4.312164044e-08 	0.03427720448 	1.064894864e-07 	6.534187859e-05
0.987284495 	0.03422060893 	0.01574440086 	4.200347287e-08 	0.0341604486 	1.027840666e-07 	6.511930944e-05
0.988050393 	0.03407387712 	0.0156848938 	4.095865279e-08 	0.0340136436 	9.929126358e-08 	6.483945831e-05
0.988787819 	0.03389266534 	0.015611278 	3.998032381e-08 	0.03383242438 	9.599418324e-08 	6.44940041e-05
0.9894978315 	0.03367153033 	0.0155211721 	3.906198802e-08 	0.03361136003 	9.287475388e-08 	6.407259402e-05
0.9901814495 	0.03340364257 	0.01541155089 	3.819738628e-08 	0.03334363594 	8.991303437e-08 	6.356223749e-05
0.9908396543 	0.03308035107 	0.01527852915 	3.738033929e-08 	0.03302061926 	8.708613132e-08 	6.294647791e-05
0.9914733905 	0.0326905814 	0.01511705561 	3.660446893e-08 	0.03263125802 	8.436643949e-08 	6.220424717e-05
0.9920835679 	0.03221999266 	0.01492239235 	3.538664169e-08 	0.03216124087 	8.171840123e-08 	6.130826386e-05
0.9926710621 	0.03164931276 	0.01468711259 	3.540909704e-08 	0.03159133579 	7.921073306e-08 	6.022186637e-05
0.9932367165 	0.03095058778 	0.01437877727 	3.576362405e-08 	0.0308936417 	7.69150284e-08 	5.889186752e-05
0.9937813429 	0.03016261051 	0.01401265891 	3.486763579e-08 	0.03010690096 	7.497390991e-08 	5.739212102e-05
0.9941324681 	0.0293850311 	0.01365138915 	3.417800113e-08 	0.02933059298 	7.348098612e-08 	5.591226223e-05
0.9944835934 	0.02855800273 	0.01326717085 	3.35673725e-08 	0.02850495504 	7.216126325e-08 	5.433836685e-05
0.9948347186 	0.02755542473 	0.01280146268 	3.292112059e-08 	0.02750410432 	7.07686281e-08 	5.24304672e-05
0.9951858439 	0.02632562458 	0.01223024742 	3.220116104e-08 	0.02627646862 	6.920953847e-08 	5.009025235e-05
0.9955369691 	0.02480097998 	0.01152186045 	3.133610548e-08 	0.02475455625 	6.733980752e-08 	4.718906439e-05
0.9958880943 	0.02289496425 	0.01063620657 	3.021393555e-08 	0.0228520071 	6.492760237e-08 	4.356227693e-05
0.9962392196 	0.02050201567 	0.009524474752 	2.866662106e-08 	0.02046346236 	6.16000315e-08 	3.900904677e-05
0.9965903448 	0.01749951999 	0.008071425673 	2.679369962e-08 	0.01746654196 	5.681261262e-08 	3.329608355e-05
0.9969414701 	0.01379725404 	0.00615843908 	2.360553138e-08 	0.01377119793 	4.954967982e-08 	2.625173076e-05
0.9972925953 	0.009532077509 	0.003907759084 	1.768658129e-08 	0.009514039406 	3.849296099e-08 	1.81364034e-05
0.9976437206 	0.005345643534 	0.001834073008 	9.811411538e-09 	0.005335508554 	2.411632632e-08 	1.017096223e-05
0.9979948458 	0.002211755637 	0.0005445686244 	3.338048277e-09 	0.002207555522 	1.078532035e-08 	4.208214384e-06
0.9983459711 	0.0005939319221 	8.288533614e-05 	5.512537109e-10 	0.0005928027479 	2.997496106e-09 	1.130046798e-06
0.9986970963 	8.090515033e-05 	4.379507668e-06 	2.995843353e-11 	8.075124353e-05 	4.112826022e-10 	1.539343138e-07
0.9990482216 	3.958927664e-06 	3.99362465e-08 	2.739281113e-13 	3.951395294e-06 	2.013330241e-11 	7.532457664e-09
