/*--------------------------------*- C++ -*----------------------------------*\
  =========                 |
  \\      /  F ield         | OpenFOAM: The Open Source CFD Toolbox
   \\    /   O peration     | Website:  https://openfoam.org
    \\  /    A nd           | Version:  7
     \\/     M anipulation  |
\*---------------------------------------------------------------------------*/
FoamFile
{
    version     2.0;
    format      ascii;
    class       volVectorField;
    location    "2000";
    object      U;
}
// * * * * * * * * * * * * * * * * * * * * * * * * * * * * * * * * * * * * * //

dimensions      [0 1 -1 0 0 0 0];

internalField   nonuniform List<vector> 
15296
(
(2.6703176 1.6777318e-07 1.176771e-16)
(2.6705947 -1.0598873e-06 6.7406782e-17)
(2.6706732 -2.8631871e-07 -5.070907e-18)
(2.6706978 -1.6488073e-07 7.709459e-17)
(2.6707402 -1.5953626e-07 2.7790275e-17)
(2.6707667 -4.0448628e-09 1.1687934e-16)
(2.6707591 2.0835669e-07 2.9200959e-16)
(2.6707155 4.3231999e-07 1.70145e-17)
(2.6706331 6.6661835e-07 -2.3943971e-16)
(2.6705103 9.0118662e-07 1.4199606e-17)
(2.6703476 1.1240392e-06 -3.4497736e-18)
(2.6701474 1.3288622e-06 2.8959025e-17)
(2.6699124 1.5130338e-06 -1.3745358e-16)
(2.6696456 1.6764659e-06 1.4623395e-16)
(2.6693501 1.8220511e-06 -1.5554533e-16)
(2.6690281 1.9559064e-06 1.3229939e-16)
(2.6686805 2.0876274e-06 -8.1324237e-17)
(2.668306 2.2307328e-06 2.165405e-17)
(2.6679002 2.4032648e-06 -1.802756e-16)
(2.6674547 2.6289375e-06 -6.2052954e-17)
(2.6669558 2.93932e-06 -2.5788568e-16)
(2.6663825 3.377379e-06 1.1584451e-16)
(2.6657035 4.0034136e-06 1.7018797e-16)
(2.6648726 4.903849e-06 -1.2280425e-16)
(2.663822 6.2061847e-06 -1.6571129e-16)
(2.662451 8.0989531e-06 -1.6878904e-16)
(2.6606106 1.087261e-05 -1.6359832e-16)
(2.6580747 1.496504e-05 9.6913292e-17)
(2.6545046 2.109964e-05 4.3493757e-17)
(2.6493624 3.0385901e-05 -5.4655224e-17)
(2.64183 4.4917687e-05 6.1658459e-18)
(2.6304869 6.8067806e-05 5.7432607e-17)
(2.6131153 0.00010765532 3.718927e-16)
(2.5852665 0.000174095 1.4589777e-16)
(2.5401196 0.00028695179 -8.1485793e-17)
(2.4556188 0.00047415362 -4.6617843e-17)
(2.291178 0.00077031064 2.721925e-15)
(1.9187793 -0.0021219575 -3.4089844e-14)
(2.6703115 6.3579025e-07 5.8527132e-18)
(2.6705862 -2.7956023e-06 -1.6502361e-16)
(2.6706649 -8.1748056e-07 1.5872759e-17)
(2.6706898 -5.2537908e-07 -1.0587313e-16)
(2.6707324 -5.3930498e-07 1.0655618e-16)
(2.6707592 -1.5427095e-07 5.1387076e-17)
(2.670752 3.8374237e-07 3.8554125e-16)
(2.6707088 9.5392406e-07 9.016889e-17)
(2.670627 1.5528661e-06 -6.3046708e-16)
(2.6705047 2.1536743e-06 -3.0799305e-16)
(2.6703428 2.7246358e-06 4.980592e-17)
(2.6701433 3.2495589e-06 1.6981051e-16)
(2.6699089 3.721961e-06 5.882879e-17)
(2.6696424 4.1416634e-06 1.5013239e-16)
(2.6693469 4.5163181e-06 -3.6603019e-16)
(2.6690247 4.8624976e-06 1.0672044e-16)
(2.6686768 5.2063489e-06 -4.135013e-16)
(2.6683019 5.5844149e-06 -2.4151847e-16)
(2.6678958 6.0449735e-06 -5.3607782e-16)
(2.6674504 6.6512662e-06 -1.3289927e-16)
(2.6669519 7.4879282e-06 -4.4305291e-16)
(2.6663794 8.6712766e-06 2.2677586e-16)
(2.6657018 1.0365831e-05 1.5583087e-16)
(2.6648731 1.2808286e-05 -8.2777244e-17)
(2.6638255 1.6347636e-05 -4.3186538e-16)
(2.662459 2.1499185e-05 -2.1781016e-16)
(2.6606251 2.9052961e-05 -2.0458411e-16)
(2.658099 4.0195801e-05 3.6464064e-16)
(2.654544 5.6865767e-05 1.3695128e-16)
(2.6494255 8.2007796e-05 -9.4759306e-17)
(2.6419318 0.00012102024 1.0835921e-16)
(2.6306535 0.00018229338 1.6390399e-16)
(2.6133973 0.00028375954 -7.6003679e-17)
(2.5857522 0.0004519177 -6.3581096e-16)
(2.5410131 0.00079482004 -1.7313049e-16)
(2.4573788 0.0015103575 2.7580987e-17)
(2.2952863 0.0032602071 2.076937e-15)
(1.9242473 -0.0023373491 -2.4529129e-14)
(2.6702975 1.5516836e-06 -1.1105428e-16)
(2.6705681 -4.390305e-06 -1.4251682e-16)
(2.6706469 -1.3138062e-06 -2.4179622e-16)
(2.670672 -8.5071362e-07 -2.7633652e-16)
(2.670715 -8.738008e-07 2.4885375e-16)
(2.6707423 -2.6485484e-07 4.1715257e-17)
(2.6707356 5.8759647e-07 2.2931143e-16)
(2.6706931 1.4909655e-06 1.1350226e-16)
(2.670612 2.4391868e-06 -7.76602e-16)
(2.6704906 3.3902464e-06 -3.57549e-16)
(2.6703297 4.2951516e-06 1.8460268e-16)
(2.6701311 5.1294043e-06 -4.5909587e-17)
(2.6698974 5.8830018e-06 -3.2143759e-17)
(2.6696314 6.5547203e-06 -4.8496633e-19)
(2.6693361 7.1549912e-06 -2.3605825e-16)
(2.6690137 7.7084616e-06 -1.1759897e-16)
(2.6686654 8.2557079e-06 -7.6041348e-16)
(2.6682901 8.8547874e-06 -7.6798645e-16)
(2.6678839 9.5830975e-06 -6.7435938e-16)
(2.6674385 1.0541939e-05 -4.2658766e-16)
(2.6669406 1.1866261e-05 -5.8918511e-16)
(2.6663692 1.3740846e-05 4.2130975e-16)
(2.6656932 1.6426619e-05 1.7740515e-16)
(2.6648668 2.0298845e-05 -6.5509113e-17)
(2.6638227 2.5910942e-05 -4.5379744e-16)
(2.662461 3.4080147e-05 -2.5686136e-16)
(2.6606343 4.6059738e-05 -2.7341073e-16)
(2.6581189 6.3732568e-05 4.1301323e-16)
(2.65458 9.0176019e-05 2.1341493e-16)
(2.6494863 0.0001300692 -1.3650689e-17)
(2.6420322 0.00019201653 -1.0839998e-17)
(2.6308179 0.00028946698 1.9075634e-17)
(2.6136708 0.00045166281 -5.7249e-17)
(2.586212 0.0007214454 -5.8394513e-16)
(2.5418631 0.0012655869 -5.1326144e-16)
(2.4590368 0.0023917263 1.3289615e-16)
(2.2994107 0.0052311458 4.5393999e-15)
(1.9294597 -0.0018940395 -1.0768512e-14)
(2.670275 2.7056961e-06 -1.9110399e-16)
(2.6705407 -6.043449e-06 -3.5174286e-16)
(2.6706194 -1.8298188e-06 -2.8516582e-16)
(2.6706449 -1.1880527e-06 -1.7349704e-16)
(2.6706884 -1.2211994e-06 1.9466464e-16)
(2.6707163 -3.7512194e-07 1.8805649e-16)
(2.6707105 8.1032739e-07 1.3519878e-16)
(2.6706687 2.0660891e-06 1.2595684e-16)
(2.6705885 3.3832842e-06 -7.5409712e-16)
(2.6704682 4.7044661e-06 -3.5333389e-16)
(2.6703085 5.9631866e-06 2.9948969e-16)
(2.6701111 7.1268633e-06 4.869474e-17)
(2.6698784 8.1819542e-06 1.0768087e-16)
(2.6696132 9.1255428e-06 4.6161054e-17)
(2.6693181 9.969754e-06 -2.0780859e-16)
(2.6689956 1.0746332e-05 -3.4662523e-16)
(2.6686469 1.1510058e-05 -9.2278998e-16)
(2.6682711 1.2341463e-05 -1.1245451e-15)
(2.6678646 1.33492e-05 -6.6208346e-16)
(2.6674193 1.4675565e-05 -5.3560269e-16)
(2.6669219 1.6509191e-05 -6.0462829e-16)
(2.6663516 1.9107089e-05 4.4558224e-16)
(2.6656773 2.283118e-05 1.1007766e-17)
(2.6648534 2.8201471e-05 1.2257278e-16)
(2.6638128 3.5984741e-05 -4.6377346e-16)
(2.6624563 4.7313023e-05 -3.4220779e-16)
(2.660637 6.3922263e-05 -1.7871822e-16)
(2.6581325 8.8418414e-05 3.2159412e-16)
(2.65461 0.00012506132 2.6996556e-16)
(2.6495418 0.00018031685 2.2260316e-16)
(2.6421279 0.00026608327 8.5569238e-17)
(2.6309788 0.00040089513 -1.0368041e-16)
(2.6139434 0.00062515452 1.977771e-16)
(2.5866767 0.00099679253 -4.7093773e-16)
(2.5427261 0.0017455459 -7.990631e-16)
(2.4607059 0.0032849064 -9.4427298e-16)
(2.3037167 0.0072486281 3.6426502e-15)
(1.9347081 -0.0017448554 -6.7429525e-15)
(2.6702441 4.0146357e-06 -2.8366798e-16)
(2.6705043 -7.6543621e-06 -4.2372583e-16)
(2.6705827 -2.3372761e-06 -3.2568392e-16)
(2.6706085 -1.5235672e-06 -1.9598506e-16)
(2.6706527 -1.5711252e-06 1.6388397e-16)
(2.6706814 -4.9048863e-07 1.8234764e-16)
(2.6706765 1.0265856e-06 9.1843544e-17)
(2.6706357 2.6339324e-06 1.3310904e-17)
(2.6705567 4.3197469e-06 -7.8182652e-16)
(2.6704377 6.0112862e-06 -3.002182e-16)
(2.6702794 7.6250004e-06 2.8523601e-16)
(2.6700835 9.1208085e-06 1.311314e-16)
(2.6698522 1.0482119e-05 2.6869976e-16)
(2.6695879 1.1704172e-05 1.3803437e-16)
(2.6692933 1.2799741e-05 -2.4442761e-16)
(2.6689708 1.3806029e-05 -4.234052e-16)
(2.6686216 1.4790453e-05 -1.0707125e-15)
(2.6682452 1.5855131e-05 -1.4727976e-15)
(2.6678382 1.7139997e-05 -7.0992486e-16)
(2.6673929 1.8829025e-05 -5.2183625e-16)
(2.6668959 2.1165382e-05 -4.4870898e-16)
(2.6663265 2.4478822e-05 4.8675551e-16)
(2.665654 2.9232152e-05 -1.3237048e-16)
(2.6648326 3.6089246e-05 5.0892446e-17)
(2.6637958 4.6028534e-05 -3.4949069e-16)
(2.6624445 6.0493914e-05 -3.7119537e-16)
(2.6606328 8.1699422e-05 -1.9581141e-16)
(2.6581395 0.00011296594 2.6591166e-16)
(2.6546338 0.00015972294 3.2364091e-16)
(2.6495911 0.00023019608 4.6061804e-16)
(2.6422177 0.0003395337 1.9606464e-16)
(2.631134 0.00051124662 -2.1659836e-16)
(2.6142102 0.00079675204 2.758521e-16)
(2.5871344 0.0012688453 -2.3269978e-16)
(2.543581 0.0022194691 -7.0710068e-16)
(2.4623449 0.0041607517 -1.9978132e-15)
(2.3080891 0.0092772128 7.0697499e-16)
(1.9399893 -0.0013737715 -4.5629492e-15)
(2.670193 5.8232654e-06 -4.0755024e-16)
(2.6704454 -9.6185982e-06 -3.787795e-16)
(2.6705233 -2.9895622e-06 -3.5229901e-16)
(2.6705497 -1.9575075e-06 -3.6258794e-16)
(2.6705948 -2.0235712e-06 5.0655934e-18)
(2.6706248 -6.4199876e-07 1.472998e-16)
(2.6706212 1.303201e-06 3.8889172e-17)
(2.6705819 3.3652733e-06 -2.7033462e-16)
(2.6705046 5.5267666e-06 -8.5780947e-16)
(2.6703875 7.6946923e-06 -3.8240261e-16)
(2.6702314 9.7641615e-06 8.2042713e-17)
(2.6700379 1.1687244e-05 2.2109571e-16)
(2.6698089 1.344555e-05 3.7804798e-16)
(2.6695464 1.5033001e-05 1.0293354e-16)
(2.6692528 1.646228e-05 -2.5086914e-16)
(2.6689303 1.7774972e-05 -3.753871e-16)
(2.6685805 1.9051595e-05 -9.6818995e-16)
(2.6682032 2.0419784e-05 -1.7849585e-15)
(2.6677953 2.2059097e-05 -6.1210033e-16)
(2.6673496 2.420795e-05 -4.8129793e-16)
(2.6668529 2.7181051e-05 -4.6703727e-16)
(2.6662848 3.1402791e-05 5.7277789e-16)
(2.6656144 3.7465839e-05 -1.0818751e-16)
(2.6647965 4.6217947e-05 -4.8911993e-17)
(2.6637645 5.8907195e-05 -3.7896789e-16)
(2.6624201 7.7374268e-05 -3.9047276e-16)
(2.6606184 0.0001044413 -3.5965025e-16)
(2.6581397 0.00014433726 1.9690556e-16)
(2.6546558 0.00020397739 4.5372101e-16)
(2.6496464 0.00029381522 6.1555835e-16)
(2.6423255 0.00043311706 2.7727397e-16)
(2.6313263 0.00065166027 -1.0059855e-16)
(2.6145467 0.0010148128 4.7810395e-16)
(2.5877169 0.0016129898 5.7699606e-17)
(2.5446749 0.0028154122 -6.8547186e-16)
(2.4644234 0.005242554 -2.2885688e-15)
(2.3137856 0.011818955 -5.1801138e-16)
(1.9470576 -0.00033576072 -6.4539665e-15)
(2.6701052 8.433611e-06 -5.8728923e-16)
(2.6703473 -1.1882764e-05 -3.4030334e-16)
(2.6704244 -3.822468e-06 -2.7354053e-16)
(2.6704515 -2.5292964e-06 -4.9044802e-16)
(2.6704981 -2.6242701e-06 2.2946347e-16)
(2.67053 -8.6911346e-07 1.2293746e-16)
(2.6705284 1.6140901e-06 -2.0032114e-17)
(2.6704914 4.2493067e-06 -3.452244e-16)
(2.6704164 7.0099823e-06 -6.9435951e-16)
(2.6703022 9.7782572e-06 -4.3924785e-16)
(2.6701492 1.2424563e-05 -1.0234387e-16)
(2.669959 1.4894058e-05 3.4285897e-16)
(2.6697333 1.7168497e-05 4.9864567e-16)
(2.6694735 1.9240248e-05 9.3924939e-17)
(2.6691818 2.1118708e-05 -2.2448676e-16)
(2.66886 2.2845233e-05 -3.4865926e-16)
(2.6685099 2.4510781e-05 -9.1164503e-16)
(2.6681317 2.627148e-05 -1.7875619e-15)
(2.667723 2.8357026e-05 -7.0529894e-16)
(2.6672769 3.1077748e-05 -5.0905762e-16)
(2.6667808 3.484282e-05 -2.0551904e-16)
(2.6662143 4.0199257e-05 4.8282375e-16)
(2.6655468 4.7904926e-05 -9.1280682e-17)
(2.6647332 5.903915e-05 -1.6826281e-17)
(2.6637075 7.5188538e-05 -8.2813566e-16)
(2.6623721 9.8691433e-05 -5.0644753e-16)
(2.6605832 0.0001331325 -6.1002023e-16)
(2.6581232 0.0001838773 2.362815e-16)
(2.6546674 0.00025969988 4.1146356e-16)
(2.6497005 0.00037382884 4.5444795e-16)
(2.6424466 0.00055065894 3.5948004e-16)
(2.6315548 0.0008277051 8.4221397e-17)
(2.6149586 0.0012876796 7.6132286e-16)
(2.5884404 0.0020415016 1.0176208e-16)
(2.546046 0.0035549643 -9.0835144e-16)
(2.4669955 0.0065591348 -1.6396463e-15)
(2.3210458 0.015003984 -1.5629613e-15)
(1.9568233 0.0018726418 -2.7706584e-15)
(2.6699755 1.1932103e-05 -8.8181892e-16)
(2.6702068 -1.417735e-05 -2.4090723e-16)
(2.670283 -4.7265103e-06 -4.3487823e-16)
(2.6703111 -3.1705132e-06 -5.2616058e-16)
(2.6703597 -3.309594e-06 2.2930006e-16)
(2.6703941 -1.1406928e-06 4.0435326e-16)
(2.6703952 1.9457407e-06 -7.5689225e-17)
(2.670361 5.2244859e-06 -4.4594111e-16)
(2.6702892 8.655765e-06 -5.6860605e-16)
(2.6701783 1.2093379e-05 -4.3615301e-16)
(2.6700291 1.5382261e-05 -2.9027499e-16)
(2.6698432 1.8464259e-05 2.4177592e-16)
(2.6696217 2.1326118e-05 8.6343926e-16)
(2.6693658 2.3960843e-05 1.8036475e-16)
(2.6690769 2.6371984e-05 -2.1971834e-16)
(2.6687568 2.8594016e-05 -3.8131579e-16)
(2.668407 3.0721152e-05 -8.4693874e-16)
(2.6680283 3.2935086e-05 -1.5191429e-15)
(2.6676189 3.5520107e-05 -7.9974704e-16)
(2.6671726 3.8870026e-05 -5.2423258e-16)
(2.6666772 4.3504682e-05 -1.3613027e-16)
(2.6661126 5.0112305e-05 4.2241212e-16)
(2.6654485 5.963702e-05 -1.388752e-16)
(2.6646399 7.3415848e-05 -1.0824311e-16)
(2.6636214 9.3410481e-05 -8.6783016e-16)
(2.6622962 0.00012250998 -7.1804994e-16)
(2.6605219 0.00016514307 -6.6256801e-16)
(2.6580832 0.00022793045 -1.2131334e-16)
(2.654659 0.00032169968 7.8711133e-17)
(2.6497402 0.00046272618 3.2595406e-16)
(2.6425617 0.00068104753 4.5006982e-16)
(2.6317907 0.001022583 2.0139089e-16)
(2.6154003 0.001589173 6.2479641e-16)
(2.5892302 0.0025127419 5.6503751e-17)
(2.5475591 0.0043657909 -8.9080697e-16)
(2.4697981 0.0079675696 -7.9297558e-16)
(2.3291154 0.01850224 -9.7229164e-16)
(1.9685937 0.0046009119 -8.5101543e-16)
(2.669788 1.6351627e-05 -7.9030113e-16)
(2.6700099 -1.6443505e-05 -3.3724928e-16)
(2.6700855 -5.6912603e-06 -6.9943679e-16)
(2.6701149 -3.8819673e-06 -5.4776845e-16)
(2.6701662 -4.0920592e-06 3.7246294e-17)
(2.6702038 -1.4706976e-06 4.5439595e-16)
(2.6702085 2.2890796e-06 -2.3847469e-16)
(2.670178 6.2888333e-06 -5.4405656e-16)
(2.67011 1.0469946e-05 -4.3002246e-16)
(2.6700034 1.4652863e-05 -5.0087675e-16)
(2.669859 1.8654961e-05 -2.1888663e-16)
(2.6696782 2.2418814e-05 7.1536239e-17)
(2.6694622 2.5943361e-05 7.6799179e-16)
(2.6692116 2.9227683e-05 2.0267276e-16)
(2.668927 3.2269143e-05 -2.9465776e-16)
(2.6686098 3.5088207e-05 -4.1679269e-16)
(2.6682613 3.7771835e-05 -5.1302771e-16)
(2.6678828 4.0519917e-05 -1.3074981e-15)
(2.667473 4.3672695e-05 -9.5601555e-16)
(2.6670266 4.7718922e-05 -4.297433e-16)
(2.666532 5.3308018e-05 -3.3765377e-16)
(2.6659697 6.1292209e-05 1.8450803e-16)
(2.6653095 7.2827177e-05 -2.3438338e-16)
(2.6645067 8.9537451e-05 -2.3637831e-16)
(2.6634964 0.00011379995 -9.3980723e-16)
(2.6621828 0.00014911185 -9.4355066e-16)
(2.6604251 0.00020083404 -6.7538378e-16)
(2.6580104 0.00027696973 -2.879361e-16)
(2.6546219 0.00039060946 1.0606897e-17)
(2.6497571 0.00056136202 2.089362e-16)
(2.6426633 0.00082545324 5.4282004e-16)
(2.6320272 0.0012378679 3.7916301e-16)
(2.6158669 0.0019214593 7.352998e-16)
(2.5900844 0.0030297389 -6.666772e-17)
(2.5492166 0.0052517092 -1.0830494e-15)
(2.4728349 0.0094600717 -1.234525e-15)
(2.3379433 0.022300003 4.8102457e-16)
(1.9825394 0.007917463 5.1052032e-16)
(2.6695221 2.133387e-05 -5.8861766e-16)
(2.6697383 -1.866737e-05 -3.8777265e-16)
(2.669814 -6.7098365e-06 -7.7900077e-16)
(2.6698454 -4.6596023e-06 -5.1092509e-16)
(2.6699002 -4.9709286e-06 -1.227094e-16)
(2.669942 -1.8520602e-06 4.0101417e-16)
(2.6699511 2.6637311e-06 -2.9991221e-16)
(2.6699253 7.4764958e-06 -6.4703497e-16)
(2.6698622 1.2501154e-05 -4.8901762e-16)
(2.6697608 1.7518006e-05 -4.9350428e-16)
(2.6696221 2.2313326e-05 -5.7447649e-17)
(2.6694477 2.6834725e-05 -1.8734668e-17)
(2.6692386 3.1103327e-05 4.5072501e-16)
(2.6689948 3.5134221e-05 1.0250189e-16)
(2.6687165 3.8922079e-05 -2.2113135e-16)
(2.6684039 4.2466675e-05 -4.1619324e-16)
(2.6680582 4.5833219e-05 -3.5371535e-16)
(2.6676808 4.9225924e-05 -1.1084981e-15)
(2.6672711 5.3037129e-05 -9.035178e-16)
(2.6668249 5.7860963e-05 -3.4258295e-16)
(2.6663314 6.4498889e-05 -5.5391378e-16)
(2.6657716 7.3996226e-05 -2.6392652e-16)
(2.6651158 8.7752444e-05 -2.1370578e-16)
(2.6643196 0.00010771596 -3.2852478e-16)
(2.6633187 0.00013672611 -9.1267505e-16)
(2.6620183 0.00017895488 -9.1032627e-16)
(2.6602795 0.00024079837 -7.0359971e-16)
(2.6578921 0.00033179244 -1.239149e-16)
(2.654544 0.00046753942 3.7817362e-17)
(2.6497402 0.00067132289 1.3702276e-16)
(2.6427418 0.00098621057 4.4656238e-16)
(2.6322572 0.0014770242 4.4518108e-16)
(2.6163559 0.002289985 8.8955473e-16)
(2.5910075 0.0035971262 -2.7392121e-16)
(2.551034 0.0062274209 -7.8118169e-16)
(2.4761398 0.011051146 -1.5864741e-15)
(2.3475332 0.026446623 -6.9966368e-16)
(1.9990728 0.012183239 1.0483393e-15)
(2.6691538 2.6501987e-05 -5.5820334e-16)
(2.6693677 -2.0873186e-05 -2.6421759e-16)
(2.6694455 -7.8252259e-06 -9.7217367e-16)
(2.6694798 -5.5539379e-06 -6.6510895e-16)
(2.6695392 -6.0128725e-06 3.9191258e-17)
(2.6695865 -2.3547415e-06 6.4889523e-16)
(2.6696013 3.0061341e-06 -6.612206e-19)
(2.6695812 8.7337391e-06 -7.4604519e-16)
(2.6695241 1.4706729e-05 -3.1951859e-16)
(2.6694289 2.0656124e-05 -7.1096397e-16)
(2.6692971 2.6330947e-05 2.853458e-16)
(2.6691304 3.1687485e-05 -9.5452622e-17)
(2.6689297 3.678165e-05 4.4098876e-16)
(2.6686948 4.1660215e-05 -6.3226544e-17)
(2.6684248 4.6325264e-05 -2.6232617e-16)
(2.6681192 5.0752678e-05 -2.485544e-16)
(2.6677784 5.4968768e-05 -2.8825664e-16)
(2.6674036 5.9160134e-05 -8.0963246e-16)
(2.6669951 6.3758412e-05 -6.4432412e-16)
(2.6665494 6.9468788e-05 -3.5653886e-16)
(2.6660573 7.7268883e-05 -8.246208e-16)
(2.6655004 8.8432828e-05 -5.3681099e-16)
(2.6648495 0.00010464451 -5.5453682e-16)
(2.664061 0.00012822019 -6.6204471e-16)
(2.6630709 0.00016251499 -9.9308092e-16)
(2.6617857 0.00021244828 -8.8554722e-16)
(2.6600683 0.00028556191 -6.9827014e-16)
(2.6577119 0.00039308409 -9.497707e-17)
(2.6544098 0.0005533932 7.4890272e-18)
(2.6496751 0.00079380111 9.8425837e-17)
(2.6427846 0.0011648995 1.4122577e-16)
(2.6324707 0.0017420446 4.5938366e-16)
(2.6168626 0.0026973146 1.1303378e-15)
(2.5920007 0.0042193887 -2.5721325e-16)
(2.5530248 0.0072963125 -9.3470654e-16)
(2.4797556 0.012723573 -2.1184508e-15)
(2.3578384 0.03086442 -2.2498151e-15)
(2.0187202 0.017290113 1.2472609e-15)
(2.6686521 3.1762748e-05 -1.8300389e-16)
(2.6688676 -2.301969e-05 -5.3878129e-16)
(2.6689506 -9.0600753e-06 -9.5259227e-16)
(2.6689897 -6.5692759e-06 -6.7142294e-16)
(2.6690555 -7.2187193e-06 -4.3072034e-17)
(2.6691098 -2.9761125e-06 5.8662827e-16)
(2.6691317 3.3284691e-06 2.0572119e-16)
(2.6691188 1.0084094e-05 -8.7853242e-16)
(2.6690691 1.7121098e-05 -4.4801503e-16)
(2.6689816 2.4110146e-05 -1.0141003e-15)
(2.668858 3.0753843e-05 7.4068773e-17)
(2.6687004 3.7018628e-05 -2.7755369e-16)
(2.6685098 4.3009075e-05 1.4891458e-16)
(2.6682858 4.8825425e-05 -2.6312734e-16)
(2.6680268 5.4496763e-05 -5.1548384e-17)
(2.6677312 5.9979872e-05 -1.8604131e-16)
(2.6673982 6.5245857e-05 -2.9251974e-16)
(2.6670285 7.0433588e-05 -8.692545e-16)
(2.6666227 7.5988009e-05 -7.14853e-16)
(2.6661787 8.2720119e-05 -3.562869e-16)
(2.6656884 9.1804263e-05 -1.185738e-15)
(2.6651349 0.00010478302 -1.2351782e-15)
(2.6644898 0.00012367286 -1.0427645e-15)
(2.66371 0.00015120847 -8.2083367e-16)
(2.6627323 0.00019131721 -1.0922671e-15)
(2.6614645 0.00024973729 -8.4110118e-16)
(2.6597716 0.00033526291 -6.8227199e-16)
(2.6574503 0.00046096661 -1.0872207e-17)
(2.6541999 0.00064825605 -1.3490783e-18)
(2.6495428 0.00092879766 1.6760903e-16)
(2.6427732 0.0013613564 -2.623312e-16)
(2.6326496 0.0020323188 4.0809351e-16)
(2.6173696 0.003142106 1.5003096e-15)
(2.5930451 0.0048954685 -6.2886118e-17)
(2.5551715 0.0084538072 -1.0716642e-15)
(2.483679 0.014460385 -2.4920178e-15)
(2.3686686 0.035489626 -4.8357046e-15)
(2.0413584 0.023181623 2.722829e-15)
(2.6679783 3.7098252e-05 1.4075039e-17)
(2.6681993 -2.5137801e-05 -5.7411746e-16)
(2.6682921 -1.051655e-05 -7.9835377e-16)
(2.6683389 -7.7678589e-06 -5.8263901e-16)
(2.6684133 -8.6355276e-06 4.5632296e-17)
(2.6684767 -3.7546169e-06 6.6067663e-16)
(2.6685076 3.6057697e-06 -2.9612072e-16)
(2.6685038 1.151767e-05 -8.3394156e-16)
(2.6684632 1.9749627e-05 -4.4234952e-16)
(2.6683851 2.7899362e-05 -1.3906598e-15)
(2.6682713 3.5609993e-05 -4.8212425e-16)
(2.6681244 4.2855226e-05 -6.614235e-16)
(2.6679459 4.9800997e-05 -1.1066423e-16)
(2.6677351 5.6628221e-05 -4.8027515e-16)
(2.6674902 6.3424873e-05 -1.9749463e-16)
(2.667208 7.0147486e-05 -2.6668436e-16)
(2.6668866 7.6702738e-05 -2.7147401e-16)
(2.6665254 8.3145717e-05 -9.0188873e-16)
(2.6661252 8.989181e-05 -9.6469449e-16)
(2.6656846 9.7834159e-05 -6.7999793e-16)
(2.6651973 0.00010835412 -1.5472182e-15)
(2.664648 0.00012330391 -1.7288641e-15)
(2.6640095 0.00014509075 -9.916307e-16)
(2.6632397 0.00017693013 -8.4726489e-16)
(2.6622764 0.00022338637 -9.3680968e-16)
(2.6610285 0.00029109084 -7.4578814e-16)
(2.6593634 0.00039019494 -6.5582455e-16)
(2.6570818 0.00053576126 2.1917112e-16)
(2.6538894 0.00075247176 1.4780544e-16)
(2.6493191 0.0010766481 -2.4898169e-16)
(2.6426843 0.0015758597 -2.7870776e-16)
(2.6327715 0.0023478002 5.0059464e-16)
(2.6178557 0.0036237852 1.4176736e-15)
(2.5941216 0.0056185807 8.8292903e-17)
(2.5574547 0.0096943843 -4.566534e-16)
(2.4879161 0.016241317 -1.4487246e-15)
(2.3798852 0.040211293 -2.8095686e-15)
(2.0667701 0.029722063 2.3216674e-15)
(2.6670823 4.2325927e-05 8.5520168e-18)
(2.6673149 -2.7334023e-05 -3.295474e-16)
(2.6674231 -1.231127e-05 -6.0758127e-16)
(2.6674809 -9.1650011e-06 -3.3693832e-16)
(2.6675666 -1.0238631e-05 -3.1205849e-17)
(2.6676416 -4.6345097e-06 3.8012481e-16)
(2.6676839 3.9273151e-06 -5.4486223e-16)
(2.6676911 1.3154449e-05 -6.0631803e-16)
(2.6676616 2.2741105e-05 -3.0828065e-16)
(2.6675948 3.2199765e-05 -1.3605759e-15)
(2.6674926 4.1097381e-05 -8.0203947e-16)
(2.6673582 4.9406088e-05 -8.7872395e-16)
(2.6671935 5.7361959e-05 -1.7234884e-16)
(2.6669984 6.5257315e-05 -5.2202062e-16)
(2.6667705 7.3284626e-05 -3.9078346e-16)
(2.6665058 8.1438655e-05 -3.0929894e-16)
(2.6662004 8.9566977e-05 -3.0763294e-16)
(2.6658524 9.7603342e-05 -8.6769602e-16)
(2.6654616 0.00010587144 -1.2286507e-15)
(2.6650273 0.00011529607 -1.1185025e-15)
(2.6645448 0.00012745649 -1.6995817e-15)
(2.6640007 0.00014455299 -1.6499687e-15)
(2.66337 0.00016945439 -9.5719686e-16)
(2.6626117 0.00020593908 -4.1103046e-16)
(2.6616648 0.00025929174 -7.8699173e-16)
(2.6604398 0.00033712468 -6.5771971e-16)
(2.6588066 0.00045106265 -5.8527504e-16)
(2.65657 0.00061831486 3.7979301e-16)
(2.6534433 0.00086710694 6.814239e-18)
(2.6489705 0.0012387353 -4.2283877e-16)
(2.6424869 0.0018103048 -3.5524176e-16)
(2.6328094 0.0026909658 3.3886101e-16)
(2.6182999 0.004146142 7.1360996e-16)
(2.5952182 0.0063941076 2.3032805e-16)
(2.5598763 0.011025881 7.9677322e-17)
(2.4925246 0.018071682 -7.7736584e-16)
(2.3915196 0.044989398 4.6948658e-16)
(2.0949628 0.036985448 4.3241401e-17)
(2.6659074 4.6749183e-05 -4.9842366e-18)
(2.6661558 -2.9338893e-05 -1.4840896e-16)
(2.6662852 -1.4701864e-05 -4.8537937e-16)
(2.6663575 -1.0871475e-05 -4.1537469e-16)
(2.6664576 -1.2075078e-05 -8.5720414e-17)
(2.666547 -5.662563e-06 1.4123171e-17)
(2.6666031 4.2698152e-06 -9.0585122e-16)
(2.6666238 1.5001932e-05 -7.5458387e-16)
(2.6666076 2.6133743e-05 -5.8829395e-16)
(2.6665541 3.7080857e-05 -1.3240144e-15)
(2.6664657 4.7313554e-05 -8.1884063e-16)
(2.6663457 5.6784659e-05 -6.7425622e-16)
(2.6661968 6.5798009e-05 -4.5106066e-16)
(2.6660195 7.4781063e-05 -2.0609709e-16)
(2.6658116 8.4082694e-05 -4.8205026e-16)
(2.6655684 9.3798463e-05 -5.7924881e-16)
(2.6652843 0.00010375644 -7.1467018e-16)
(2.6649551 0.00011375748 -8.0969335e-16)
(2.664579 0.00012397263 -1.247274e-15)
(2.6641553 0.00013528281 -1.2258656e-15)
(2.6636804 0.00014942102 -1.581727e-15)
(2.6631435 0.00016894872 -1.6581242e-15)
(2.6625218 0.00019726225 -1.035347e-15)
(2.6617766 0.00023879859 -3.5468505e-17)
(2.6608485 0.00029966831 -2.6280961e-16)
(2.6596498 0.00038857381 -1.5624406e-16)
(2.6580532 0.00051874333 -2.9210313e-16)
(2.655868 0.00070969698 -1.7778658e-18)
(2.6528156 0.0009934702 -1.1450922e-16)
(2.6484528 0.0014166399 -4.7679922e-16)
(2.6421388 0.002066553 -8.015804e-16)
(2.6327239 0.0030637275 -2.8634344e-17)
(2.6186667 0.0047109182 2.1286099e-16)
(2.5963058 0.0072214838 -4.3270168e-17)
(2.5624103 0.012444078 4.123353e-16)
(2.4975269 0.019939153 -8.9374911e-16)
(2.4035277 0.049741367 1.3029254e-15)
(2.1258335 0.044821553 3.151385e-15)
(2.6640955 4.7089988e-05 -2.9520676e-17)
(2.6643696 -3.0358943e-05 -8.2824999e-17)
(2.6645287 -1.8705978e-05 -1.1636937e-16)
(2.664622 -1.3942729e-05 -5.89647e-16)
(2.664743 -1.4819925e-05 6.4005218e-17)
(2.6648534 -7.289284e-06 -1.8332857e-16)
(2.6649294 4.5001816e-06 -1.2162542e-15)
(2.6649695 1.7310251e-05 -1.4983602e-15)
(2.6649725 3.055719e-05 -1.1447986e-15)
(2.6649382 4.3522004e-05 -1.1701442e-15)
(2.664869 5.5539427e-05 -7.2499579e-16)
(2.6647691 6.6508077e-05 -2.0059986e-16)
(2.6646416 7.6791171e-05 -3.0257554e-16)
(2.6644881 8.699346e-05 4.9317148e-17)
(2.6643072 9.7723941e-05 -3.7390694e-16)
(2.6640939 0.00010931644 -6.9284969e-16)
(2.663841 0.00012168424 -8.1181885e-16)
(2.6635414 0.00013450247 -6.7159685e-16)
(2.6631907 0.00014768769 -1.0609114e-15)
(2.6627865 0.0001619269 -1.042555e-15)
(2.6623264 0.00017900682 -1.6796365e-15)
(2.6618021 0.00020187392 -1.3185228e-15)
(2.6611942 0.00023461052 -7.50727e-16)
(2.6604674 0.00028256702 1.4928717e-16)
(2.659565 0.00035298936 -7.5733789e-17)
(2.6584021 0.00045602704 2.108231e-16)
(2.6568551 0.00060695776 -2.8036832e-16)
(2.6547392 0.00082822763 -7.3184196e-16)
(2.6517862 0.0011566046 1.8616656e-16)
(2.6475691 0.0016452998 -8.1432305e-16)
(2.641479 0.0023942027 -9.5809262e-16)
(2.6324082 0.0035375051 -6.5328098e-16)
(2.6189413 0.0054232991 -4.1059936e-16)
(2.5975143 0.0082530302 -4.6037532e-16)
(2.5654607 0.014183931 2.2354762e-16)
(2.5038709 0.022194326 -8.0775119e-16)
(2.4180023 0.054817031 -4.9841431e-16)
(2.164868 0.055753669 1.0744134e-15)
(2.6614597 4.1857419e-05 -2.9218468e-16)
(2.6617576 -3.0979425e-05 5.5284655e-17)
(2.6619521 -2.4256374e-05 1.7066439e-16)
(2.6620725 -1.8860644e-05 -1.3870444e-16)
(2.6622204 -1.8860317e-05 -1.4712875e-16)
(2.6623584 -9.8546697e-06 -1.4060172e-16)
(2.6624612 4.2299557e-06 -8.5021695e-16)
(2.6625276 1.9623623e-05 -1.4907176e-15)
(2.6625566 3.5469185e-05 -1.3202444e-15)
(2.6625481 5.0888522e-05 -9.495758e-16)
(2.6625049 6.5068824e-05 -1.0331936e-15)
(2.6624313 7.7830888e-05 -8.0716502e-17)
(2.6623311 8.9573329e-05 -1.8100392e-16)
(2.6622067 0.00010108643 -2.3055676e-16)
(2.6620577 0.0001133149 -3.0035951e-16)
(2.6618794 0.000126972 -4.109579e-16)
(2.661664 0.00014220474 -4.5464785e-16)
(2.6614022 0.00015863255 -4.0589358e-16)
(2.6610871 0.00017585517 -5.7022555e-16)
(2.6607143 0.00019419676 -9.7678157e-16)
(2.6602809 0.00021531814 -1.6287759e-15)
(2.6597804 0.00024247156 -1.3821472e-15)
(2.6591964 0.00028050149 -6.6705527e-16)
(2.6584973 0.0003358844 -1.8712715e-16)
(2.6576303 0.00041729111 -4.8312624e-16)
(2.6565142 0.00053664292 -3.1387673e-16)
(2.6550303 0.00071162048 -2.0234925e-16)
(2.6530013 0.00096803846 -2.9735634e-16)
(2.6501713 0.0013479795 -3.3493936e-16)
(2.6461328 0.0019121334 -3.0693198e-16)
(2.6403142 0.0027742874 -9.3059955e-16)
(2.6316571 0.0040829637 -9.451535e-16)
(2.6188917 0.0062362079 -1.0394389e-15)
(2.5985657 0.0094166352 -8.0935822e-16)
(2.5686156 0.016105509 2.9286082e-16)
(2.5110459 0.024727477 -5.5955616e-16)
(2.4335669 0.059629397 1.0842298e-16)
(2.2085186 0.068212874 8.3260531e-16)
(2.6581826 3.5378214e-05 8.3054475e-17)
(2.6585071 -3.2923114e-05 1.0455796e-16)
(2.6587374 -3.0235004e-05 2.4115239e-16)
(2.6588852 -2.3935053e-05 -3.491776e-16)
(2.6590611 -2.2919529e-05 -4.0843107e-16)
(2.6592288 -1.2367089e-05 -2.2213399e-18)
(2.6593616 4.1851164e-06 -4.272408e-17)
(2.6594578 2.2375943e-05 -3.8449238e-16)
(2.6595166 4.102461e-05 -5.2987081e-16)
(2.6595379 5.908188e-05 -3.9583195e-16)
(2.6595243 7.5577604e-05 -4.8917617e-16)
(2.6594804 9.0239804e-05 1.8812398e-16)
(2.6594104 0.00010347772 -1.7427558e-16)
(2.6593175 0.00011624274 -4.0158807e-16)
(2.6592018 0.00012982326 -4.5806116e-16)
(2.6590596 0.00014538109 -2.0316097e-16)
(2.6588828 0.00016341842 -1.1987982e-16)
(2.6586614 0.00018361791 -2.8266472e-16)
(2.6583865 0.00020530774 -3.7291631e-16)
(2.6580519 0.00022838186 -1.0353458e-15)
(2.6576537 0.00025422341 -1.2340262e-15)
(2.6571856 0.00028622826 -1.1207939e-15)
(2.6566337 0.00032990821 -7.4807159e-16)
(2.6559695 0.00039286888 -6.5718294e-16)
(2.655144 0.00048527936 -7.6617092e-16)
(2.6540806 0.00062091774 -3.6326609e-16)
(2.6526661 0.0008199171 -2.7846434e-17)
(2.6507312 0.0011114152 1.0023202e-16)
(2.648033 0.0015426991 -4.8731479e-16)
(2.6441838 0.0021814593 -5.6991612e-16)
(2.6386505 0.003155209 -7.3839192e-16)
(2.6304242 0.0046237854 -9.3552963e-16)
(2.6183798 0.0070367907 -6.7176931e-16)
(2.5991777 0.010548053 -5.8177431e-16)
(2.5712957 0.01793179 -1.3929834e-16)
(2.5179356 0.027083047 -5.3109269e-16)
(2.4480055 0.063485493 -5.0747288e-16)
(2.2502902 0.078467524 -5.6216925e-17)
(2.6541761 3.3496385e-05 6.331055e-17)
(2.6545163 -3.2708655e-05 9.0999044e-17)
(2.6547792 -3.5412118e-05 1.5904963e-16)
(2.6549554 -2.891904e-05 -1.1069338e-16)
(2.655162 -2.6936534e-05 1.2163155e-17)
(2.6553633 -1.482202e-05 5.8495564e-17)
(2.6555303 4.3037939e-06 1.7673619e-17)
(2.6556607 2.54791e-05 -1.4481795e-16)
(2.6557537 4.7149866e-05 -3.9514471e-17)
(2.6558088 6.806689e-05 -1.7696304e-16)
(2.6558289 8.7081131e-05 -1.8005262e-16)
(2.6558185 0.00010380917 1.6647861e-16)
(2.6557822 0.00011864662 -6.5149642e-17)
(2.6557236 0.00013267353 -7.2622441e-16)
(2.6556436 0.00014750219 -4.5206931e-16)
(2.6555393 0.00016477066 -2.1575784e-16)
(2.655403 0.00018542911 -2.5057333e-16)
(2.6552244 0.00020935463 1.0520634e-16)
(2.6549935 0.00023570806 -5.5404063e-17)
(2.6547027 0.00026396646 -4.8978292e-16)
(2.6543465 0.00029514153 -5.3007987e-16)
(2.6539189 0.00033261693 -6.3485056e-16)
(2.6534071 0.00038243023 -5.8788977e-16)
(2.6527851 0.00045324491 -6.4247897e-16)
(2.6520079 0.00055673953 -5.5369325e-16)
(2.6510035 0.00070860097 -4.548863e-16)
(2.6496651 0.00093145695 -2.5457132e-16)
(2.6478316 0.0012577214 3.3754506e-17)
(2.6452738 0.0017397641 -2.1655058e-16)
(2.6416243 0.0024517302 -3.8837594e-16)
(2.6363893 0.003534598 -5.1133007e-16)
(2.6286101 0.0051563944 -6.3324115e-16)
(2.6173024 0.0078190251 -6.4504303e-16)
(2.5992451 0.011641281 -8.2871278e-16)
(2.5733981 0.019654595 -7.6179027e-16)
(2.5243586 0.029273861 -5.4622312e-16)
(2.461303 0.066420097 -3.8684584e-16)
(2.2893696 0.086938404 -1.0861551e-15)
(2.6492577 3.3224756e-05 1.5209329e-16)
(2.6496357 -3.1420696e-05 1.9059866e-16)
(2.6499443 -3.9569841e-05 1.4511165e-16)
(2.650159 -3.35482e-05 7.5227379e-17)
(2.6504039 -3.0830064e-05 -6.1949113e-17)