0.47826087 	0.49364102 	0.00014686587 	-8.3478667e-09
0.48913043 	1.0118654 	0.00075055365 	-8.2861684e-08
0.5 	1.2921684 	0.0013994484 	1.0788181e-08
0.51086957 	1.4285902 	0.0018211752 	4.2438491e-07
0.52173913 	1.469834 	0.0019401482 	-3.0169097e-07
0.5326087 	1.4799832 	0.0019008482 	-1.6920026e-07
0.54347826 	1.4815887 	0.0018181466 	-9.8278317e-07
0.55434783 	1.4805137 	0.001731663 	-7.8546048e-07
0.56521739 	1.4783197 	0.001635806 	-8.2382048e-07
0.57608696 	1.4755711 	0.0015369903 	-1.2293172e-06
0.58695652 	1.472497 	0.0014370865 	-8.2545832e-07
0.59782609 	1.4691928 	0.0013363346 	-2.424837e-08
0.60869565 	1.4656757 	0.0012340978 	-1.3803924e-07
0.61956522 	1.4621022 	0.0011343631 	-2.8748673e-08
0.63043478 	1.4583915 	0.0010336485 	-1.5929973e-06
0.64130435 	1.4545486 	0.0009315521 	-4.4036306e-08
0.65217391 	1.4506298 	0.00083063129 	-3.2133533e-08
0.66304348 	1.4466497 	0.00073115017 	-1.3014142e-06
0.67391304 	1.4424743 	0.00062850426 	-5.420002e-08
0.68478261 	1.4383471 	0.00052919165 	-9.7388166e-07
0.69565217 	1.434032 	0.00042710752 	-1.5842861e-08
0.70652174 	1.4297253 	0.00032770898 	-2.9524837e-07
0.7173913 	1.4252986 	0.00022882784 	-3.3750238e-09
0.72826087 	1.4209317 	0.00013325467 	-2.4007645e-07
0.73913043 	1.4164194 	3.7414864e-05 	4.4269132e-09
0.75 	1.4119086 	-5.6276006e-05 	-3.4347182e-07
0.76086957 	1.4072801 	-0.00014895052 	1.2683613e-08
0.77173913 	1.4025067 	-0.00024217831 	-6.74802e-08
0.7826087 	1.3976444 	-0.00033319313 	4.7668002e-09
0.79347826 	1.3926437 	-0.00042329033 	2.9328194e-08
0.80434783 	1.3874465 	-0.00051313483 	-8.1408276e-07
0.81521739 	1.3821322 	-0.00060031706 	9.1152167e-08
0.82608696 	1.3764873 	-0.00068939398 	-2.6242533e-07
0.83695652 	1.3706296 	-0.00077603354 	-3.0606345e-07
0.84782609 	1.3645131 	-0.00086084611 	1.1317538e-07
0.85869565 	1.3579705 	-0.00094715034 	3.3234981e-08
0.86956522 	1.3510358 	-0.0010321644 	-6.0723358e-07
0.88043478 	1.3436497 	-0.0011164457 	-3.9696865e-07
0.89130435 	1.3356803 	-0.0012003463 	1.2045206e-08
0.90217391 	1.3268382 	-0.0012832679 	6.0451095e-08
0.91304348 	1.3165395 	-0.0013638095 	7.063182e-08
0.92391304 	1.3033379 	-0.0014358713 	2.7780431e-08
0.93478261 	1.2830227 	-0.0014799196 	3.0650469e-08
0.94565217 	1.2453222 	-0.0014502916 	2.5588177e-07
0.95652174 	1.170043 	-0.0012819007 	3.3614958e-07
0.9673913 	1.0365174 	-0.00095511515 	9.0145098e-08
0.97826087 	0.82008359 	-0.00054266065 	7.1842332e-07
0.98913043 	0.46229134 	-0.00014289652 	3.3181516e-07
