1.4213861e-19 	0.0084941888 	-5.7688206e-16 	-2.0968136e-22 	3.9178892e-29 	1.424049e-35 	5.1760413e-42
0.010869565 	0.0085164467 	-0.00046386286 	-9.5188023e-08 	0.008759592 	-1.1253858e-05 	0.0055947424
0.02173913 	0.0086258229 	-0.0010960356 	-9.015332e-07 	0.0088433004 	-1.4736892e-05 	0.0051921401
0.032608696 	0.0088887162 	-0.0021537421 	-4.9752636e-07 	0.0090277979 	-2.3728654e-06 	0.0048446303
0.043478261 	0.0093037203 	-0.0036770842 	-2.6921213e-06 	0.0092936446 	-1.1260585e-05 	0.0045852774
0.054347826 	0.0097303191 	-0.0048922556 	2.8316743e-07 	0.009638811 	-7.447639e-07 	0.0025427405
0.065217391 	0.010053478 	-0.0054514918 	-1.1695222e-06 	0.010057013 	-9.5325539e-07 	0.0013286855
0.076086957 	0.010193483 	-0.005589465 	-7.44394e-07 	0.010353215 	-1.4171747e-07 	0.0028378315
0.086956522 	0.010234544 	-0.0055713153 	9.4606274e-06 	0.010596255 	-1.4024903e-05 	0.0032819006
0.097826087 	0.010155621 	-0.0054404838 	1.0906363e-05 	0.010773277 	-1.4581796e-05 	0.0028896432
0.10869565 	0.009953969 	-0.0051909676 	-3.3561004e-06 	0.010877154 	4.4979385e-07 	0.00072369056
0.11956522 	0.0096500064 	-0.0048850739 	1.0831899e-05 	0.01093129 	-1.384057e-05 	0.0020499428
0.13043478 	0.0093043398 	-0.0045693597 	1.1051079e-05 	0.010945569 	-1.5695634e-05 	0.0016282184
0.14130435 	0.0089403374 	-0.0042760517 	1.5174196e-06 	0.010934588 	-2.1551598e-06 	0.0012491722
0.15217391 	0.00863595 	-0.0041313878 	1.3196447e-05 	0.010898892 	-2.864856e-05 	0.00086955086
0.16304348 	0.0083621071 	-0.0040394087 	6.0082311e-08 	0.010860029 	-4.8779953e-07 	0.00051428259
0.17391304 	0.0083020861 	-0.0042123262 	2.94619e-06 	0.0108453 	-2.3919855e-05 	0.00019627727
0.18478261 	0.008278476 	-0.0044154591 	-6.8031014e-07 	0.010843435 	-3.3709538e-06 	0.00016376882
0.19565217 	0.0084640741 	-0.0047874357 	-3.8951523e-06 	0.0109118 	-1.9300578e-05 	0.00046718979
0.20652174 	0.0086857078 	-0.0051854052 	-9.8609144e-08 	0.01100005 	-2.2588523e-07 	0.00081964649
0.2173913 	0.0090496449 	-0.0056421208 	-7.1086397e-06 	0.011170239 	-1.6284064e-05 	0.0011174263
0.22826087 	0.0094191177 	-0.0061015294 	2.7685267e-07 	0.011343182 	-2.7586031e-07 	0.0011672
0.23913043 	0.0098367781 	-0.0065414844 	-3.6417147e-06 	0.01156036 	-1.0703086e-05 	0.0018213139
0.25 	0.010233864 	-0.006958031 	-1.2785775e-06 	0.011758719 	-3.7577642e-06 	0.0021135398
0.26086957 	0.010599832 	-0.0073157677 	5.1166396e-07 	0.011935093 	-4.7735395e-06 	0.0025331658
0.27173913 	0.010878899 	-0.0075830054 	1.3036028e-06 	0.012033549 	-1.2161906e-05 	0.0028116627
0.2826087 	0.011149351 	-0.0078242833 	3.1291211e-06 	0.012104289 	-3.8416491e-06 	0.00022354692
0.29347826 	0.011222363 	-0.0079041427 	7.2934725e-06 	0.012036605 	-1.6089012e-05 	0.0033872402
0.30434783 	0.011257032 	-0.0079404486 	3.9336673e-06 	0.011912218 	-8.6774536e-06 	0.0036378874
0.31521739 	0.011191217 	-0.0078797609 	1.5668492e-06 	0.011682384 	-2.0419583e-06 	0.0020943224
0.32608696 	0.01091436 	-0.007653888 	1.8323252e-05 	0.011283878 	-2.9066567e-05 	0.0038734635
0.33695652 	0.010608795 	-0.0073977346 	3.9612452e-06 	0.010847905 	-6.283796e-06 	0.0040801058
0.34782609 	0.010120655 	-0.0069800465 	1.2446692e-06 	0.010232912 	-1.7711669e-06 	0.0021292882
0.35869565 	0.0094686397 	-0.0064353536 	2.6513844e-05 	0.0095046064 	-3.6017374e-05 	0.0037413985
0.36956522 	0.0087793083 	-0.0058516984 	6.9468688e-06 	0.0087346182 	-9.4368685e-06 	0.0038898164
0.38043478 	0.0078868677 	-0.0050809536 	9.043344e-07 	0.0077730945 	-1.9031599e-06 	0.00080198845
0.39130435 	0.0069675281 	-0.0043257836 	1.9865684e-05 	0.0068438525 	-2.5517465e-05 	0.0028164873
0.40217391 	0.0060301757 	-0.0035633565 	1.7032785e-05 	0.0059003623 	-2.1878606e-05 	0.0029002372
0.41304348 	0.0050187791 	-0.0027561274 	-5.1558785e-07 	0.0048985492 	-4.3750394e-07 	0.00069599061
0.42391304 	0.0040236682 	-0.0019897896 	5.6741179e-07 	0.003950063 	-7.9189751e-07 	0.0014212857
0.43478261 	0.003261754 	-0.0014479985 	2.3266877e-05 	0.0032237134 	-3.2472223e-05 	0.0014525965
0.44565217 	0.0025109476 	-0.00091822253 	-7.8214641e-08 	0.0025080675 	2.6131869e-08 	0.0013830847
0.45652174 	0.0019605599 	-0.00060126526 	-8.8084192e-07 	0.0019883836 	2.9422472e-07 	0.00014317161
0.4673913 	0.0015033509 	-0.00033684446 	2.6095306e-06 	0.0015681877 	-4.0757482e-06 	0.00057460728
0.47826087 	0.0011893308 	-0.00014099778 	5.8533054e-06 	0.0012865915 	-9.1421063e-06 	0.00058380401
0.48913043 	0.00094434029 	2.0467012e-05 	-3.2261102e-07 	0.0010722369 	5.0767272e-08 	0.00039436004
0.5 	0.00084783501 	0.00010550232 	-6.122396e-07 	0.0010068693 	9.6341887e-08 	0.0001709567
0.51086957 	0.0007636249 	0.00017674833 	7.9822991e-07 	0.00095950555 	-7.3270426e-07 	0.00046280021
0.52173913 	0.00070576178 	0.0002289581 	1.020702e-06 	0.00093537899 	-9.3691417e-07 	0.00046850593
0.5326087 	0.00067375154 	0.00026421066 	-4.6824667e-07 	0.00093343295 	-3.8168068e-08 	0.00023467758
0.54347826 	0.00065724748 	0.00028800234 	-4.4813737e-07 	0.00096086213 	-3.6529135e-08 	0.00026503837
0.55434783 	0.00063959309 	0.00030611187 	6.7578525e-08 	0.00098937782 	8.8170778e-08 	0.00051286402
0.56521739 	0.00062967952 	0.00031454085 	1.635232e-08 	0.0010123752 	2.1335509e-08 	0.00051759222
0.57608696 	0.00063770119 	0.00030276559 	-7.8495493e-07 	0.0010249589 	-7.6536726e-08 	5.6933452e-05
0.58695652 	0.00061899305 	0.00030689624 	-3.8826683e-08 	0.0010591364 	-3.7855526e-09 	0.00052380933
0.59782609 	0.00061227309 	0.00030111628 	-2.6546013e-07 	0.0010774561 	-4.2809006e-08 	0.00055154435
0.60869565 	0.00061419579 	0.00029010106 	-4.9571406e-07 	0.0010856696 	-3.4785498e-08 	0.00028267361
0.61956522 	0.00060502765 	0.00028416977 	-4.1366398e-07 	0.001099737 	-2.9027868e-08 	0.0003343855
0.63043478 	0.00058817988 	0.0002784725 	-4.3728292e-07 	0.0011161755 	-2.8201529e-07 	0.0005670542
0.64130435 	0.00058270948 	0.00026456838 	-3.6095461e-07 	0.001119458 	-1.1033602e-08 	0.00039904651
0.65217391 	0.00057453237 	0.0002506532 	-6.6095751e-07 	0.0011211244 	-2.0204172e-08 	0.00025644069
0.66304348 	0.00054860724 	0.00023949206 	-5.4968157e-07 	0.0011332935 	-4.098442e-07 	0.00056761888
0.67391304 	0.00053703816 	0.0002165483 	-4.9446344e-07 	0.0011277364 	-1.8520739e-08 	0.00037923161
0.68478261 	0.00051759325 	0.00019309526 	-6.5477036e-07 	0.0011242504 	-2.4525271e-08 	0.00030853513
0.69565217 	0.00048973345 	0.00017445733 	-5.1697744e-07 	0.001123258 	-6.569541e-07 	0.00055373644
0.70652174 	0.00048648611 	0.00015063873 	-9.8763986e-07 	0.0010964586 	-1.5133401e-07 	0.00021161662
0.7173913 	0.00045286623 	0.00013094038 	-1.023142e-07 	0.0010897612 	-1.5677378e-08 	0.00048982575
0.72826087 	0.00045689575 	0.00013465746 	1.542999e-08 	0.0010666548 	-2.0614646e-07 	0.00052432022
0.73913043 	0.00049164366 	0.0001486691 	-9.6635995e-07 	0.001023282 	-3.07687e-07 	0.00010153785
0.75 	0.00051035436 	0.0001835474 	1.0281939e-06 	0.001025267 	-8.5840314e-08 	0.00050147092
0.76086957 	0.00060645302 	0.00024423653 	-2.7231101e-07 	0.0010335234 	1.46271e-07 	0.00018229715
0.77173913 	0.00070755364 	0.00031976371 	5.3749719e-07 	0.0010735943 	4.871557e-07 	0.00057124144
0.7826087 	0.00090734068 	0.00046287988 	1.6326376e-07 	0.0012169082 	4.7829067e-07 	0.00042483617
0.79347826 	0.0011503377 	0.00063537494 	1.006615e-07 	0.0014138354 	2.9489371e-07 	0.00071455127
0.80434783 	0.0014857175 	0.00088032653 	1.4527196e-07 	0.0017058853 	2.4862156e-07 	0.00079166558
0.81521739 	0.0018953179 	0.0011691911 	5.1596748e-07 	0.0020589917 	8.8303785e-07 	0.00098699309
0.82608696 	0.0023137631 	0.0014256004 	2.6632644e-07 	0.0024269968 	3.9930236e-07 	0.0011798467
0.83695652 	0.0027551791 	0.0016290599 	2.473278e-07 	0.0027996874 	3.7081776e-07 	0.001592697
0.84782609 	0.0030760991 	0.0017639286 	7.0983129e-07 	0.003070284 	9.9764056e-07 	0.001089008
0.85869565 	0.003344105 	0.0018671056 	6.597838e-08 	0.0032925174 	3.332428e-07 	0.0020221383
0.86956522 	0.0034174995 	0.0018710948 	7.6317807e-07 	0.0033321809 	3.029109e-07 	0.00011112517
0.88043478 	0.0033708129 	0.0018265143 	-6.0706349e-07 	0.0032658431 	-1.0270194e-06 	0.0020193982
0.89130435 	0.0031693833 	0.0017031076 	1.7588309e-08 	0.0030471031 	-1.3802138e-07 	0.001611941
0.90217391 	0.0029662807 	0.0015686462 	3.3524087e-07 	0.0028275268 	-6.4494702e-07 	0.00036946586
0.91304348 	0.0026628859 	0.0013803542 	-4.5361329e-07 	0.0025060069 	-6.6765083e-07 	0.001527927
0.92391304 	0.0024635223 	0.0012204362 	-8.7241614e-07 	0.0022829824 	-9.7672057e-07 	0.001340581
0.93478261 	0.0023902823 	0.0011127753 	8.1791305e-08 	0.0021776242 	1.5690251e-07 	0.001240943
0.94565217 	0.002324679 	0.0010257971 	-6.1417538e-07 	0.0020707856 	-1.0441805e-06 	0.0012509045
0.95652174 	0.0021525348 	0.00093195677 	2.1444987e-06 	0.0018894688 	4.565718e-06 	0.00020338415
0.9673913 	0.0018069876 	0.00077379974 	9.3695988e-08 	0.0015608876 	2.0011241e-07 	0.00094885449
0.97826087 	0.0011616422 	0.00048043387 	1.5098565e-06 	0.00097198215 	3.0429437e-06 	0.00011840959
0.98913043 	0.00026172084 	3.6485803e-05 	4.8100099e-08 	0.00023587649 	7.4132944e-07 	1.9579007e-05
