0.4742268 	2.5805491e-05 	-6.7542586e-06 	8.0283791e-10 	2.5762846e-05 	-2.1243859e-09 	7.792253e-06
0.48453608 	0.001803279 	-0.0010090195 	2.942272e-08 	0.0017947007 	-4.5230415e-08 	0.00067871092
0.49484536 	0.00199158 	-0.0010502798 	1.3727589e-06 	0.0019781547 	-2.4450203e-06 	0.00097125966
0.50515464 	0.0012663918 	-0.00062277427 	-2.4216514e-08 	0.0012560905 	3.6096006e-08 	0.00051068048
0.51546392 	0.0010164773 	-0.00047046658 	7.8771659e-08 	0.001009702 	-2.7263502e-08 	0.00048316967
0.5257732 	0.0010169996 	-0.00028708742 	1.8241043e-06 	0.0010196295 	2.1682613e-07 	0.00048990018
0.53608247 	0.0010678933 	-7.5009745e-05 	4.0625079e-07 	0.0010803297 	9.2405241e-08 	0.00051251228
0.54639175 	0.0011259987 	8.0054571e-05 	-1.3189044e-08 	0.0011460003 	-1.5979005e-08 	0.00047229455
0.55670103 	0.001178317 	0.00019574275 	-1.5179799e-08 	0.0012067241 	-2.0649346e-08 	0.00047543835
0.56701031 	0.0012237728 	0.00028795906 	7.1796956e-08 	0.0012593807 	2.3923506e-08 	0.0005924534
0.57731959 	0.0012625897 	0.00036448918 	4.4143327e-07 	0.0013040997 	1.271612e-07 	0.00061569511
0.58762887 	0.0012956664 	0.00042982288 	6.1241603e-07 	0.0013422437 	1.3015629e-07 	0.00063654122
0.59793814 	0.0013238622 	0.00048618043 	1.5484245e-08 	0.0013747728 	1.5243861e-09 	0.00065485017
0.60824742 	0.001347161 	0.00053350649 	-7.4470358e-08 	0.0014004862 	-1.1143465e-07 	1.8331064e-05
0.6185567 	0.0013661031 	0.00057321051 	8.2359711e-08 	0.0014237394 	-7.4797514e-09 	0.00067044406
0.62886598 	0.0013813059 	0.00060596838 	1.8560482e-07 	0.001441418 	-8.5089335e-08 	0.00068300381
0.63917526 	0.0013932432 	0.0006333296 	-5.3199839e-08 	0.0014541543 	-8.5434764e-08 	0.000130389
0.64948454 	0.0014019132 	0.00065310597 	4.7985097e-08 	0.001465044 	-9.8980276e-08 	0.00069233082
0.65979381 	0.001408082 	0.00066471237 	-5.2617535e-09 	0.0014716139 	-2.0118162e-08 	0.00069804228
0.67010309 	0.0014112887 	0.00066925439 	-1.2383287e-08 	0.0014741661 	-2.8525104e-08 	0.00048768002
0.68041237 	0.0014120842 	0.00066971972 	-1.1836181e-07 	0.0014747133 	-2.6859978e-07 	0.00069979943
0.69072165 	0.0014104477 	0.0006687104 	-2.5197964e-08 	0.0014713039 	-5.8052861e-08 	0.00024773029
0.70103093 	0.001406646 	0.00066704831 	-1.9395986e-07 	0.0014673221 	-4.3866055e-07 	0.00069724423
0.71134021 	0.0014006786 	0.00066393084 	-2.511604e-08 	0.0014592253 	-5.7819355e-08 	0.00022699802
0.72164948 	0.0013930419 	0.00066041764 	-1.9629317e-07 	0.0014511904 	-4.4219919e-07 	0.0006901388
0.73195876 	0.0013836817 	0.00065573424 	-1.5296896e-08 	0.0014398387 	-3.5172239e-08 	0.00039548024
0.74226804 	0.0013726146 	0.00065047778 	-1.209015e-07 	0.0014277791 	-2.7183911e-07 	0.00067872454
0.75257732 	0.0013602732 	0.00064442381 	-5.4967667e-09 	0.0014135769 	-1.2601773e-08 	0.00057127138
0.7628866 	0.0013461355 	0.00063758112 	-5.5600601e-08 	0.0013978018 	-1.2492795e-07 	0.00066424642
0.77319588 	0.0013306976 	0.00063002289 	-3.5312419e-09 	0.0013802784 	-8.0624756e-09 	0.00059486573
0.78350515 	0.0013137428 	0.00062177048 	-8.4972251e-08 	0.0013613344 	-1.907601e-07 	0.00064787297
0.79381443 	0.0012955145 	0.00061277081 	-1.1219501e-08 	0.0013404672 	-2.5504513e-08 	0.00042763319
0.80412371 	0.0012756122 	0.00060313929 	-2.198344e-07 	0.0013186029 	-4.9290298e-07 	0.00063004672
0.81443299 	0.0012545462 	0.00059260115 	-2.9231115e-08 	0.0012940201 	-6.6151077e-08 	5.9295004e-05
0.82474227 	0.0012313143 	0.00058151209 	-2.2005906e-07 	0.0012693019 	-4.9232997e-07 	0.00061101
0.83505155 	0.0012066656 	0.00056947249 	-2.836677e-09 	0.0012419473 	-6.3887363e-09 	0.00053793966
0.84536082 	0.0011799094 	0.00055636224 	-1.5655056e-08 	0.0012121309 	-3.5084258e-08 	0.00029315514
0.8556701 	0.0011507238 	0.00054233919 	-2.3285731e-07 	0.0011808666 	-5.1777904e-07 	0.00056983484
0.86597938 	0.0011194167 	0.00052719687 	-7.8035128e-08 	0.0011469372 	-1.7301171e-07 	0.00054789033
0.87628866 	0.0010856613 	0.00051073569 	-2.2125519e-08 	0.0011098212 	-4.9126407e-08 	0.00013877319
0.88659794 	0.0010489878 	0.00049312331 	-1.3944204e-08 	0.0010707242 	-3.085051e-08 	0.00027606559
0.89690722 	0.0010095664 	0.00047420436 	-3.2953599e-08 	0.0010287944 	-7.3011275e-08 	0.00050193161
0.90721649 	0.00096758227 	0.00045383159 	-1.4230396e-07 	0.00098322729 	-3.1667344e-07 	0.00047842236
0.91752577 	0.00092302649 	0.00043202537 	-1.7593579e-07 	0.0009341314 	-3.9389473e-07 	0.00045474389
0.92783505 	0.00087620435 	0.0004089324 	-1.2511079e-07 	0.00088185041 	-2.8104434e-07 	0.00043108057
0.93814433 	0.00083311498 	0.00038769442 	-9.1655167e-11 	0.00083337286 	-2.8342902e-10 	0.00039805311
0.94845361 	0.0008402325 	0.00039704177 	3.6883072e-08 	0.00083611467 	5.576014e-08 	5.1024343e-05
0.95876289 	0.0010257848 	0.00052173954 	2.9585201e-07 	0.0010195375 	4.7151346e-07 	0.00051893166
0.96907216 	0.0013771759 	0.00072466819 	5.6288368e-08 	0.0013680256 	1.2051152e-07 	0.00018414133
0.97938144 	0.0014598114 	0.00080742374 	-1.3853454e-08 	0.0014528153 	-9.8180721e-08 	0.0007249216
0.98969072 	0.00033027867 	0.00015355228 	-2.8590817e-07 	0.00032956625 	-6.032354e-07 	0.00017468028
