0.35555556 	-0.0012401986 	0.026527183 	1.7504777e-05
0.36666667 	-0.088549304 	0.077588009 	0.00026041118
0.37777778 	-0.15298863 	0.1119195 	0.00029095078
0.38888889 	-0.15939076 	0.14168793 	1.0068438e-05
0.4 	-0.09980678 	0.15039677 	3.4242625e-05
0.41111111 	-0.010945218 	0.15725579 	5.682731e-05
0.42222222 	0.097689953 	0.16318647 	4.5800995e-05
0.43333333 	0.22116387 	0.16884884 	2.2091641e-05
0.44444444 	0.35710271 	0.17417315 	-1.0360405e-05
0.45555556 	0.50864265 	0.17382252 	0.00033819438
0.46666667 	0.68198203 	0.17181914 	-3.9307251e-05
0.47777778 	0.86088451 	0.16525264 	-0.00027035314
0.48888889 	1.0319823 	0.15602878 	-0.00023025599
0.5 	1.1889733 	0.13281215 	0.00026481579
0.51111111 	1.3230788 	0.12821993 	-0.00022183845
0.52222222 	1.4141743 	0.11517228 	-0.00018902516
0.53333333 	1.4860483 	0.09353569 	6.0420167e-05
0.54444444 	1.520165 	0.088941504 	-0.00033613244
0.55555556 	1.5396559 	0.069105231 	2.8541788e-05
0.56666667 	1.5436322 	0.067020738 	-0.00017590929
0.57777778 	1.5407885 	0.0535094 	3.3743182e-06
0.58888889 	1.5317538 	0.049223447 	-0.00011585432
0.6 	1.5244479 	0.037789334 	-2.5117425e-06
0.61111111 	1.5135268 	0.035054114 	-0.00011086611
0.62222222 	1.5071541 	0.023657083 	-1.3315792e-05
0.63333333 	1.497571 	0.023826817 	-0.0001290452
0.64444444 	1.4911833 	0.015144181 	-2.0144499e-05
0.65555556 	1.4838917 	0.014944729 	-5.4973738e-05
0.66666667 	1.4765172 	0.011864246 	-1.3558315e-05
0.67777778 	1.471485 	0.007662455 	-2.8431094e-06
0.68888889 	1.4648038 	0.0056485234 	-5.3959872e-05
0.7 	1.460011 	3.6603841e-05 	-3.4660411e-05
0.71111111 	1.4531608 	0.00080437957 	-4.1755934e-05
0.72222222 	1.4471437 	-0.001626214 	-9.7056468e-06
0.73333333 	1.4414239 	-0.0028990273 	-1.7431459e-05
0.74444444 	1.4351486 	-0.0042081859 	-3.3164075e-06
0.75555556 	1.4295174 	-0.0056866815 	-9.1735956e-06
0.76666667 	1.4232249 	-0.0066696064 	-3.4277452e-06
0.77777778 	1.4173317 	-0.0077565888 	-7.3322008e-06
0.78888889 	1.4109504 	-0.0084890687 	-7.7395668e-08
0.8 	1.4047806 	-0.0092582581 	-7.0151565e-06
0.81111111 	1.3986261 	-0.010570318 	-2.4870936e-05
0.82222222 	1.3917389 	-0.0103139 	-2.9480154e-06
0.83333333 	1.3850146 	-0.010749177 	-4.006409e-07
0.84444444 	1.37792 	-0.011089317 	-3.0157613e-06
0.85555556 	1.3702217 	-0.011266569 	9.8390903e-07
0.86666667 	1.3616482 	-0.01143945 	2.2047382e-06
0.87777778 	1.3516193 	-0.011530877 	3.9861675e-07
0.88888889 	1.3380703 	-0.011481598 	1.9733616e-07
0.9 	1.3171431 	-0.011306947 	3.4331614e-06
0.91111111 	1.2845121 	-0.010943072 	7.7021049e-06
0.92222222 	1.2348929 	-0.010347302 	1.1437894e-05
0.93333333 	1.1631021 	-0.0094836867 	1.2405689e-05
0.94444444 	1.0635654 	-0.0083237929 	8.4947607e-06
0.95555556 	0.93746541 	-0.0069664716 	2.7693449e-07
0.96666667 	0.74759152 	-0.0050326899 	4.593661e-07
0.97777778 	0.51552285 	-0.0029305664 	1.4212294e-05
0.98888889 	0.23353428 	-0.00094288778 	4.5732411e-06
