0.12903226 	0.001742824 	-0.00041148461 	2.3664262e-08 	0.0024316969 	8.4527758e-07 	0.00097319079
0.13978495 	0.0013699839 	-0.00024925409 	3.6147048e-06 	0.002310933 	-6.4248019e-06 	0.00012186459
0.15053763 	0.0013204596 	-0.00031913129 	-8.2636168e-08 	0.0021396309 	-4.6417497e-07 	0.00054525277
0.16129032 	0.0012962141 	-0.00032421455 	2.8575691e-07 	0.0020272585 	-4.051035e-07 	0.0003259757
0.17204301 	0.001268146 	-0.00032733194 	-2.3077828e-08 	0.0019663115 	-8.4585818e-07 	0.0002438167
0.1827957 	0.0012512438 	-0.00032181389 	2.1938019e-07 	0.0019214409 	-2.3365459e-07 	6.4519686e-05
0.19354839 	0.0012318129 	-0.00032126003 	1.7641468e-08 	0.0018971085 	-3.3948863e-07 	1.7492071e-05
0.20430108 	0.0012190561 	-0.00031756156 	3.9954802e-09 	0.0018823595 	-7.6947862e-08 	0.00013121114
0.21505376 	0.0012085675 	-0.00031382467 	5.675327e-08 	0.0018756328 	-7.9517002e-07 	0.0002397576
0.22580645 	0.0012012251 	-0.00031078295 	1.1582579e-07 	0.0018756069 	-1.3531193e-06 	0.00034559649
0.23655914 	0.0011981861 	-0.00030903374 	5.6007381e-07 	0.0018765868 	-3.4199689e-07 	0.00034454097
0.24731183 	0.0011994461 	-0.00030725245 	1.8577492e-06 	0.0018773531 	-9.2592419e-07 	0.00019238586
0.25806452 	0.0011931692 	-0.00030248681 	4.1445357e-08 	0.0019053153 	-3.3133379e-07 	0.00065322262
0.2688172 	0.0011996762 	-0.00030166813 	2.1355626e-06 	0.001907032 	-8.4139317e-07 	0.00032791957
0.27956989 	0.001201508 	-0.00029824795 	2.2265943e-06 	0.0019256919 	-6.6301904e-07 	0.00036626059
0.29032258 	0.0012020819 	-0.00029474337 	6.5279173e-07 	0.0019546883 	-1.9438327e-07 	0.00065909811
0.30107527 	0.0012117442 	-0.00029163891 	2.5618316e-06 	0.0019578873 	-5.4237789e-07 	9.9613726e-05
0.31182796 	0.0012111229 	-0.00028712739 	4.5992396e-08 	0.001999254 	-4.0262236e-07 	0.00064904755
0.32258065 	0.0012213033 	-0.00028232581 	2.1341787e-06 	0.0020051415 	-2.9417403e-07 	3.1364696e-05
0.33333333 	0.0012225072 	-0.0002768578 	1.1841005e-07 	0.0020463243 	-6.8584243e-07 	0.00049075298
0.34408602 	0.0012309888 	-0.00027022355 	1.4942176e-06 	0.0020607745 	-1.1821747e-07 	3.0609233e-05
0.35483871 	0.0012337615 	-0.00026311691 	2.3632505e-07 	0.002099493 	-9.3462814e-07 	0.00034201927
0.3655914 	0.0012401547 	-0.00025471961 	6.6170702e-07 	0.0021226844 	-2.6089102e-08 	9.5037596e-05
0.37634409 	0.0012442233 	-0.00024526664 	3.120346e-07 	0.0021572147 	-8.5981188e-07 	0.00020219808
0.38709677 	0.0012489544 	-0.00023482414 	1.03439e-07 	0.0021869256 	-2.8502636e-07 	0.00013329478
0.39784946 	0.0012534832 	-0.00022276519 	3.2357871e-07 	0.002217871 	-6.3641275e-07 	7.0678347e-05
0.40860215 	0.0012575517 	-0.00020942439 	4.6346286e-07 	0.0022489159 	-9.1153609e-07 	8.506895e-06
0.41935484 	0.0012615406 	-0.00019563857 	1.0427585e-07 	0.0022804143 	-1.5264899e-07 	6.4222435e-05
0.43010753 	0.0012647827 	-0.0001790038 	8.2648202e-07 	0.0023124322 	-1.2098836e-06 	0.00012139741
0.44086022 	0.0012680248 	-0.00016236902 	9.8872152e-08 	0.00234445 	-1.4473853e-07 	0.00017857239
0.4516129 	0.0012704948 	-0.0001433073 	3.5387931e-07 	0.0023744059 	-4.0708771e-07 	0.0002374626
0.46236559 	0.0012725127 	-0.00012221674 	6.5014896e-07 	0.0024053981 	-7.4790372e-07 	0.0002869876
0.47311828 	0.0012769241 	-0.00010048459 	7.8652938e-07 	0.0024310331 	-3.6765934e-07 	5.5582228e-05
0.48387097 	0.0012757434 	-7.6745585e-05 	5.1904975e-07 	0.0024616366 	-5.1285427e-07 	0.00039148949
0.49462366 	0.0012764673 	-5.0169363e-05 	4.7995254e-07 	0.002489538 	-4.7422374e-07 	0.00043290414
0.50537634 	0.0012809139 	-2.2458576e-05 	1.0480382e-06 	0.0025085958 	-6.7516625e-07 	2.7038108e-05
0.51612903 	0.0012782305 	4.9455519e-06 	4.7399824e-07 	0.0025342852 	-4.9397198e-07 	0.00052766476
0.52688172 	0.0012788865 	3.7281555e-05 	4.7298295e-07 	0.002553981 	-4.9291391e-07 	0.00056059268
0.53763441 	0.0012837181 	7.0953255e-05 	9.1760872e-07 	0.0025636763 	-8.183097e-07 	6.4555074e-05
0.5483871 	0.0012802427 	9.9581273e-05 	8.2819495e-08 	0.0025832843 	-1.2760997e-07 	0.0006481112
0.55913978 	0.0012847124 	0.00013340471 	6.8108465e-07 	0.0025852863 	-1.0494292e-06 	0.0006722557
0.56989247 	0.0012925179 	0.00016771113 	4.6547337e-07 	0.0025788147 	-3.7719703e-07 	0.00030462524
0.58064516 	0.0012912575 	0.00020086265 	3.0491256e-07 	0.0025866597 	-2.4708634e-07 	0.00048258505
0.59139785 	0.001293778 	0.000231763 	7.4488227e-07 	0.0025852099 	-1.7617176e-06 	0.00076850809
0.60215054 	0.0013062352 	0.00026081393 	1.8955336e-07 	0.0025625818 	-4.4196593e-08 	0.0005675981
0.61290323 	0.0013207806 	0.00028734089 	4.7096176e-07 	0.0025317876 	-1.0981027e-07 	0.00027598899
0.62365591 	0.0013222602 	0.00031434964 	3.0441518e-07 	0.0025252479 	-1.0749818e-06 	0.00085636019
0.6344086 	0.0013344903 	0.00033797486 	1.0612811e-07 	0.002497343 	2.985663e-08 	0.00072050367
0.64516129 	0.0013512349 	0.00035761802 	4.8111638e-07 	0.0024557807 	1.3535069e-07 	0.0002305728
0.65591398 	0.0013555632 	0.00037700071 	1.9437519e-07 	0.0024359822 	-9.9433468e-07 	0.00091498936
0.66666667 	0.001365365 	0.00039605443 	1.5496198e-07 	0.0024044888 	7.5221497e-08 	0.00067654747
0.67741935 	0.0013748447 	0.00041288183 	3.3974279e-07 	0.0023680913 	1.6491762e-07 	0.0004019546
0.68817204 	0.001378496 	0.00042787766 	2.1307664e-07 	0.0023405369 	-1.450681e-06 	0.0009370806
0.69892473 	0.0013850338 	0.00044439226 	2.9451555e-07 	0.0023045592 	1.2213093e-07 	0.00037654898
0.70967742 	0.0013872051 	0.0004574701 	5.2886107e-08 	0.0022711488 	2.193103e-08 	0.00083635454
0.72043011 	0.0013878772 	0.00047171682 	2.7352374e-08 	0.0022387746 	-2.342524e-07 	0.00092751633
0.7311828 	0.0013899166 	0.00048637641 	2.9041745e-07 	0.0021981256 	6.9647702e-08 	0.00023974255
0.74193548 	0.0013856896 	0.00049874702 	1.4128005e-07 	0.0021641773 	-1.3817766e-06 	0.00090616599
0.75268817 	0.0013838161 	0.00051319105 	2.4249181e-07 	0.0021235915 	9.4265098e-09 	0.00021157595
0.76344086 	0.0013762223 	0.00052576513 	6.8222242e-08 	0.0020856458 	-6.9902784e-07 	0.00087090109
0.77419355 	0.0013693959 	0.00053983601 	1.1247889e-07 	0.0020446615 	-1.8779267e-08 	0.00047965811
0.78494624 	0.0013589283 	0.00055321308 	3.4363755e-08 	0.0020023373 	-3.6216473e-07 	0.00082485773
0.79569892 	0.0013476376 	0.00056717313 	6.1247913e-08 	0.0019591975 	-2.3127194e-08 	0.00055917675
0.80645161 	0.0013333393 	0.00058058541 	3.7453571e-08 	0.0019135988 	-4.4813788e-07 	0.00077099096
0.8172043 	0.0013182572 	0.00059350834 	5.0311152e-08 	0.0018669759 	-4.4838783e-08 	0.00043016115
0.82795699 	0.00129925 	0.0006057196 	5.4643553e-08 	0.001818794 	-9.477864e-07 	0.00071208383
0.83870968 	0.0012816979 	0.00061462828 	-1.1328297e-08 	0.0017671519 	-1.3122576e-07 	7.9327349e-05
0.84946237 	0.0012572742 	0.00062434742 	-2.7531671e-08 	0.0017167061 	-1.063459e-06 	0.00065043759
0.86021505 	0.00123732 	0.00062031726 	-2.2085105e-08 	0.0016577524 	-2.7334512e-08 	0.00052224632
0.87096774 	0.0012140373 	0.00061436627 	-4.5559139e-08 	0.0015976689 	-4.5302187e-08 	0.00046218005
0.88172043 	0.001189557 	0.00060094243 	-3.8539592e-07 	0.0015317243 	-1.5150949e-06 	0.00054584248
0.89247312 	0.0011631967 	0.00058576734 	-2.6513712e-08 	0.0014622345 	-9.478467e-08 	0.00050295548
0.90322581 	0.0011337733 	0.00056762126 	-1.143063e-07 	0.0013880942 	-1.424345e-07 	0.00012178139
0.91397849 	0.0010983433 	0.00054619305 	-1.2491106e-07 	0.0013080694 	-4.2039581e-07 	0.00044078118
0.92473118 	0.0010574478 	0.00052091006 	-4.4581152e-07 	0.001219902 	-1.3943743e-06 	0.00039756661
0.93548387 	0.0010089971 	0.00049158158 	-4.8354323e-07 	0.0011264661 	-1.3969621e-06 	0.00035358621
0.94623656 	0.00094914377 	0.0004567461 	-4.7149833e-07 	0.0010253088 	-1.2792531e-06 	0.00031361355
0.95698925 	0.00087714193 	0.00041798211 	-6.4295138e-08 	0.00092035129 	-1.2716848e-07 	3.8746797e-06
0.96774194 	0.00079152193 	0.00038830926 	-1.1480182e-08 	0.00081906808 	-4.7038946e-08 	0.00023603999
0.97849462 	0.00057181869 	0.00029208183 	-2.8262605e-07 	0.00058677342 	-4.8611292e-07 	0.0001409597
0.98924731 	0.00010896111 	5.1022824e-05 	-5.7906163e-07 	0.00011050405 	-1.255629e-06 	2.5482963e-05
