0.4 	1.2154821e-07 	-3.5097542e-10 	-1.8162391e-11 	1.2191805e-07 	3.611502e-10 	6.2026688e-09
0.41111111 	0.00049228567 	9.4462449e-06 	1.9176595e-06 	0.0006667493 	1.1046272e-06 	9.8276159e-05
0.42222222 	0.0018023261 	-0.00081852567 	-1.5116904e-06 	0.0023109963 	1.9715897e-06 	0.0012945177
0.43333333 	0.0036886587 	-0.0021206566 	5.6494528e-06 	0.0043836187 	-6.6055857e-06 	0.00090081873
0.44444444 	0.0051449263 	-0.0032395849 	1.4269178e-07 	0.0058569085 	1.4901315e-06 	0.0030494701
0.45555556 	0.0051822005 	-0.0035474365 	-8.2253236e-06 	0.0055306561 	1.6932417e-05 	2.8250451e-05
0.46666667 	0.0047801766 	-0.0034833305 	-1.1831311e-05 	0.0047437568 	1.6620828e-05 	0.0013908295
0.47777778 	0.0037852495 	-0.0027608412 	-1.3132541e-05 	0.0034472238 	1.5575677e-05 	0.0013946707
0.48888889 	0.0026656965 	-0.0018843157 	-1.5293439e-05 	0.0022081127 	1.6746952e-05 	0.00078626643
0.5 	0.0018335321 	-0.0012449802 	-1.8330141e-05 	0.0013748313 	1.8348879e-05 	0.0002620327
0.51111111 	0.0013402837 	-0.00083625027 	-1.8229471e-05 	0.00092948236 	1.5987012e-05 	3.2901094e-05
0.52222222 	0.00078530294 	-0.00039509094 	-6.791962e-06 	0.00050771259 	4.1837293e-06 	0.00013045458
0.53333333 	0.00061970313 	-0.00020647564 	-6.2184416e-07 	0.0003810283 	-5.1730548e-07 	0.00038702904
0.54444444 	0.00082838652 	-0.00025555364 	-5.8990393e-07 	0.00047330184 	-4.9073299e-07 	0.00058939724
0.55555556 	0.00080308945 	-0.00019342382 	-1.623853e-07 	0.00044482126 	-3.4207611e-06 	0.0001668548
0.56666667 	0.00094530522 	-0.00025718556 	-6.6038978e-07 	0.00056852511 	-5.1122526e-07 	0.00047105961
0.57777778 	0.0010503203 	-0.00032543781 	-2.1958473e-07 	0.00063842283 	-1.699847e-07 	0.00079791549
0.58888889 	0.0009579089 	-0.00018214524 	-2.6837023e-06 	0.00064181167 	3.5212925e-06 	4.3513568e-05
0.6 	0.001114028 	-0.00029898659 	-5.9091553e-07 	0.00064805058 	9.12857e-07 	0.0008088761
0.61111111 	0.0010646864 	-0.0001762485 	-2.5470258e-06 	0.00068657593 	3.9346823e-06 	0.00035997496
0.62222222 	0.0011076199 	-0.00016591389 	-1.9479403e-06 	0.00069127332 	2.6876214e-06 	0.00057783945
0.63333333 	0.0010951205 	-7.8075471e-05 	-2.3077619e-06 	0.00073074481 	3.1840754e-06 	0.00051583292
0.64444444 	0.001090827 	-2.8122516e-05 	-2.4409087e-06 	0.0007668243 	3.2039764e-06 	0.00051117288
0.65555556 	0.0010823757 	4.6268044e-05 	-2.4149135e-06 	0.00080470646 	3.1698544e-06 	0.00052539616
0.66666667 	0.0010847356 	9.9055563e-05 	-1.7853547e-06 	0.00082509242 	2.5550655e-06 	0.00059160648
0.67777778 	0.0010540274 	0.00016228477 	-2.7325095e-06 	0.00088102246 	3.9105613e-06 	0.0003974795
0.68888889 	0.0010924967 	0.0002117901 	-6.2124174e-07 	0.00085622272 	1.0604103e-06 	0.00080129971
0.7 	0.0010281872 	0.00026393113 	-2.7432642e-06 	0.00093635792 	4.6825307e-06 	0.00015792408
0.71111111 	0.001091195 	0.00030608569 	3.7662546e-08 	0.00088005728 	6.6140422e-09 	0.0010061213
0.72222222 	0.0010227038 	0.00034405649 	-1.7879639e-06 	0.00095279186 	4.0501935e-06 	8.6771218e-05
0.73333333 	0.0010644549 	0.00038084777 	-1.8945159e-07 	0.00090927266 	4.2915637e-07 	0.00091707205
0.74444444 	0.001019669 	0.00040421004 	-7.0481981e-07 	0.00094777766 	2.8368191e-06 	0.00019784382
0.75555556 	0.0010382072 	0.00043309941 	-1.4207954e-07 	0.00091771434 	5.7185402e-07 	0.00085369712
0.76666667 	0.0010015423 	0.00043911755 	-1.4290325e-07 	0.00093876163 	2.3266224e-06 	0.00017086635
0.77777778 	0.0010122628 	0.00044931613 	-1.4823482e-08 	0.00090784993 	2.4134269e-07 	0.00092702962
0.78888889 	0.00097265762 	0.00044123757 	9.1151505e-08 	0.00092235594 	2.134209e-06 	8.0316509e-06
0.8 	0.00097485258 	0.00043723943 	1.8644865e-08 	0.00089066719 	2.4116576e-07 	0.00081493692
0.81111111 	0.0009458624 	0.00042805791 	7.7528978e-08 	0.00088502214 	1.0028141e-06 	0.00034234349
0.82222222 	0.00092725887 	0.00041942595 	7.4674714e-08 	0.00086544532 	7.2449849e-07 	0.00036914406
0.83333333 	0.00090915529 	0.00040985651 	1.5711817e-09 	0.00084195902 	1.5243701e-08 	0.00083066671
0.84444444 	0.00087973221 	0.00039901816 	7.9629025e-08 	0.00082726486 	6.4549692e-07 	0.00023868617
0.85555556 	0.00085614565 	0.00038826778 	6.3783861e-08 	0.00080547889 	4.5282434e-07 	0.00025721749
0.86666667 	0.00083303465 	0.00037733172 	7.7586393e-09 	0.00078292976 	4.9138955e-08 	0.00065277058
0.87777778 	0.00080720536 	0.00036688446 	5.4023994e-09 	0.00076562111 	3.4215827e-08 	0.00063630777
0.88888889 	0.00078678229 	0.00035892726 	1.9411646e-08 	0.00075340804 	1.177589e-07 	0.00036392554
0.9 	0.00078486458 	0.00036030132 	-4.3357511e-09 	0.00075731789 	6.5390897e-08 	0.00018893915
0.91111111 	0.00083534122 	0.00039722323 	-9.2680138e-08 	0.00081053274 	-8.0032012e-08 	0.00011207157
0.92222222 	0.0009913328 	0.00050574061 	-1.6332499e-07 	0.00096521741 	-2.0821431e-07 	0.00016117868
0.93333333 	0.0012730492 	0.00068141515 	-9.7505853e-08 	0.0012433096 	-1.5609215e-07 	0.00044230977
0.94444444 	0.0016206032 	0.00086946451 	-3.6023885e-09 	0.0015887515 	-9.9273256e-09 	0.0011165947
0.95555556 	0.0019017912 	0.0010002887 	4.7812622e-08 	0.0018707471 	1.1579385e-07 	0.0014011897
0.96666667 	0.0019311387 	0.00099381279 	-2.2918345e-07 	0.0019055347 	-3.6379028e-07 	0.0013967685
0.97777778 	0.0014449973 	0.00076197291 	1.6059498e-07 	0.0014277947 	5.1506199e-07 	0.00017333698
0.98888889 	0.0002757225 	0.00012784868 	9.7599302e-08 	0.00027415705 	2.1016396e-07 	4.8329285e-05
