0.17894737 	0.00028320068 	-5.3815278e-05 	4.379329e-07 	0.00013034695 	-1.4990673e-06 	0.00010329286
0.18947368 	0.0014092108 	-8.7690591e-05 	7.2319376e-07 	0.0023980651 	1.0969902e-06 	0.00069160784
0.2 	0.0012866607 	-6.8207701e-05 	-1.8194257e-07 	0.0023779433 	-4.4776642e-07 	0.00045537306
0.21052632 	0.0012613185 	-0.00012805096 	-3.5337278e-07 	0.00223932 	-1.4027145e-06 	0.00028823372
0.22105263 	0.0012375356 	-0.00015366349 	-6.6091358e-08 	0.0021557685 	-4.6721329e-07 	0.00014801502
0.23157895 	0.001218579 	-0.00016685764 	-1.7006258e-07 	0.0021039565 	-1.535071e-06 	2.3300333e-05
0.24210526 	0.0012035965 	-0.00017285688 	-7.3308525e-08 	0.0020732605 	-1.3835149e-06 	0.00010248895
0.25263158 	0.0011917925 	-0.00017502554 	-4.6023524e-08 	0.0020551648 	-1.5209437e-06 	0.00021507805
0.26315789 	0.0011832371 	-0.00017592789 	-1.8136853e-08 	0.0020460927 	-8.860319e-07 	0.00032422906
0.27368421 	0.0011783596 	-0.00017678516 	4.0091426e-07 	0.0020422936 	-4.2081477e-07 	0.00031611964
0.28421053 	0.0011779267 	-0.00017753048 	1.4408669e-06 	0.002040907 	-1.2863221e-06 	0.00012802319
0.29473684 	0.0011734116 	-0.00017403754 	5.2378331e-10 	0.0020580245 	-3.370412e-08 	0.0006382509
0.30526316 	0.0011742066 	-0.00017240591 	6.3881249e-07 	0.0020680958 	-4.8143521e-07 	0.0005627872
0.31578947 	0.0011805887 	-0.00017132634 	2.8076572e-06 	0.0020725019 	-1.7727761e-06 	6.339934e-05
0.32631579 	0.0011765975 	-0.00016552482 	3.310568e-07 	0.002103407 	-1.7439391e-07 	0.00077484994
0.33684211 	0.0011841003 	-0.00016247189 	1.5519605e-06 	0.0021137841 	-8.1754257e-07 	0.00031813178
0.34736842 	0.0011859486 	-0.00015652518 	7.567152e-07 	0.0021381452 	-3.3320858e-07 	0.00048371437
0.35789474 	0.0011897152 	-0.00015079626 	3.5271381e-07 	0.0021616121 	-1.5531246e-07 	0.00053291413
0.36842105 	0.0011951976 	-0.00014346923 	7.0148789e-07 	0.002182049 	-2.6208168e-07 	0.0003491721
0.37894737 	0.0011983816 	-0.00013575007 	3.5382988e-08 	0.0022097759 	-1.8030656e-07 	0.0004949225
0.38947368 	0.0012034536 	-0.0001263781 	1.9829161e-07 	0.0022327624 	-6.5203678e-08 	0.00035977364
0.4 	0.001208054 	-0.00011665252 	8.444816e-08 	0.0022592496 	-3.0538122e-07 	0.00035802359
0.41052632 	0.0012125174 	-0.00010527667 	8.5076953e-08 	0.0022843551 	-3.0765506e-07 	0.00028924563
0.42105263 	0.0012172876 	-9.3370564e-05 	8.7802842e-08 	0.0023103933 	-2.3769045e-07 	0.00023000536
0.43157895 	0.0012215116 	-7.9763746e-05 	3.1523824e-07 	0.0023357921 	-8.5337919e-07 	0.0001679017
0.44210526 	0.0012258364 	-6.5940695e-05 	1.5413578e-08 	0.0023615382 	-4.9456058e-09 	0.00010482945
0.45263158 	0.0012295117 	-4.9809153e-05 	6.3170588e-07 	0.0023863141 	-1.355434e-06 	5.4954752e-05
0.46315789 	0.0012332361 	-3.3683896e-05 	2.053905e-07 	0.0024110426 	-4.4070076e-07 	9.3554596e-06
0.47368421 	0.001236584 	-1.589976e-05 	4.1430062e-07 	0.0024349891 	-7.4304852e-07 	6.2463002e-05
0.48421053 	0.0012396861 	3.005989e-06 	6.1381327e-07 	0.0024583526 	-1.1008746e-06 	0.00011176039
0.49473684 	0.0012436798 	2.1290003e-05 	3.3850862e-07 	0.0024796763 	-2.3316815e-07 	1.2873607e-05
0.50526316 	0.0012452291 	4.3632659e-05 	6.5005015e-07 	0.0025007126 	-1.0431124e-06 	0.00020843284
0.51578947 	0.0012475799 	6.5932171e-05 	4.5724265e-07 	0.0025205124 	-7.3372104e-07 	0.00024938765
0.52631579 	0.0012508241 	8.7468665e-05 	3.1653824e-07 	0.0025365736 	-2.6160783e-07 	0.00013340941
0.53684211 	0.0012518317 	0.00011296691 	7.571353e-07 	0.0025520214 	-1.1864601e-06 	0.00033322199
0.54736842 	0.0012535543 	0.00013871992 	4.1740415e-07 	0.0025661414 	-6.5408836e-07 	0.00036538297
0.55789474 	0.0012567067 	0.0001629591 	4.6275826e-07 	0.0025748077 	-4.931066e-07 	0.00010483424
0.56842105 	0.0012570591 	0.0001899145 	6.188252e-07 	0.0025835389 	-1.0715084e-06 	0.00043721355
0.57894737 	0.0012584599 	0.00021775746 	5.5875684e-07 	0.0025896559 	-9.6749878e-07 	0.00046023654
0.58947368 	0.0012612271 	0.00024402397 	4.2081405e-07 	0.0025907174 	-6.2922229e-07 	0.00010064248
0.6 	0.0012621733 	0.00027028242 	2.5871052e-07 	0.0025907478 	-6.0836348e-07 	0.00051995571
0.61052632 	0.0012656588 	0.00029730504 	6.8133852e-07 	0.0025839634 	-1.6021825e-06 	0.00053396293
0.62105263 	0.0012697463 	0.00032320841 	1.7669514e-07 	0.0025742738 	-3.2489615e-07 	0.00030729177
0.63157895 	0.001270204 	0.00034872049 	2.0693987e-08 	0.0025665061 	-7.372165e-08 	0.00057814644
0.64210526 	0.0012762716 	0.00037220032 	5.6804883e-07 	0.0025461155 	-2.0236553e-06 	0.00058402712
0.65263158 	0.0012832432 	0.00039432481 	1.3044152e-07 	0.0025224632 	-1.9661798e-07 	0.00035972059
0.66315789 	0.0012825481 	0.00041856134 	1.9058064e-08 	0.0025071163 	-1.0997941e-07 	0.00060917726
0.67368421 	0.0012890754 	0.00043696149 	3.1014839e-07 	0.0024776199 	-1.7897903e-06 	0.00060816366
0.68421053 	0.0012992421 	0.00045125431 	2.0505995e-07 	0.0024392822 	-1.9145204e-07 	0.00020476401
0.69473684 	0.0013007496 	0.00046878731 	8.3633029e-08 	0.0024109917 	-8.5494611e-07 	0.00061683203
0.70526316 	0.001306251 	0.00048267736 	8.7705135e-08 	0.0023748999 	-8.9657358e-07 	0.00061009751
0.71578947 	0.0013139751 	0.0004923885 	1.8266253e-07 	0.0023303679 	-9.9316964e-08 	0.00022638062
0.72631579 	0.0013142446 	0.00050580651 	1.5214768e-07 	0.0022947289 	-2.2449345e-06 	0.00059994549
0.73684211 	0.0013173259 	0.00051674288 	1.0971958e-07 	0.0022527095 	-4.0343655e-08 	0.00034408817
0.74736842 	0.0013160341 	0.00052814209 	5.9548249e-08 	0.0022115033 	-9.4580072e-07 	0.00057651418
0.75789474 	0.0013140453 	0.00053988009 	2.8700284e-08 	0.002169971 	-4.5584463e-07 	0.00056163189
0.76842105 	0.0013105644 	0.00055073607 	1.1360555e-08 	0.0021251123 	-1.7696971e-07 	0.00054226678
0.77894737 	0.0013043854 	0.00056271583 	6.7429661e-08 	0.0020812364 	-1.0503895e-06 	0.0005248031
0.78947368 	0.0012974224 	0.00057388783 	1.5271416e-08 	0.0020345962 	-9.5839243e-09 	0.00044691537
0.8 	0.001287055 	0.00058603022 	7.571006e-08 	0.0019884597 	-1.2079482e-06 	0.00048063289
0.81052632 	0.0012759516 	0.00059720017 	1.2753751e-09 	0.0019399203 	-3.9505943e-08 	0.0004518914
0.82105263 	0.0012622871 	0.00060716016 	3.0871527e-08 	0.0018903381 	-9.5627459e-07 	0.00043151027
0.83157895 	0.0012484023 	0.00061311571 	-2.1627479e-08 	0.0018371241 	-6.3519603e-07 	0.00040073946
0.84210526 	0.0012321688 	0.00061816308 	-9.8050742e-09 	0.0017834298 	-2.8797365e-07 	0.00037974831
0.85263158 	0.0012159935 	0.00061454576 	-2.3212168e-07 	0.0017240855 	-1.7085515e-06 	0.00034805425
0.86315789 	0.0011984693 	0.00060998638 	-7.3480704e-08 	0.0016635518 	-8.6104213e-08 	9.8783307e-05
0.87368421 	0.0011781286 	0.00059969222 	-2.362127e-07 	0.0015997858 	-1.1092925e-06 	0.00029495299
0.88421053 	0.0011562465 	0.00058756445 	-3.5510596e-07 	0.0015324369 	-1.4908278e-06 	0.00026337788
0.89473684 	0.0011323723 	0.00057358583 	-9.50236e-09 	0.0014620372 	-1.1915643e-08 	0.00020097091
0.90526316 	0.0011047195 	0.00055665812 	-1.1571436e-07 	0.0013863771 	-4.5177901e-07 	0.00021226894
0.91578947 	0.0010730592 	0.00053664844 	-4.4292787e-07 	0.0013039224 	-1.6055738e-06 	0.00018271464
0.92631579 	0.0010355176 	0.00051281612 	-6.4383988e-07 	0.0012147061 	-2.1304303e-06 	0.00015408468
0.93684211 	0.00099057096 	0.00048483413 	-4.7741617e-07 	0.0011203181 	-1.431561e-06 	0.0001265498
0.94736842 	0.00093493439 	0.00045167725 	-4.9275932e-07 	0.0010199916 	-1.3687228e-06 	0.00010193245
0.95789474 	0.0008634534 	0.00041266146 	-7.9401694e-08 	0.00091200799 	-2.1083083e-07 	8.0899446e-05
0.96842105 	0.00077307023 	0.00038003467 	-1.6101597e-07 	0.00080340185 	-6.2773032e-07 	5.8079054e-05
0.97894737 	0.00054853658 	0.00027797231 	-3.0604405e-07 	0.00056408739 	-5.4786786e-07 	2.6884391e-05
0.98947368 	0.00010684124 	5.0030449e-05 	-6.727833e-07 	0.00010836857 	-1.4600221e-06 	3.6267586e-06
