0.24742268 	9.3529055e-08 	-1.3356127e-09 	1.7785549e-11 	9.156877e-08 	-1.0664162e-09 	2.7393863e-08
0.25773196 	0.0016622884 	-0.00054345191 	2.2303197e-08 	0.0011765233 	2.1702695e-06 	0.00078433244
0.26804124 	0.0013274368 	8.9310427e-05 	3.5869645e-08 	0.0023369014 	-1.4539383e-06 	0.00028041475
0.27835052 	0.001296648 	6.6886918e-05 	-7.5798813e-08 	0.0023106077 	-1.6262298e-07 	0.00032511804
0.28865979 	0.0012739457 	2.3995825e-05 	9.8396896e-08 	0.0022488558 	-2.2348472e-07 	0.00013246037
0.29896907 	0.0012519216 	9.2409998e-06 	-1.8055411e-07 	0.0022125211 	-1.4491622e-06 	6.1606669e-05
0.30927835 	0.0012351031 	5.41411e-06 	-9.7584336e-08 	0.002192386 	-1.3930261e-06 	6.4035652e-05
0.31958763 	0.0012219377 	5.7042477e-06 	-3.9422841e-08 	0.0021821041 	-9.0760365e-07 	0.00017719459
0.32989691 	0.0012126045 	8.2810776e-06 	-6.2320174e-09 	0.0021800242 	-3.0899037e-07 	0.00028745996
0.34020619 	0.0012061462 	1.1385038e-05 	3.9157576e-07 	0.0021822302 	-6.3325683e-07 	0.00016991274
0.35051546 	0.0012025312 	1.6448636e-05 	4.6408894e-07 	0.0021906967 	-6.6338942e-07 	0.00024378255
0.36082474 	0.0012007113 	2.4136604e-05 	6.0173572e-09 	0.0022050203 	-2.1864294e-07 	0.00060229182
0.37113402 	0.0011999867 	3.1206019e-05 	2.4949555e-07 	0.0022188168 	-3.1714842e-07 	0.00057453649
0.3814433 	0.0012008492 	3.6038116e-05 	1.4590352e-06 	0.0022306034 	-1.6644773e-06 	5.6402287e-05
0.39175258 	0.0012020618 	4.810515e-05 	2.2796014e-07 	0.002254234 	-2.3622514e-07 	0.0007906263
0.40206186 	0.0012045046 	5.5333545e-05 	1.0550667e-06 	0.0022699203 	-1.09332e-06 	0.00040239237
0.41237113 	0.0012072988 	6.5383301e-05 	8.6514957e-07 	0.0022898625 	-8.2761494e-07 	0.00044194482
0.42268041 	0.0012101526 	7.6887936e-05 	3.1318178e-07 	0.0023119296 	-2.9959436e-07 	0.00066953527
0.43298969 	0.0012140984 	8.6120253e-05 	9.3139116e-07 	0.002329144 	-8.3976534e-07 	0.00027819104
0.44329897 	0.001217127 	9.9909952e-05 	1.7348092e-08 	0.0023532542 	-8.2421278e-08 	0.00071179608
0.45360825 	0.0012214737 	0.00011015061 	6.9061573e-07 	0.0023699967 	-6.0247292e-07 	0.00028012894
0.46391753 	0.0012247953 	0.00012448878 	4.4054473e-08 	0.0023926836 	-1.8249551e-07 	0.00059801626
0.4742268 	0.0012287234 	0.00013712945 	1.8840898e-07 	0.0024105274 	-1.6409203e-07 	0.00043362855
0.48453608 	0.001232431 	0.00015116775 	1.9471963e-08 	0.0024302456 	-7.2835451e-08 	0.00049473578
0.49484536 	0.0012359662 	0.00016529671 	1.1095276e-07 	0.0024471154 	-4.1502206e-07 	0.00043965217
0.50515464 	0.0012398866 	0.00017903845 	2.998953e-07 	0.0024630472 	-2.7029741e-07 	0.00022304793
0.51546392 	0.0012427893 	0.0001950898 	3.6043174e-07 	0.0024789802 	-1.2494125e-06 	0.00035377185
0.5257732 	0.0012460272 	0.00021015105 	9.217465e-08 	0.0024928759 	-8.9620695e-08 	0.00024903336
0.53608247 	0.0012488248 	0.00022681371 	2.0261816e-07 	0.0025058348 	-6.7958684e-07 	0.00027689274
0.54639175 	0.0012513722 	0.00024321451 	3.1089865e-07 	0.0025162653 	-1.0427626e-06 	0.00023809727
0.55670103 	0.0012541647 	0.0002594562 	2.1478054e-07 	0.0025257085 	-2.3648149e-07 	4.8528642e-05
0.56701031 	0.0012558701 	0.00027753356 	4.3300917e-07 	0.0025326031 	-1.4850019e-06 	0.0001778259
0.57731959 	0.001257699 	0.00029491424 	3.2269496e-07 	0.0025379012 	-1.1066801e-06 	0.00014788543
0.58762887 	0.0012595085 	0.00031281858 	1.4177673e-08 	0.0025426174 	-5.4421379e-08 	0.00012439501
0.59793814 	0.001260521 	0.00033041394 	5.3635607e-07 	0.0025415701 	-2.0588173e-06 	0.00010362675
0.60824742 	0.0012615336 	0.00034800931 	3.9771083e-07 	0.0025405228 	-1.5266238e-06 	8.2858501e-05
0.6185567 	0.0012625474 	0.00036589815 	8.2181863e-09 	0.002539031 	-3.7083346e-08 	6.5137338e-05
0.62886598 	0.0012627228 	0.00038323906 	4.9853634e-07 	0.0025308917 	-2.2495712e-06 	5.3342004e-05
0.63917526 	0.0012628982 	0.00040057996 	4.3979027e-07 	0.0025227525 	-1.9844883e-06 	4.1546671e-05
0.64948454 	0.0012631009 	0.00041793398 	1.2682214e-08 	0.0025144399 	-3.0248675e-08 	7.9337417e-06
0.65979381 	0.0012623675 	0.00043465382 	4.2575412e-07 	0.0024987456 	-2.3810765e-06 	2.6752008e-05
0.67010309 	0.001261628 	0.00045126987 	3.5520314e-07 	0.0024828754 	-1.9865124e-06 	2.2940094e-05
0.68041237 	0.0012607902 	0.00046774872 	3.9079599e-08 	0.0024660489 	-2.9729349e-07 	2.0308869e-05
0.69072165 	0.0012590899 	0.00048283929 	3.8867706e-07 	0.0024425424 	-2.9568154e-06 	2.3169097e-05
0.70103093 	0.0012573896 	0.00049792986 	1.8141865e-07 	0.0024190359 	-1.3801212e-06 	2.6029324e-05
0.71134021 	0.0012553201 	0.00051227817 	1.0706118e-07 	0.0023922591 	-1.2085842e-06 	3.1605958e-05
0.72164948 	0.001252703 	0.00052553053 	2.5568884e-07 	0.0023613447 	-2.8864007e-06 	3.988567e-05
0.73195876 	0.001250086 	0.00053878288 	6.7720829e-09 	0.0023304303 	-7.6448174e-08 	4.8165382e-05
0.74226804 	0.0012467168 	0.0005501617 	1.365275e-07 	0.0022930398 	-2.7547489e-06 	6.0715513e-05
0.75257732 	0.0012432225 	0.00056129753 	5.2002265e-08 	0.0022552161 	-1.0492625e-06 	7.3268015e-05
0.7628866 	0.0012392555 	0.00057111634 	2.1415574e-08 	0.0022136441 	-1.7409024e-06 	8.7683405e-05
0.77319588 	0.0012347774 	0.00057980924 	2.0187293e-08 	0.0021695858 	-1.6410537e-06 	0.00010349131
0.78350515 	0.001229911 	0.00058749594 	-2.8048533e-08 	0.0021232695 	-1.1177522e-06 	0.00011943497
0.79381443 	0.0012240947 	0.00059336885 	-4.487712e-08 	0.0020738599 	-1.7883823e-06 	0.00013760453
0.80412371 	0.0012177594 	0.00059820431 	-5.9718383e-08 	0.0020227937 	-9.3656896e-07 	0.00015437722
0.81443299 	0.001210006 	0.00060089139 	-9.3095184e-08 	0.0019691022 	-1.4600205e-06 	0.00017417835
0.82474227 	0.001201253 	0.00060211161 	-1.2515582e-07 	0.0019138265 	-1.2174465e-06 	0.00019092931
0.83505155 	0.0011909066 	0.00060141276 	-6.8261242e-08 	0.0018567872 	-6.6400754e-07 	0.00021173819
0.84536082 	0.0011786567 	0.00059850061 	-2.7303796e-07 	0.0017977905 	-1.9605553e-06 	0.00022759533
0.8556701 	0.0011654949 	0.00059434534 	-6.1753805e-08 	0.0017372066 	-1.0050303e-07 	2.5519541e-05
0.86597938 	0.0011488508 	0.00058736688 	-2.4106467e-07 	0.0016746474 	-1.4175248e-06 	0.00026311026
0.87628866 	0.0011310818 	0.00057899733 	-2.233608e-07 	0.0016097494 	-1.1521656e-06 	0.00027523396
0.88659794 	0.0011120003 	0.00056901544 	-7.4335941e-08 	0.001541666 	-1.1082093e-07 	8.6836138e-06
0.89690722 	0.001089659 	0.00055655326 	-1.5729599e-07 	0.001469755 	-7.4293174e-07 	0.00030597347
0.90721649 	0.0010656858 	0.00054200459 	-4.3599075e-07 	0.0013925702 	-1.9159951e-06 	0.00031294103
0.91752577 	0.0010389422 	0.00052484762 	-2.3768278e-07 	0.001309483 	-9.5843206e-07 	0.0003168993
0.92783505 	0.0010076786 	0.00050401517 	-3.5052471e-08 	0.001218939 	-1.2560805e-07 	0.00031704805
0.93814433 	0.00096774479 	0.00047756806 	-3.1272158e-08 	0.0011194742 	-5.9571856e-08 	0.00015788176
0.94845361 	0.00091818835 	0.00044670996 	-3.5370361e-08 	0.0010195053 	-7.1015766e-08 	0.00012594976
0.95876289 	0.00084473975 	0.0004054516 	-2.8328257e-07 	0.00090265828 	-7.5841307e-07 	0.00030325266
0.96907216 	0.00074453119 	0.0003641473 	-2.6143516e-07 	0.00077913755 	-9.0785946e-07 	0.00027695468
0.97938144 	0.00051216895 	0.00025243822 	-4.8553912e-08 	0.00052801263 	-8.3406614e-08 	0.00016753959
0.98969072 	9.8169059e-05 	4.5947512e-05 	-1.1049804e-07 	9.9479815e-05 	-2.3967302e-07 	3.2344122e-05
