1.4213861e-19 	0.61400147 	-4.1699853e-14 	-1.5156793e-20
0.010869565 	0.6145311 	-0.00012542065 	1.5055475e-08
0.02173913 	0.61674625 	-0.00024057115 	5.0184887e-08
0.032608696 	0.6213044 	-0.00032542703 	3.691609e-08
0.043478261 	0.62962623 	-0.00034460237 	6.9084829e-07
0.054347826 	0.64223878 	-0.00025678754 	2.1266424e-07
0.065217391 	0.65830393 	-0.00018688227 	1.2271164e-06
0.076086957 	0.67260067 	-0.00024489419 	8.2290472e-07
0.086956522 	0.68807467 	-0.00039374544 	-2.0885041e-06
0.097826087 	0.70329624 	-0.00067432547 	-4.8440892e-06
0.10869565 	0.71782585 	-0.0011548907 	5.3533664e-06
0.11956522 	0.73161621 	-0.0018945872 	-8.3278962e-06
0.13043478 	0.74482018 	-0.0028259645 	-1.5355348e-05
0.14130435 	0.75700648 	-0.0040364783 	-2.1082462e-06
0.15217391 	0.76884057 	-0.0055305855 	-3.9942033e-05
0.16304348 	0.78042385 	-0.0071359831 	-8.2936801e-07
0.17391304 	0.79265162 	-0.008948067 	-4.0674522e-05
0.18478261 	0.80517374 	-0.010745891 	-5.9608167e-06
0.19565217 	0.81963832 	-0.012455809 	-3.4129066e-05
0.20652174 	0.83445501 	-0.014135512 	-3.1413318e-07
0.2173913 	0.85221906 	-0.015510689 	-2.2658168e-05
0.22826087 	0.8700752 	-0.016864869 	1.5138306e-06
0.23913043 	0.89094036 	-0.017878465 	-3.5705767e-06
0.25 	0.91206674 	-0.018843479 	-1.2533109e-06
0.26086957 	0.93499722 	-0.019576732 	3.0936777e-06
0.27173913 	0.95887866 	-0.020159143 	7.8813476e-06
0.2826087 	0.98368972 	-0.020489041 	1.037589e-05
0.29347826 	1.0089556 	-0.020961922 	1.5246318e-05
0.30434783 	1.0347022 	-0.021212087 	8.2232511e-06
0.31521739 	1.0615247 	-0.021211973 	4.6432164e-06
0.32608696 	1.0879627 	-0.021307488 	2.7248772e-05
0.33695652 	1.1146065 	-0.021264768 	5.891315e-06
0.34782609 	1.1421179 	-0.02093238 	3.8336177e-06
0.35869565 	1.1681609 	-0.020793092 	3.2164034e-05
0.36956522 	1.1942299 	-0.020483073 	8.4277066e-06
0.38043478 	1.2205887 	-0.019730846 	5.177464e-06
0.39130435 	1.2438606 	-0.019566695 	2.3563487e-05
0.40217391 	1.2659806 	-0.019065042 	2.020335e-05
0.41304348 	1.286887 	-0.018124052 	4.4070468e-06
0.42391304 	1.3051523 	-0.017967469 	7.3473462e-07
0.43478261 	1.3173569 	-0.017659035 	3.0117665e-05
0.44565217 	1.3291769 	-0.0173292 	4.9526595e-07
0.45652174 	1.3343431 	-0.016931234 	5.5748078e-06
0.4673913 	1.3382562 	-0.0173927 	3.3870852e-06
0.47826087 	1.3397409 	-0.017528024 	7.5972792e-06
0.48913043 	1.3398158 	-0.017529388 	3.4719694e-06
0.5 	1.3369092 	-0.017712007 	6.5888663e-06
0.51086957 	1.3341352 	-0.018486146 	-2.3228624e-07
0.52173913 	1.3313333 	-0.018886265 	-2.9703627e-07
0.5326087 	1.3282109 	-0.019001118 	6.731536e-06
0.54347826 	1.3248317 	-0.019572744 	6.4424346e-06
0.55434783 	1.3216637 	-0.020490634 	-4.5062175e-06
0.56521739 	1.3186313 	-0.021072814 	-1.0903779e-06
0.57608696 	1.315334 	-0.021097118 	1.6038085e-05
0.58695652 	1.3122342 	-0.022602177 	7.9331018e-07
0.59782609 	1.3093343 	-0.023405475 	-8.2435536e-06
0.60869565 	1.3062256 	-0.023799721 	1.1776174e-05
0.61956522 	1.3030884 	-0.024869401 	9.8269927e-06
0.63043478 	1.3002098 	-0.026222579 	-1.4289346e-05
0.64130435 	1.2971816 	-0.026898654 	9.340822e-06
0.65217391 	1.2938808 	-0.027834108 	1.7104324e-05
0.66304348 	1.2910737 	-0.029625928 	-1.6320264e-05
0.67391304 	1.2881699 	-0.030432069 	1.3057729e-05
0.68478261 	1.2850997 	-0.031770752 	1.7291092e-05
0.69565217 	1.2827234 	-0.033764244 	-1.9448604e-05
0.70652174 	1.2801019 	-0.034417809 	2.9747235e-05
0.7173913 	1.2779361 	-0.037039904 	3.0816548e-06
0.72826087 	1.2759267 	-0.038762446 	-5.5084647e-06
0.73913043 	1.273067 	-0.039394709 	4.7106894e-05
0.75 	1.2705844 	-0.042693067 	-2.2768902e-05
0.76086957 	1.2656501 	-0.043388947 	4.6021559e-05
0.77173913 	1.2605087 	-0.046734266 	-3.9690597e-06
0.7826087 	1.2498399 	-0.04781182 	2.2491485e-05
0.79347826 	1.2366224 	-0.049822631 	1.3867294e-05
0.80434783 	1.2164597 	-0.051149702 	7.0874723e-06
0.81521739 	1.1905172 	-0.051833288 	2.5172822e-05
0.82608696 	1.1570181 	-0.052668225 	1.1259863e-05
0.83695652 	1.1165307 	-0.052954664 	1.0456631e-05
0.84782609 	1.0670542 	-0.052089863 	4.4325974e-05
0.85869565 	1.0107341 	-0.05246439 	9.520358e-06
0.86956522 	0.94776772 	-0.049469617 	0.00010818608
0.88043478 	0.87715837 	-0.050560199 	1.0430627e-05
0.89130435 	0.80210927 	-0.048919585 	1.1650393e-05
0.90217391 	0.71968139 	-0.045643328 	8.4281947e-05
0.91304348 	0.62895939 	-0.045176442 	7.6944046e-06
0.92391304 	0.53239691 	-0.042041994 	2.5113846e-05
0.93478261 	0.42853967 	-0.037586401 	3.7320289e-06
0.94565217 	0.31746755 	-0.031803539 	3.7489437e-05
0.95652174 	0.21965864 	-0.024290785 	7.0509199e-05
0.9673913 	0.12700741 	-0.018095441 	2.58974e-06
0.97826087 	0.055218069 	-0.011220423 	2.8494678e-05
0.98913043 	0.0060393155 	-0.004658669 	4.0806963e-06
