0.4641652576 	0.03755153738 	-0.001116512137 	-4.919248815e-06
0.4651990941 	0.1448266511 	-0.004275790207 	-1.92425452e-05
0.4662329504 	0.2879628484 	-0.008456109306 	-3.855419055e-05
0.467266816 	0.4239930494 	-0.01240181811 	-5.70298178e-05
0.4683006803 	0.5421210409 	-0.01580672915 	-7.322695769e-05
0.4693345329 	0.6467313942 	-0.01879064017 	-8.764656822e-05
0.4709260673 	0.74407124 	-0.02151831618 	-0.0001013147911
0.4727241214 	0.8266689899 	-0.02378084845 	-0.0001130486161
0.4747554116 	0.8941023093 	-0.02557570146 	-0.0001227800876
0.4770589516 	0.9508630067 	-0.02703103503 	-0.000131092611
0.4796634245 	0.9999600351 	-0.02823356094 	-0.0001383912006
0.4826056984 	1.043571141 	-0.02924469634 	-0.0001449721532
0.4859295513 	1.083280174 	-0.03010704791 	-0.0001510423518
0.4896996368 	1.120128344 	-0.03084710737 	-0.0001567492285
0.4939594095 	1.154796175 	-0.03147999052 	-0.00016214244
0.4987781099 	1.190706146 	-0.03205476853 	-0.000167414914
0.5060766604 	1.229179916 	-0.03255790623 	-0.0001736099697
0.5139128031 	1.266089235 	-0.03291612734 	-0.0001790436014
0.5223216845 	1.299668271 	-0.03311268161 	-0.0001836244302
0.5313471393 	1.330643662 	-0.03315731352 	-0.0001873140164
0.5410351781 	1.3592835 	-0.03305012134 	-0.0001900695958
0.5514342349 	1.385504494 	-0.0327902571 	-0.0001918516166
0.5625954391 	1.409157252 	-0.0323826144 	-0.000192596518
0.5745729139 	1.430068873 	-0.03183503524 	-0.0001921897334
0.5874240993 	1.447747439 	-0.03115036546 	-0.000190419624
0.6012101002 	1.461290114 	-0.03032241069 	-0.000187073863
0.6159964431 	1.469843931 	-0.02934663207 	-0.0001819652881
0.6318568963 	1.473423781 	-0.02823220524 	-0.0001748811348
0.6488617476 	1.473135743 	-0.02701499089 	-0.0001663981282
0.6670934663 	1.470213078 	-0.02571536916 	-0.0001568053046
0.6866360874 	1.465153558 	-0.0243156339 	-0.0001456941302
0.7075804079 	1.458112679 	-0.02282308255 	-0.0001336721129
0.7300239977 	1.449293119 	-0.02128867368 	-0.0001216086815
0.7524754674 	1.438643726 	-0.01976958245 	-0.0001100436032
0.7734422652 	1.426001974 	-0.01829901347 	-9.921704265e-05
0.7930211359 	1.411477591 	-0.01689032254 	-8.93076494e-05
0.8113031807 	1.395253818 	-0.01554481531 	-8.034178766e-05
0.8283739048 	1.377243183 	-0.01425711389 	-7.208723394e-05
0.844313407 	1.357278547 	-0.01302458762 	-6.448234441e-05
0.8591964582 	1.335477168 	-0.01185150531 	-5.753000634e-05
0.8730930293 	1.312181958 	-0.01074320354 	-5.119886993e-05
0.8860684419 	1.287708519 	-0.009700671313 	-4.544361663e-05
0.8981837067 	1.262244904 	-0.008723032696 	-4.021055383e-05
0.9094958036 	1.235847238 	-0.007807968101 	-3.544408315e-05
0.9200579402 	1.208449173 	-0.00695186102 	-3.109110886e-05
0.9299198015 	1.179852451 	-0.006149954273 	-2.71018983e-05
0.9391277838 	1.149691366 	-0.005396462594 	-2.34290801e-05
0.9477252122 	1.117368792 	-0.004684876952 	-2.002646447e-05
0.9557525438 	1.081962414 	-0.004008178125 	-1.684786412e-05
0.9632475577 	1.045098598 	-0.003403019321 	-1.404633003e-05
0.968207324 	1.010736146 	-0.002916231954 	-1.185946953e-05
0.9725972846 	0.9775912715 	-0.002510606603 	-1.006018542e-05
0.9764828888 	0.942427717 	-0.002141661217 	-8.449932666e-06
0.9799220711 	0.9046283567 	-0.00180524609 	-7.00620725e-06
0.9829661133 	0.863302686 	-0.00149794051 	-5.710516466e-06
0.9856604081 	0.8171642549 	-0.001217463856 	-4.553306761e-06
0.9880451351 	0.7643933415 	-0.000962806399 	-3.530786822e-06
0.9901558588 	0.7023868744 	-0.0007341622811 	-2.639723504e-06
0.9920240589 	0.6273509096 	-0.0005326338678 	-1.878261643e-06
0.9936775992 	0.5399106832 	-0.0003687439072 	-1.276883325e-06
0.9947517089 	0.4470830429 	-0.0002462585856 	-8.391641188e-07
0.995825826 	0.344984511 	-0.0001485873856 	-4.968944494e-07
0.9968999504 	0.2312470384 	-7.166100706e-05 	-2.364169468e-07
0.9979740823 	0.1149236359 	-2.819937576e-05 	-1.134439899e-07
0.9990482216 	0.03212279625 	-9.234445366e-06 	-5.290858193e-08
