0.3814433 	1.6541877e-05 	-1.6077771e-06 	-6.4551295e-08 	1.5624231e-05 	5.8126315e-07 	9.8372642e-07
0.39175258 	0.0062478009 	-0.0020740839 	-8.4528547e-07 	0.0051929964 	3.1289244e-06 	0.00011543432
0.40206186 	0.0034848676 	-0.0010567832 	-4.4722833e-07 	0.0030976627 	2.3484701e-07 	0.0021784252
0.41237113 	0.0027489379 	-0.00046847972 	-1.427417e-06 	0.0030078734 	-2.6288935e-06 	0.00071235049
0.42268041 	0.0026089007 	-0.00017175068 	-6.1814074e-07 	0.0033672033 	-2.7327257e-06 	0.00090403309
0.43298969 	0.0025547093 	2.3056261e-05 	-6.9363059e-07 	0.0036494787 	-3.9157886e-06 	0.00018023876
0.44329897 	0.0025063144 	0.00016671964 	-2.8445356e-07 	0.0038443275 	-1.8384274e-06 	0.00068313212
0.45360825 	0.0024512158 	0.00028431989 	-1.2609954e-07 	0.0039736564 	-8.1236453e-07 	0.00082787548
0.46391753 	0.0023864692 	0.00039163997 	-9.7326169e-08 	0.0040602048 	-5.3654851e-07 	0.00068008287
0.4742268 	0.0023293748 	0.00047787129 	-8.9802681e-08 	0.0040598644 	-4.583754e-07 	0.00032158195
0.48453608 	0.0022784179 	0.00055017986 	1.0588701e-08 	0.004027215 	-1.1673864e-07 	0.0002976359
0.49484536 	0.0022357834 	0.00060538148 	3.6549612e-07 	0.0039706277 	-1.2271512e-06 	0.00054328387
0.50515464 	0.0021998797 	0.00064446019 	4.2575458e-07 	0.0039152974 	-2.6846188e-06 	0.00041641898
0.51546392 	0.0021688576 	0.00067397151 	2.1507978e-08 	0.0038660044 	-5.0346069e-07 	0.00029163709
0.5257732 	0.002143542 	0.00069335727 	5.1179918e-08 	0.0038261872 	-1.1980242e-06 	0.00017396626
0.53608247 	0.0021221885 	0.0007064059 	-1.1392113e-07 	0.0037953305 	-2.9410368e-06 	6.5677415e-05
0.54639175 	0.0021026426 	0.0007172467 	-9.7121051e-09 	0.0037684478 	-1.2194621e-07 	5.5112976e-05
0.55670103 	0.0020872188 	0.00072498123 	-1.9575655e-07 	0.003750816 	-2.4579399e-06 	0.00015069609
0.56701031 	0.0020727605 	0.00073243281 	-5.3737232e-08 	0.0037348593 	-5.995474e-07 	0.00024392123
0.57731959 	0.0020611481 	0.00073967889 	-1.4539663e-07 	0.0037240342 	-1.6221932e-06 	0.00032556765
0.58762887 	0.0020505746 	0.00074692938 	-4.3833474e-08 	0.0037146603 	-5.3967255e-07 	0.00040605082
0.59793814 	0.002042412 	0.00075498674 	-1.1474558e-07 	0.0037088385 	-1.412734e-06 	0.00047356209
0.60824742 	0.0020348853 	0.00076295138 	-4.6980336e-09 	0.0037037785 	-7.1685503e-08 	0.00054468122
0.6185567 	0.0020299816 	0.00077214664 	-1.099871e-07 	0.0037021743 	-1.6782512e-06 	0.00059809769
0.62886598 	0.0020253511 	0.00078091812 	2.1998739e-07 	0.0036992542 	-9.8980103e-08 	0.00015331012
0.63917526 	0.0020230085 	0.00079097665 	-8.8305393e-08 	0.0037029702 	-1.7726536e-06 	0.00070286098
0.64948454 	0.0020211495 	0.00080095395 	5.5686168e-08 	0.0037052752 	-2.1017093e-08 	0.0005888765
0.65979381 	0.0020202802 	0.00081034928 	-2.138387e-08 	0.0037114463 	-5.3102559e-07 	0.00079130032
0.67010309 	0.0020209932 	0.00082106061 	-3.7409077e-08 	0.0037184301 	-9.2897951e-07 	0.00081703182
0.68041237 	0.002021424 	0.00083076926 	1.7965026e-07 	0.0037247334 	-5.1428692e-08 	0.00020876734
0.69072165 	0.0020259437 	0.00084248676 	-1.4365192e-08 	0.0037348253 	-1.3612416e-06 	0.00088061586
0.70103093 	0.0020328257 	0.0008544811 	6.4862554e-09 	0.0037412589 	-7.396982e-09 	0.00085678082
0.71134021 	0.0020493518 	0.00086469915 	6.4690954e-09 	0.0037390314 	-1.7074639e-07 	0.00093619278
0.72164948 	0.0020710202 	0.00087935974 	3.8277261e-08 	0.003736423 	-1.0102964e-06 	0.00093776753
0.73195876 	0.0020988884 	0.00089496249 	7.5126797e-08 	0.0037274363 	-1.9808582e-07 	0.00027821229
0.74226804 	0.0021329435 	0.00091383413 	2.0523522e-07 	0.0037229875 	-1.7451979e-06 	0.00097034563
0.75257732 	0.0021683927 	0.00093341703 	5.1755508e-08 	0.0037161272 	-1.558861e-07 	0.0003051083
0.7628866 	0.0022077411 	0.00095572638 	1.9731672e-07 	0.0037182273 	-1.0328215e-06 	0.00098797289
0.77319588 	0.002248617 	0.00097746466 	8.7761546e-09 	0.0037184792 	-7.1583911e-08 	0.00060410563
0.78350515 	0.0022934929 	0.00099846782 	1.4442736e-07 	0.0037249544 	-7.6801601e-07 	0.00098945381
0.79381443 	0.0023395196 	0.0010191226 	-3.6388864e-09 	0.0037306415 	-6.039664e-08 	0.00057741813
0.80412371 	0.0023890278 	0.0010388648 	1.2393653e-07 	0.0037424661 	-7.8556839e-07 	0.00097455506
0.81443299 	0.0024394512 	0.0010568459 	-2.6384584e-08 	0.0037514843 	-1.0293577e-07 	0.00013137069
0.82474227 	0.0024933661 	0.0010736106 	5.2060553e-08 	0.0037679295 	-6.9637279e-07 	0.00094390112
0.83505155 	0.002548272 	0.001088477 	-9.9354797e-11 	0.0037820028 	-2.4627098e-10 	0.00093526864
0.84536082 	0.0026054481 	0.0011009385 	-5.1891188e-09 	0.0037962237 	-1.7190313e-07 	0.00089859516
0.8556701 	0.0026637731 	0.0011110218 	-8.3045513e-08 	0.003809535 	-6.3116453e-07 	0.00088238495
0.86597938 	0.0027228629 	0.0011193479 	-8.7639295e-09 	0.0038209637 	-1.8170064e-08 	0.00067801839
0.87628866 	0.002783263 	0.0011255093 	-2.3891496e-08 	0.0038306978 	-1.1841333e-07 	0.00081457962
0.88659794 	0.0028437648 	0.0011298089 	-1.6182816e-07 	0.0038356424 	-7.076476e-07 	0.00078401345
0.89690722 	0.002904727 	0.00113328 	-1.3517795e-07 	0.003836377 	-6.3238984e-07 	0.0007483616
0.90721649 	0.0029667183 	0.001136525 	-4.1933704e-08 	0.0038316116 	-2.4495491e-07 	0.00070848903
0.91752577 	0.0030302907 	0.0011407951 	-9.035534e-10 	0.0038214401 	-1.1871593e-08 	0.00055631918
0.92783505 	0.0030986973 	0.001149246 	7.4032938e-09 	0.003804347 	-4.2918977e-08 	0.00015912507
0.93814433 	0.0031756591 	0.0011637326 	1.70508e-08 	0.00378564 	-2.0357646e-08 	0.00022189764
0.94845361 	0.0032687476 	0.0011928648 	3.7671835e-08 	0.0037741136 	-7.2972569e-08 	0.00052518452
0.95876289 	0.0033925529 	0.0012339506 	3.9486258e-07 	0.0037775851 	-1.4262944e-07 	0.00047784715
0.96907216 	0.0035885476 	0.0013110815 	4.7242059e-07 	0.0038411436 	4.3991453e-07 	0.00043886222
0.97938144 	0.0039032631 	0.0014291732 	1.5017427e-07 	0.0040264218 	2.5227778e-07 	0.0004017432
0.98969072 	0.003977009 	0.0014526373 	-1.4347643e-06 	0.0039953119 	-4.108306e-06 	0.00035237512
