0.4 	3.7468689e-05 	-2.8647133e-06 	3.3646971e-09 	3.9361599e-05 	-1.7006975e-08 	2.7381395e-06
0.41111111 	0.0060980122 	-0.0022785971 	-1.8126147e-07 	0.0073261328 	2.1269659e-06 	0.0010583087
0.42222222 	0.0064167191 	-0.0023606854 	1.3057298e-07 	0.0073037402 	-7.9029362e-07 	0.0043748668
0.43333333 	0.0062233463 	-0.0022503288 	-1.0851257e-06 	0.0067051587 	2.9594619e-06 	0.0012490334
0.44444444 	0.0059614533 	-0.0021217681 	-4.7175184e-07 	0.0061074532 	9.0022012e-07 	0.0035351889
0.45555556 	0.0056955375 	-0.0019771551 	-2.0856992e-06 	0.0055319038 	3.1942084e-06 	3.0320874e-05
0.46666667 	0.005428915 	-0.0018330121 	-1.421349e-06 	0.0050084983 	1.7371622e-06 	0.0018184071
0.47777778 	0.0051695904 	-0.0016934699 	-1.1746229e-06 	0.0045289786 	1.1381873e-06 	0.0025043454
0.48888889 	0.0049188832 	-0.0015615825 	-1.3408046e-06 	0.0040902844 	1.0204788e-06 	0.0023373413
0.5 	0.0046782993 	-0.0014370059 	-1.8956617e-06 	0.0036886465 	1.1160661e-06 	0.0015447659
0.51111111 	0.0044502142 	-0.0013189564 	-2.779819e-06 	0.0033204887 	1.2173969e-06 	0.00032710316
0.52222222 	0.0042367314 	-0.0012041139 	-2.1666302e-06 	0.0029810439 	6.0767309e-07 	0.0013399875
0.53333333 	0.0040385742 	-0.0010945119 	-8.3165955e-07 	0.0026700526 	1.2609284e-07 	0.0031952929
0.54444444 	0.0038643712 	-0.00099361689 	-7.8894221e-07 	0.0023896846 	1.1961621e-07 	0.0030395817
0.55555556 	0.0037035326 	-0.00091755169 	-2.834844e-06 	0.0021590805 	3.3425193e-07 	0.00065955672
0.56666667 	0.0035640466 	-0.00083451534 	-1.749426e-06 	0.0019494254 	2.6015641e-07 	0.0018593106
0.57777778 	0.0034442108 	-0.00076840019 	-5.8169785e-07 	0.0017681076 	8.6504044e-08 	0.0028187802
0.58888889 	0.003335247 	-0.000696456 	-3.3205983e-06 	0.0016675101 	5.3463059e-07 	0.00014351241
0.6 	0.0032605225 	-0.00063720442 	-5.6497337e-07 	0.0015455544 	6.9270741e-08 	0.0026829873
0.61111111 	0.0032143622 	-0.00053355954 	-2.4352068e-06 	0.0014807024 	2.9857794e-07 	0.0011423145
0.62222222 	0.0032030891 	-0.00040252343 	-1.8001008e-06 	0.0014066947 	-5.9409416e-08 	0.0018343061
0.63333333 	0.0032276625 	-0.00019379119 	-2.1326136e-06 	0.0013515763 	-7.0383462e-08 	0.0016079002
0.64444444 	0.0032748276 	3.6722791e-05 	-1.7482977e-06 	0.0013331276 	-5.2484969e-07 	0.0015931086
0.65555556 	0.0033399443 	0.00030793482 	-1.7296787e-06 	0.0013569914 	-5.1926015e-07 	0.0016252552
0.66666667 	0.0034155206 	0.00052389507 	-7.4101532e-07 	0.0014210446 	-4.1950982e-07 	0.0018303441
0.67777778 	0.0034961808 	0.00067453695 	-1.134134e-06 	0.0015422859 	-6.4206546e-07 	0.0012351902
0.68888889 	0.0035923835 	0.00080931133 	-2.1458858e-07 	0.0016537661 	-1.4013775e-07 	0.0024927694
0.7 	0.0037204574 	0.00088940074 	-9.4757506e-07 	0.0017659228 	-6.1881687e-07 	0.00051737264
0.71111111 	0.0038551631 	0.00096902198 	1.1828339e-07 	0.0018794794 	1.6996853e-07 	0.0033101878
0.72222222 	0.0040021083 	0.0010554632 	-1.0342347e-06 	0.0020141512 	-9.4259549e-07 	0.00028350917
0.73333333 	0.004165501 	0.0011479839 	-1.0958689e-07 	0.0021589351 	-9.9876856e-08 	0.003271501
0.74444444 	0.0043289028 	0.0012446329 	-8.3974062e-07 	0.002320311 	-9.7647997e-07 	0.00070419551
0.75555556 	0.0045065027 	0.0013511265 	-1.6927725e-07 	0.0024984107 	-1.9684155e-07 	0.0033281778
0.76666667 	0.0046842457 	0.0014491049 	-5.9241895e-07 	0.0026750107 	-9.5037503e-07 	0.00066466141
0.77777778 	0.0048777367 	0.0015578409 	-6.1452147e-08 	0.002868079 	-9.8583252e-08 	0.003977854
0.78888889 	0.0050552647 	0.0016184081 	-2.3234556e-07 	0.0030629946 	-1.0021501e-06 	3.5585848e-05
0.8 	0.0052496138 	0.0016888494 	-4.6895126e-09 	0.0032798028 	-1.3896858e-07 	0.0038624427
0.81111111 	0.0054293465 	0.0017361296 	-1.9499907e-08 	0.0035062031 	-5.7785841e-07 	0.0017902278
0.82222222 	0.005613676 	0.0017932553 	-7.8842178e-08 	0.0037486925 	-5.0678249e-07 	0.0019312029
0.83333333 	0.0058032276 	0.0018580212 	-1.6588666e-09 	0.0040091686 	-1.0662878e-08 	0.0047893501
0.84444444 	0.0059836192 	0.0019256115 	-1.182176e-07 	0.0042677958 	-4.8842303e-07 	0.0015121635
0.85555556 	0.0061736222 	0.0019998757 	-6.5010753e-08 	0.0045363852 	-3.3519165e-07 	0.0016304866
0.86666667 	0.0063700925 	0.0020798628 	3.7812918e-09 	0.0048150947 	-3.4079083e-08 	0.0045370102
0.87777778 	0.0065636364 	0.0021565881 	2.6329421e-09 	0.0050930385 	-2.3729524e-08 	0.0048151472
0.88888889 	0.0067537502 	0.0022304221 	7.0798717e-08 	0.0053709502 	-6.7103697e-08 	0.0029526859
0.9 	0.0069431675 	0.0023042063 	1.7795898e-07 	0.0056546295 	-6.189584e-09 	0.0015752503
0.91111111 	0.0071307101 	0.0023770679 	2.6262376e-07 	0.0059426289 	1.0123882e-07 	0.00087017069
0.92222222 	0.0073124594 	0.0024481185 	2.8245021e-07 	0.0062360535 	1.88967e-07 	0.0010417039
0.93333333 	0.0074849296 	0.0025165347 	2.0990252e-07 	0.0065290809 	1.8830894e-07 	0.0023119106
0.94444444 	0.007635817 	0.0025738801 	4.038795e-08 	0.0068180079 	4.392306e-08 	0.0049111186
0.95555556 	0.0077382459 	0.0026193633 	-5.4449223e-09 	0.0070738398 	7.9365867e-08 	0.005532743
0.96666667 	0.007742206 	0.0026137635 	-1.158801e-07 	0.007244822 	1.6555853e-08 	0.0054708348
0.97777778 	0.0074978319 	0.0025288789 	-1.6368834e-07 	0.0071858362 	-3.8371831e-07 	0.0009623684
0.98888889 	0.0062724992 	0.0021545477 	-4.9747904e-07 	0.00614373 	-1.1913851e-06 	0.00091623962
