0 	0.8011152 	-5.4407665e-14 	-1.9775746e-20
0.010869565 	0.80154341 	-0.00047965281 	1.2259383e-07
0.02173913 	0.80273498 	-0.00094782409 	3.2570505e-08
0.032608696 	0.80470111 	-0.001413527 	1.4133806e-08
0.043478261 	0.80743143 	-0.0018728386 	9.1752212e-08
0.054347826 	0.81089673 	-0.0023266882 	5.7042139e-07
0.065217391 	0.81538339 	-0.0027968131 	9.691233e-07
0.076086957 	0.81986704 	-0.003186678 	9.6457689e-07
0.086956522 	0.82515766 	-0.0035876645 	1.0135197e-07
0.097826087 	0.83115485 	-0.003983 	1.2014727e-07
0.10869565 	0.8378767 	-0.0043644352 	2.2558357e-06
0.11956522 	0.84470006 	-0.0047146667 	6.3835125e-07
0.13043478 	0.85221335 	-0.0050532838 	8.4796661e-07
0.14130435 	0.86033842 	-0.0053711523 	2.8540189e-06
0.15217391 	0.86828183 	-0.0056630892 	1.4438982e-07
0.16304348 	0.87744062 	-0.0059343166 	3.713214e-06
0.17391304 	0.88604072 	-0.0061806065 	4.5744653e-07
0.18478261 	0.89586558 	-0.0063992872 	3.630633e-06
0.19565217 	0.9050956 	-0.0065990089 	3.0160885e-07
0.20652174 	0.91555444 	-0.0067619211 	3.6982884e-06
0.2173913 	0.92521836 	-0.0069125536 	1.2212557e-06
0.22826087 	0.93621734 	-0.0070165254 	3.4943017e-06
0.23913043 	0.94632818 	-0.0071139374 	3.546318e-07
0.25 	0.95742686 	-0.0071643278 	1.7918031e-06
0.26086957 	0.96828524 	-0.0071980804 	1.5795285e-06
0.27173913 	0.97908721 	-0.0072114798 	6.346035e-07
0.2826087 	0.9906861 	-0.0071739479 	2.9651668e-06
0.29347826 	1.0012118 	-0.0071450353 	1.5528612e-07
0.30434783 	1.0124524 	-0.007064973 	5.5395246e-07
0.31521739 	1.023639 	-0.0069614058 	1.7599204e-06
0.32608696 	1.0341619 	-0.0068575669 	4.9800584e-06
0.33695652 	1.0449892 	-0.006713374 	5.7886396e-07
0.34782609 	1.0555286 	-0.0065518601 	1.2349351e-06
0.35869565 	1.0654296 	-0.0063904382 	6.6782569e-06
0.36956522 	1.0753254 	-0.0062017572 	2.0994893e-07
0.38043478 	1.0848546 	-0.0059927083 	1.1494385e-06
0.39130435 	1.0936001 	-0.0057961418 	4.3971044e-06
0.40217391 	1.1020584 	-0.0055786102 	3.7206473e-06
0.41304348 	1.1101027 	-0.0053446786 	9.4539046e-07
0.42391304 	1.1174193 	-0.0051270687 	1.2206435e-07
0.43478261 	1.1239331 	-0.0048984077 	1.2406326e-05
0.44565217 	1.1302384 	-0.0046662361 	1.4381637e-07
0.45652174 	1.1356658 	-0.0044292127 	6.6073531e-07
0.4673913 	1.140398 	-0.0042045919 	4.5439341e-06
0.47826087 	1.1443296 	-0.0039671843 	9.8053209e-06
0.48913043 	1.1479255 	-0.0037251601 	2.4065674e-07
0.5 	1.1506162 	-0.0034745358 	4.3822549e-07
0.51086957 	1.152653 	-0.0032169501 	7.6418753e-06
0.52173913 	1.1540736 	-0.0029467209 	8.8665448e-06
0.5326087 	1.155034 	-0.0026681527 	2.8142029e-07
0.54347826 	1.1551767 	-0.0023699262 	2.2121244e-07
0.55434783 	1.1546144 	-0.0020847034 	1.0712323e-05
0.56521739 	1.1537979 	-0.0018057792 	4.5356862e-06
0.57608696 	1.1523255 	-0.0015458877 	4.0704586e-07
0.58695652 	1.1503035 	-0.0012932251 	2.3648091e-06
0.59782609 	1.1477403 	-0.0010640115 	8.2600714e-06
0.60869565 	1.1450299 	-0.00084267556 	9.047016e-08
0.61956522 	1.141706 	-0.00064499029 	4.2330134e-08
0.63043478 	1.1378534 	-0.0004506914 	8.2193299e-06
0.64130435 	1.133948 	-0.00025729878 	2.2670603e-09
0.65217391 	1.1294743 	-7.262717e-05 	5.1331477e-08
0.66304348 	1.1245414 	0.00010747918 	6.4246343e-06
0.67391304 	1.1195257 	0.00028483509 	1.8624091e-09
0.68478261 	1.1140295 	0.00044992347 	7.9645628e-09
0.69565217 	1.1080836 	0.00060752869 	4.8295257e-06
0.70652174 	1.1020516 	0.00075981175 	-1.7109879e-08
0.7173913 	1.0955232 	0.00090169593 	1.1551448e-06
0.72826087 	1.0886914 	0.0010340386 	1.858071e-06
0.73913043 	1.0816847 	0.0011551847 	-8.0984419e-08
0.75 	1.0741273 	0.0012654084 	2.6813691e-06
0.76086957 	1.0664779 	0.0013662581 	-8.8312654e-08
0.77173913 	1.0583357 	0.0014515234 	8.2515652e-07
0.7826087 	1.0499655 	0.0015275877 	1.4171369e-07
0.79347826 	1.0412507 	0.0015859177 	1.4109122e-07
0.80434783 	1.0321645 	0.001631885 	1.7932388e-07
0.81521739 	1.0228089 	0.0016625341 	-2.1423844e-08
0.82608696 	1.013024 	0.0016781637 	-4.0913098e-08
0.83695652 	1.0029398 	0.0016770481 	-2.5740038e-07
0.84782609 	0.99245623 	0.0016602703 	-1.4105731e-08
0.85869565 	0.98153307 	0.0016214165 	-1.0393961e-06
0.86956522 	0.97033878 	0.0015725477 	-3.7145047e-07
0.88043478 	0.95839746 	0.0015000819 	-1.3253503e-06
0.89130435 	0.94608834 	0.0014043742 	-6.1507776e-07
0.90217391 	0.93312517 	0.0013043531 	-2.667207e-07
0.91304348 	0.91914808 	0.001185939 	-1.30159e-06
0.92391304 	0.90449748 	0.0010349478 	-2.1188517e-06
0.93478261 	0.88841832 	0.0008778114 	-6.7940942e-07
0.94565217 	0.86854672 	0.00071715459 	-1.7321975e-06
0.95652174 	0.84552162 	0.00053618806 	-1.4806563e-07
0.9673913 	0.81412797 	0.00035703243 	-4.3057587e-07
0.97826087 	0.76375929 	0.00022367492 	-5.4392549e-08
0.98913043 	0.63822811 	0.00063784172 	-1.0833188e-08
