0 	0.0044755248 	-3.0395485e-16 	-1.1047954e-22 	2.0643066e-29 	7.5032082e-36 	2.7272176e-42
0.010869565 	0.0044885939 	-0.00014842031 	3.7229703e-08 	0.0050032513 	-1.7392648e-05 	0.0016961861
0.02173913 	0.0045431983 	-0.0002940295 	5.8782252e-09 	0.0050581445 	-1.215389e-05 	0.001990434
0.032608696 	0.0046317463 	-0.00043989485 	1.9579205e-09 	0.0051463272 	-2.5208364e-06 	0.0022912756
0.043478261 	0.0047514093 	-0.00058505354 	1.3305756e-08 	0.0052650688 	-6.8753351e-06 	0.0026204547
0.054347826 	0.0048989573 	-0.00073020341 	1.1405475e-07 	0.0054075302 	-3.7353948e-07 	0.0012890576
0.065217391 	0.0050809743 	-0.00088310314 	1.9657371e-07 	0.0055835788 	-6.0518052e-07 	0.00082827878
0.076086957 	0.0052521628 	-0.0010124267 	1.992918e-07 	0.0057509649 	-5.826042e-07 	0.0014683602
0.086956522 	0.0054431138 	-0.0011472548 	1.8283612e-08 	0.0059410088 	-1.1439356e-06 	0.0040599885
0.097826087 	0.0056464705 	-0.0012807005 	2.5308139e-08 	0.0061370283 	-7.1179223e-08 	0.0042627586
0.10869565 	0.0058559292 	-0.0014114394 	4.8431633e-07 	0.0063290125 	-1.3209898e-06 	0.00056180788
0.11956522 	0.0060522665 	-0.0015332816 	1.3967967e-07 	0.0065204204 	-3.7000025e-07 	0.0041338304
0.13043478 	0.00624914 	-0.0016523054 	1.8554627e-07 	0.0067030378 	-4.914972e-07 	0.0042000308
0.14130435 	0.0064369771 	-0.001765505 	6.3587202e-07 	0.0068678886 	-1.6309281e-06 	0.0011606696
0.15217391 	0.0066078696 	-0.0018709482 	3.71869e-08 	0.0070314657 	-4.1520423e-07 	0.006541582
0.16304348 	0.0067661946 	-0.0019698815 	8.409032e-07 	0.0071561414 	-2.0742238e-06 	0.0006255542
0.17391304 	0.0069050241 	-0.0020610772 	1.0497803e-07 	0.0072847805 	-2.4639708e-07 	0.0065191195
0.18478261 	0.0070209171 	-0.0021426056 	8.331831e-07 	0.0073643032 	-1.9555889e-06 	0.0012205368
0.19565217 	0.0071210607 	-0.002218178 	6.9794284e-08 	0.0074498161 	-1.5348892e-07 	0.0066226127
0.20652174 	0.0071866066 	-0.0022798147 	8.5580843e-07 	0.0074747428 	-1.8820611e-06 	0.00078374663
0.2173913 	0.0072423547 	-0.0023379131 	3.7787249e-07 	0.0075145364 	-2.0449521e-06 	0.0067548381
0.22826087 	0.0072512816 	-0.0023769757 	8.0877797e-07 	0.0074803189 	-1.6295831e-06 	0.0006579441
0.23913043 	0.0072562408 	-0.0024146676 	8.2081745e-08 	0.0074658392 	-1.6538411e-07 	0.0057118244
0.25 	0.0072132368 	-0.0024321458 	4.0930194e-07 	0.0073864437 	-7.3060308e-07 	0.0029949324
0.26086957 	0.0071551921 	-0.0024430252 	3.6081201e-07 	0.0072982029 	-6.4404865e-07 	0.0030939967
0.27173913 	0.0070776107 	-0.0024451847 	2.2297527e-07 	0.0071959422 	-8.8478587e-07 	0.005593894
0.2826087 	0.0069496848 	-0.0024234611 	6.5414738e-07 	0.0070274702 	-9.8090949e-07 	1.9508267e-05
0.29347826 	0.0068330456 	-0.0024067074 	5.7999351e-08 	0.00689303 	-2.0076351e-07 	0.0049942237
0.30434783 	0.0066685667 	-0.0023650858 	1.1442983e-07 	0.0066999431 	-1.3204213e-07 	0.0037768712
0.31521739 	0.0064835737 	-0.0023115089 	3.6354633e-07 	0.0064850886 	-4.1950105e-07 	0.0011972906
0.32608696 	0.0063024871 	-0.0022580954 	1.9623013e-06 	0.0062869737 	-5.9480895e-06 	0.0042086286
0.33695652 	0.0060896952 	-0.0021842219 	1.0843057e-07 	0.0060510652 	-8.4219438e-08 	0.0028923325
0.34782609 	0.0058652696 	-0.0021008426 	2.3132329e-07 	0.005804896 	-1.7967182e-07 	0.0012627801
0.35869565 	0.0056479652 	-0.0020175805 	2.7442348e-06 	0.0055751575 	-7.2731144e-06 	0.0034437503
0.36956522 	0.005416127 	-0.0019202962 	3.5546405e-08 	0.0053278968 	-1.7595895e-08 	0.0028900622
0.38043478 	0.0051752821 	-0.0018112108 	1.9461117e-07 	0.0050707878 	-9.6334852e-08 	0.00062485881
0.39130435 	0.0049518693 	-0.0017084709 	1.861767e-06 	0.004840687 	-4.2740614e-06 	0.0027426225
0.40217391 	0.0047267332 	-0.0015951113 	1.5753499e-06 	0.0046067686 	-3.6165334e-06 	0.0026777259
0.41304348 	0.0045004639 	-0.0014720694 	1.5315287e-07 	0.0043693449 	-7.9298797e-08 	0.00043890227
0.42391304 	0.0042911259 	-0.0013568875 	1.9774376e-08 	0.0041566273 	-1.0238686e-08 	0.0019118301
0.43478261 	0.0040987883 	-0.0012353805 	5.3778318e-06 	0.003959117 	-1.0389784e-05 	0.0021024204
0.44565217 	0.0039102238 	-0.0011116943 	2.3720482e-08 	0.0037644476 	-1.8569575e-08 	0.001733259
0.45652174 	0.0037382271 	-0.00098373139 	1.0897897e-07 	0.0035849808 	-8.5314169e-08 	0.00044257597
0.4673913 	0.0035876346 	-0.00086348656 	1.9485661e-06 	0.0034311901 	-2.908173e-06 	0.0016646022
0.47826087 	0.0034609985 	-0.00073971801 	4.2047961e-06 	0.0032975899 	-6.2755244e-06 	0.001634379
0.48913043 	0.0033437904 	-0.00061466675 	3.7900108e-08 	0.0031719365 	-3.1913531e-08 	0.0011124996
0.5 	0.0032520949 	-0.00048784845 	6.9014453e-08 	0.0030703906 	-5.8113158e-08 	0.0006072545
0.51086957 	0.0031835965 	-0.00036230662 	3.0368099e-06 	0.0029948359 	-2.7027844e-06 	0.0013835451
0.52173913 	0.0031371764 	-0.00023551489 	3.5234821e-06 	0.0029402311 	-3.1359265e-06 	0.0013626569
0.5326087 	0.0031069644 	-0.00010807386 	3.8094572e-08 	0.0029011525 	-1.6110412e-08 	0.00077265279
0.54347826 	0.0031054655 	2.283642e-05 	2.9944512e-08 	0.0028925348 	-1.2663705e-08 	0.00086766617
0.55434783 	0.0031301793 	0.00015331608 	4.2300743e-06 	0.0029135937 	-9.0974258e-07 	0.0012949289
0.56521739 	0.0031643789 	0.00028287193 	1.7910485e-06 	0.002944406 	-3.8519253e-07 	0.0012791768
0.57608696 	0.0032233523 	0.00040929568 	3.7995024e-08 	0.0030009303 	2.6666568e-08 	0.00015601454
0.58695652 	0.0033022152 	0.00053735731 	1.04595e-06 	0.0030833209 	3.8233686e-07 	0.0013489317
0.59782609 	0.0033988395 	0.00065949279 	3.6534117e-06 	0.0031818565 	1.3354692e-06 	0.0013360927
0.60869565 	0.0035005251 	0.00077951276 	-2.3588847e-09 	0.0032848724 	2.1095302e-08 	0.00090370198
0.61956522 	0.0036233917 	0.00089504484 	-1.1036999e-09 	0.0034112822 	9.870293e-09 	0.001248915
0.63043478 	0.0037575864 	0.0010051316 	3.7530281e-06 	0.0035490186 	3.1417319e-06 	0.001457951
0.64130435 	0.0038928103 	0.001114267 	-7.4664412e-10 	0.0036873621 	1.0595139e-09 	0.0014267654
0.65217391 	0.0040410398 	0.0012151569 	-1.6905747e-08 	0.0038384526 	2.3989842e-08 	0.0010962009
0.66304348 	0.0041941147 	0.0013118643 	2.6799314e-06 	0.0039974635 	3.3933042e-06 	0.0016054679
0.67391304 	0.0043473351 	0.0014065409 	-3.0842338e-09 	0.0041559143 	2.229225e-09 	0.0015423741
0.68478261 	0.0045046271 	0.0014928881 	-1.3189677e-08 	0.0043204174 	9.5332452e-09 	0.0015064056
0.69565217 	0.00466173 	0.0015732482 	1.8064571e-06 	0.0044865132 	3.1286408e-06 	0.0017553982
0.70652174 	0.0048170492 	0.0016501277 	-5.3836749e-08 	0.0046492538 	1.7921802e-08 	0.00097555309
0.7173913 	0.004971813 	0.001720183 	3.6893483e-07 	0.004816081 	8.5991615e-07 	0.0019018342
0.72826087 	0.0051219983 	0.0017841521 	5.9343825e-07 	0.0049773385 	1.3831904e-06 	0.0018958212
0.73913043 	0.0052665535 	0.0018418475 	-9.7370067e-08 	0.0051312482 	1.8681943e-10 	0.0006718041
0.75 	0.0054059592 	0.001893457 	6.5317012e-07 	0.0052859406 	2.2265103e-06 	0.0020243718
0.76086957 	0.005538664 	0.0019397758 	-7.4633251e-08 	0.0054297793 	-2.4543663e-08 	0.0011006473
0.77173913 	0.0056608062 	0.0019782974 	8.2405636e-08 	0.005567542 	7.4258367e-07 	0.0021296745
0.7826087 	0.0057753475 	0.002011714 	1.4152475e-08 	0.0056959113 	1.275325e-07 	0.0021260909
0.79347826 	0.0058744895 	0.002036631 	-5.4847432e-08 	0.0058093196 	1.2842597e-07 	0.0022093905
0.80434783 	0.0059618462 	0.0020551061 	-6.9709899e-08 	0.0059108576 	1.6322663e-07 	0.0022067278
0.81521739 	0.0060334161 	0.0020665285 	-7.7623438e-08 	0.0059966513 	-3.5349041e-08 	0.002262323
0.82608696 	0.0060883148 	0.0020703458 	-1.4823742e-07 	0.0060656998 	-6.7506037e-08 	0.0022603838
0.83695652 	0.0061233782 	0.0020666801 	-2.502925e-07 	0.006114706 	-3.2050132e-07 	0.0022882257
0.84782609 	0.0061414754 	0.0020561467 	-7.0358015e-09 	0.0061458594 	-1.2007387e-08 	0.0022028243
0.85869565 	0.0061317356 	0.0020362441 	-7.8611323e-07 	0.0061484315 	-1.3695372e-06 	0.0022882441
0.86956522 	0.0061042929 	0.0020099453 	-1.7291296e-07 	0.0061288739 	-3.504552e-07 	0.00016678514
0.88043478 	0.0060478419 	0.0019759637 	-8.1880269e-07 	0.0060868581 	-1.7215611e-06 	0.0022637346
0.89130435 	0.005968935 	0.001935471 	-3.7035571e-07 	0.0060153962 	-8.8219868e-07 	0.0022187012
0.90217391 	0.0058629967 	0.0018867425 	-1.1012846e-07 	0.0059127252 	-2.9150074e-07 	0.00069311155
0.91304348 	0.0057254472 	0.0018322445 	-7.0398547e-07 	0.0057827442 	-1.8930556e-06 	0.002153647
0.92391304 	0.0055648209 	0.0017748341 	-1.05269e-06 	0.0056233966 	-3.0723826e-06 	0.0020732355
0.93478261 	0.0053770634 	0.0017077606 	-3.7279132e-07 	0.0054301302 	-1.1634749e-06 	0.0019924257
0.94565217 	0.0051396716 	0.0016343141 	-8.7298429e-07 	0.0051857002 	-3.0413844e-06 	0.0019222669
0.95652174 	0.0048768016 	0.0015610738 	-4.5149159e-08 	0.0049095799 	-2.0058515e-07 	0.0004770919
0.9673913 	0.0045608075 	0.0014844417 	-2.089617e-07 	0.0045817401 	-8.8296467e-07 	0.0017172108
0.97826087 	0.0041537173 	0.0013942814 	-9.0287528e-09 	0.0041490532 	-6.5067364e-08 	0.00042356218
0.98913043 	0.0030670249 	0.0010769601 	3.7048754e-09 	0.0030789138 	2.6610533e-09 	0.00034354274
