0 	0.61017455 	-4.1439996e-14 	-1.711274e-20
0.010869565 	0.61101887 	-0.0011428647 	3.7672995e-07
0.02173913 	0.61325508 	-0.0022554511 	1.0810253e-07
0.032608696 	0.61693026 	-0.0033610484 	3.878158e-08
0.043478261 	0.62204867 	-0.0044532076 	3.6883098e-07
0.054347826 	0.62836566 	-0.0055450283 	5.2484354e-06
0.065217391 	0.6366776 	-0.0066429442 	4.6132549e-06
0.076086957 	0.64512635 	-0.0075867583 	8.4773153e-06
0.086956522 	0.65513742 	-0.0085032752 	1.8647391e-08
0.097826087 	0.66634516 	-0.0094312901 	6.4873319e-07
0.10869565 	0.67863658 	-0.010340648 	1.3986989e-05
0.11956522 	0.69164751 	-0.011125224 	8.2333039e-06
0.13043478 	0.70557945 	-0.01187129 	3.3636314e-06
0.14130435 	0.7207845 	-0.012616246 	2.6435897e-05
0.15217391 	0.73582336 	-0.013170191 	5.7917456e-07
0.16304348 	0.75277322 	-0.013770553 	2.6206659e-05
0.17391304 	0.76936611 	-0.014205696 	6.7954365e-06
0.18478261 	0.78739316 	-0.01463224 	2.2404402e-05
0.19565217 	0.80512152 	-0.014924278 	4.2004597e-06
0.20652174 	0.82414797 	-0.015194544 	2.246334e-05
0.2173913 	0.84247844 	-0.015330993 	2.8515557e-06
0.22826087 	0.86228499 	-0.015464027 	2.6539975e-05
0.23913043 	0.88068803 	-0.015449312 	5.3008537e-06
0.25 	0.90029065 	-0.015426528 	1.4655524e-05
0.26086957 	0.91890295 	-0.015318435 	5.4161626e-06
0.27173913 	0.93751339 	-0.015159568 	2.5833553e-06
0.2826087 	0.95603779 	-0.014989297 	1.7893197e-05
0.29347826 	0.97317339 	-0.014728349 	1.2303105e-05
0.30434783 	0.99033014 	-0.014472575 	3.6428282e-06
0.31521739 	1.0066105 	-0.014196962 	8.7414576e-06
0.32608696 	1.0218059 	-0.013884537 	2.3661184e-05
0.33695652 	1.0367601 	-0.013589733 	3.8652404e-06
0.34782609 	1.0506474 	-0.013289004 	5.3326341e-06
0.35869565 	1.0634622 	-0.012980406 	2.5323528e-05
0.36956522 	1.0761277 	-0.012683736 	4.2847108e-07
0.38043478 	1.0877771 	-0.012416368 	6.5521872e-06
0.39130435 	1.0983488 	-0.01213662 	1.9083792e-05
0.40217391 	1.1086993 	-0.01187643 	1.0829096e-05
0.41304348 	1.1186347 	-0.011652716 	1.0360524e-05
0.42391304 	1.1272776 	-0.011402151 	8.459402e-06
0.43478261 	1.1354242 	-0.011176559 	2.3430219e-05
0.44565217 	1.1435707 	-0.010950967 	2.0662807e-06
0.45652174 	1.1507481 	-0.010745408 	3.459863e-06
0.4673913 	1.1567092 	-0.010528171 	1.6938201e-05
0.47826087 	1.1624551 	-0.010317609 	1.9211928e-05
0.48913043 	1.1682009 	-0.010107048 	2.8002393e-07
0.5 	1.1727285 	-0.0098913324 	8.1613949e-08
0.51086957 	1.1758872 	-0.0095743234 	2.414378e-05
0.52173913 	1.1790391 	-0.0092569787 	2.0645566e-05
0.5326087 	1.1821217 	-0.0089370105 	6.9680392e-07
0.54347826 	1.1834881 	-0.0085007989 	6.3171643e-06
0.55434783 	1.1838427 	-0.0080207211 	3.5744215e-05
0.56521739 	1.1841974 	-0.0075406433 	1.7285006e-05
0.57608696 	1.1840231 	-0.007069452 	5.3647995e-06
0.58695652 	1.1821545 	-0.0065808034 	1.7407967e-05
0.59782609 	1.1799474 	-0.0061257919 	2.6081165e-05
0.60869565 	1.1777403 	-0.0056707804 	1.8772038e-06
0.61956522 	1.1741976 	-0.0053075202 	6.6952878e-06
0.63043478 	1.1700355 	-0.0049560892 	2.3725298e-05
0.64130435 	1.1658733 	-0.0046046582 	5.0679593e-06
0.65217391 	1.1609617 	-0.0042800171 	3.8019882e-06
0.66304348 	1.1553082 	-0.003960521 	2.0519635e-05
0.67391304 	1.1496547 	-0.003641025 	4.0667791e-06
0.68478261 	1.1433419 	-0.0033366692 	4.7538735e-06
0.69565217 	1.1364886 	-0.00303498 	1.5329802e-05
0.70652174 	1.1296353 	-0.0027332908 	3.1365541e-07
0.7173913 	1.1219934 	-0.0024499567 	8.3148757e-06
0.72826087 	1.1141418 	-0.0021616691 	8.4352388e-06
0.73913043 	1.1060951 	-0.0018808106 	3.3473411e-07
0.75 	1.0973361 	-0.0015980772 	1.3445924e-05
0.76086957 	1.0885771 	-0.0013153439 	2.7344987e-07
0.77173913 	1.0790825 	-0.0010446773 	8.3021164e-06
0.7826087 	1.0694174 	-0.00076820337 	3.4060762e-06
0.79347826 	1.0592024 	-0.0005031327 	5.0646865e-06
0.80434783 	1.0485695 	-0.0002352776 	4.406527e-06
0.81521739 	1.0374336 	1.8530341e-05 	3.7634752e-06
0.82608696 	1.0257395 	0.00027060906 	3.6270152e-06
0.83695652 	1.0134429 	0.00050299876 	3.8516935e-06
0.84782609 	1.0005856 	0.00072897186 	1.5733251e-06
0.85869565 	0.98685557 	0.0009248151 	4.6760028e-06
0.86956522 	0.97273065 	0.001107986 	8.5819561e-07
0.88043478 	0.95728218 	0.0012556953 	2.6144933e-06
0.89130435 	0.94122895 	0.0013699816 	1.0348258e-06
0.90217391 	0.92428747 	0.0014590463 	1.7776054e-07
0.91304348 	0.90586859 	0.0014878862 	9.2700463e-08
0.92391304 	0.88696173 	0.0014618184 	-1.4332477e-06
0.93478261 	0.86643194 	0.0013875044 	-1.1327936e-06
0.94565217 	0.84177181 	0.0012538307 	-2.3190642e-06
0.95652174 	0.81494902 	0.0010508042 	-5.1500506e-09
0.9673913 	0.78107028 	0.00077814909 	-1.4348601e-06
0.97826087 	0.73148324 	0.00049433884 	-2.1325535e-08
0.98913043 	0.61343416 	0.00072128504 	-7.2841169e-08
