0.4742268 	0.60973499 	0.0020903608 	-3.2831695e-08
0.48453608 	1.0846706 	0.00011185089 	-8.9096649e-09
0.49484536 	1.1960845 	0.00031844268 	6.7582398e-07
0.50515464 	1.2613826 	0.00053741287 	-1.1880254e-08
0.51546392 	1.3033244 	0.00069677203 	4.1805224e-07
0.5257732 	1.3348315 	0.00093152 	1.8047917e-06
0.53608247 	1.3583533 	0.0010851146 	4.8396406e-07
0.54639175 	1.3757988 	0.0012396457 	7.6252847e-08
0.55670103 	1.388519 	0.0013652292 	2.5787937e-08
0.56701031 	1.3975053 	0.0014630177 	1.7797778e-07
0.57731959 	1.4037396 	0.0015195914 	1.7738026e-07
0.58762887 	1.4080748 	0.0015517821 	-1.2954953e-07
0.59793814 	1.4110947 	0.0015615216 	-1.1592317e-07
0.60824742 	1.413034 	0.0015466902 	-4.1096194e-07
0.6185567 	1.4141828 	0.0015159803 	-3.4018576e-07
0.62886598 	1.4147358 	0.001471735 	-9.7744962e-07
0.63917526 	1.4148098 	0.0014167067 	-2.5257963e-07
0.64948454 	1.4144159 	0.0013541198 	-8.7664315e-07
0.65979381 	1.4136881 	0.0012851054 	-4.3296906e-07
0.67010309 	1.4125886 	0.0012090129 	-3.236747e-08
0.68041237 	1.4111623 	0.0011289826 	-1.499292e-06
0.69072165 	1.4094671 	0.001044089 	-9.8876625e-08
0.70103093 	1.4074916 	0.0009580258 	-2.0339793e-06
0.71134021 	1.4052579 	0.00086781866 	-7.0083376e-08
0.72164948 	1.4027897 	0.00077892649 	-1.8873461e-06
0.73195876 	1.4001139 	0.00068817197 	-1.625022e-08
0.74226804 	1.3971153 	0.00059721855 	-1.2246694e-06
0.75257732 	1.3939471 	0.0005065698 	-6.2063344e-08
0.7628866 	1.3904002 	0.00041690124 	-7.1000993e-07
0.77319588 	1.386615 	0.00032737883 	-1.6220589e-07
0.78350515 	1.3824843 	0.00024164416 	-7.6859382e-07
0.79381443 	1.3780934 	0.0001572701 	2.319959e-08
0.80412371 	1.3732709 	7.7582253e-05 	-1.251573e-06
0.81443299 	1.3681892 	1.5368634e-06 	1.5376915e-07
0.82474227 	1.3625435 	-7.0062735e-05 	-1.0307955e-06
0.83505155 	1.356531 	-0.00013591498 	-9.1920789e-08
0.84536082 	1.3499557 	-0.00019499463 	1.0101549e-07
0.8556701 	1.3426546 	-0.0002457365 	-6.3215867e-07
0.86597938 	1.334689 	-0.00028848604 	-1.9540233e-07
0.87628866 	1.3258651 	-0.00032079421 	2.1453926e-07
0.88659794 	1.3158658 	-0.00034201936 	1.1863231e-07
0.89690722 	1.3044515 	-0.00035053992 	-6.1776218e-09
0.90721649 	1.2912962 	-0.00034423844 	1.1891185e-07
0.91752577 	1.2759419 	-0.00032396989 	2.2464595e-07
0.92783505 	1.2577102 	-0.00029097902 	3.1352214e-07
0.93814433 	1.2357097 	-0.00023862931 	6.7864143e-08
0.94845361 	1.2084465 	-0.00017733153 	2.0454676e-07
0.95876289 	1.1735501 	-0.00012209254 	4.9340385e-08
0.96907216 	1.1262222 	-6.2815847e-05 	8.6362091e-08
0.97938144 	1.0536903 	-1.6730061e-05 	6.5647788e-08
0.98969072 	0.8992717 	0.00029786287 	1.579173e-06
