0.4742268 	0.002407386 	-0.00078076261 	9.1213602e-09 	0.0024080456 	-2.5710901e-08 	0.0006863271
0.48453608 	0.0077118148 	-0.0026996603 	8.6455497e-10 	0.0076822423 	-1.4026463e-09 	0.0026359019
0.49484536 	0.0071953795 	-0.0025518044 	1.2175101e-06 	0.0071603773 	-4.2120308e-06 	0.0025831696
0.50515464 	0.0063376014 	-0.0023054842 	5.966222e-08 	0.0062868659 	-2.0431858e-07 	0.0023341942
0.51546392 	0.0054821571 	-0.0020457896 	8.5966161e-07 	0.0054234899 	-2.6036368e-06 	0.0019113267
0.5257732 	0.0046622361 	-0.0017700527 	3.1775289e-06 	0.0045987454 	-8.817745e-06 	0.0016769998
0.53608247 	0.0039710332 	-0.0015008563 	1.3225702e-06 	0.0039097254 	-3.1960322e-06 	0.0014589932
0.54639175 	0.0034399074 	-0.0012500305 	3.6215268e-07 	0.0033786498 	-7.4260679e-07 	0.0012730412
0.55670103 	0.0030575612 	-0.0010248029 	2.517403e-07 	0.0030036922 	-4.217167e-07 	0.0011245578
0.56701031 	0.0027980723 	-0.00082738528 	7.9336203e-07 	0.0027553205 	-1.0392595e-06 	0.001014994
0.57731959 	0.0026303306 	-0.00065227882 	1.773222e-06 	0.0026003418 	-1.7171218e-06 	0.00094145841
0.58762887 	0.002525604 	-0.00049634518 	2.3440481e-06 	0.0025086955 	-1.6201262e-06 	0.00089716751
0.59793814 	0.0024625389 	-0.00035675639 	5.4093512e-07 	0.0024596159 	-2.5844906e-07 	0.00087401177
0.60824742 	0.0024315974 	-0.00023148781 	-1.9050766e-07 	0.0024405466 	-5.0239132e-08 	3.2051707e-05
0.6185567 	0.002421793 	-0.00012115769 	7.5358511e-07 	0.002444152 	-2.4009896e-07 	0.00086657919
0.62886598 	0.0024258273 	-1.9716653e-05 	1.3414258e-06 	0.0024587689 	-2.6691385e-07 	0.00087070328
0.63917526 	0.0024395272 	7.4537389e-05 	-1.1711626e-07 	0.002480812 	-1.0181026e-07 	0.00022508114
0.64948454 	0.0024607036 	0.00015886957 	9.2092798e-07 	0.0025114593 	-1.0548107e-07 	0.00088324707
0.65979381 	0.0024863203 	0.00023852745 	4.136888e-07 	0.0025444573 	-2.6308102e-08 	0.00090171302
0.67010309 	0.0025153624 	0.00031222065 	-6.1853343e-09 	0.0025797679 	-8.6045331e-09 	0.0008526589
0.68041237 	0.0025471342 	0.00038050158 	9.7505542e-07 	0.0026168507 	-4.1184981e-08 	0.00092446385
0.69072165 	0.0025802414 	0.0004456919 	-4.6638299e-08 	0.0026535027 	-7.8083731e-08 	0.00044297738
0.70103093 	0.0026144501 	0.00050586508 	1.087587e-06 	0.0026919479 	-4.4901424e-08 	0.00095030633
0.71134021 	0.0026497508 	0.00056425561 	-3.557839e-08 	0.0027288689 	-7.3691252e-08 	0.00041880643
0.72164948 	0.0026855632 	0.00061840161 	8.8237328e-07 	0.0027672505 	-5.1955392e-08 	0.00097880523
0.73195876 	0.0027218008 	0.00067066367 	-8.0331024e-09 	0.0028039777 	-2.3570955e-08 	0.0007592256
0.74226804 	0.0027603608 	0.00072159756 	5.4785343e-07 	0.0028428565 	-2.127648e-08 	0.0010093313
0.75257732 	0.0027990767 	0.00077047056 	8.8754737e-08 	0.0028808357 	-3.446886e-09 	0.0010094037
0.7628866 	0.0028414225 	0.00081946501 	3.3546929e-07 	0.0029215234 	1.8047543e-08 	0.0010408869
0.77319588 	0.0028852119 	0.00086752897 	1.2037558e-07 	0.0029629882 	6.4759536e-09 	0.0010409659
0.78350515 	0.0029333584 	0.00091604646 	3.7038815e-07 	0.0030080541 	7.3588063e-08 	0.0010736833
0.79381443 	0.0029839663 	0.00096425182 	5.0931667e-09 	0.0030547253 	9.9799086e-10 	0.00095931577
0.80412371 	0.0030416189 	0.0010141854 	6.3687208e-07 	0.0031080814 	2.6113747e-07 	0.0011091449
0.81443299 	0.0031032046 	0.0010641335 	6.4262125e-08 	0.0031627468 	5.0784809e-08 	0.0001414341
0.82474227 	0.0031749041 	0.0011179228 	6.3825644e-07 	0.0032303997 	4.2975325e-07 	0.0011487821
0.83505155 	0.003254693 	0.001173388 	1.2215318e-07 	0.0033037757 	1.184476e-07 	0.0011940258
0.84536082 	0.0033460325 	0.0012316826 	3.9596131e-08 	0.0033871399 	5.745305e-08 	0.00080191616
0.8556701 	0.0034549902 	0.0012954949 	7.337066e-07 	0.0034889794 	9.396163e-07 	0.0012467592
0.86597938 	0.0035804295 	0.0013635264 	4.023716e-07 	0.0036060373 	6.4264532e-07 	0.0013082085
0.87628866 	0.0037270287 	0.0014365198 	1.0077463e-07 	0.0037421351 	2.0011792e-07 	0.0004932008
0.88659794 	0.003902218 	0.0015174575 	4.8727132e-08 	0.0039089737 	1.09869e-07 	0.00098210916
0.89690722 	0.0041122211 	0.0016062819 	3.2281411e-07 	0.0041105657 	7.2067864e-07 	0.0014633208
0.90721649 	0.0043611454 	0.0017027185 	6.735937e-07 	0.0043509024 	1.7216253e-06 	0.0015583502
0.91752577 	0.0046539767 	0.0018073024 	8.0617036e-07 	0.004636445 	2.3135113e-06 	0.0016647815
0.92783505 	0.0049951648 	0.001919189 	6.5986907e-07 	0.0049712185 	2.1129461e-06 	0.0017817397
0.93814433 	0.0053835272 	0.0020374686 	2.1373539e-07 	0.0053569012 	7.3997059e-07 	0.0019055287
0.94845361 	0.0058108878 	0.0021566062 	1.0173965e-07 	0.0057785838 	3.981194e-07 	0.00035382216
0.95876289 	0.0062540198 	0.00227721 	2.7702702e-07 	0.0062323588 	1.2545836e-06 	0.0022762759
0.96907216 	0.006670597 	0.0023713868 	3.9894383e-08 	0.0066463114 	1.7703e-07 	0.00086182565
0.97938144 	0.006957484 	0.0024337733 	7.9200765e-09 	0.0069435687 	1.3974738e-07 	0.0025000489
0.98969072 	0.006514973 	0.002294373 	-6.4225633e-07 	0.0064791231 	-2.0482823e-06 	0.0023791266
