2.3823985e-19 	0.00016301346 	-1.1069851e-17 	7.5020859e-24 	2.0098766e-20 	-1.7625227e-22 	3.4433781e-20
0.011627907 	0.00010324955 	-4.1729965e-06 	3.471053e-09 	8.5307798e-05 	-9.4805952e-09 	7.6384307e-07
0.023255814 	3.3580443e-05 	-7.0794065e-07 	1.1221582e-08 	3.087541e-05 	-4.3292944e-07 	2.3060693e-07
0.034883721 	3.766559e-06 	-4.2076209e-08 	6.7357694e-10 	3.5905015e-06 	-5.4814251e-08 	6.8444937e-09
0.046511628 	3.6996427e-09 	-7.6930271e-12 	3.3588379e-13 	3.6599509e-09 	-1.597969e-10 	6.9769185e-12
0.058139535 	1.7001228e-10 	-1.3162258e-13 	5.7460743e-15 	1.6917386e-10 	-7.3862862e-12 	3.2251066e-13
0.069767442 	2.7713351e-11 	-5.9144258e-15 	2.5806973e-16 	2.7639697e-11 	-1.2067638e-12 	5.2745728e-14
0.081395349 	1.2249049e-11 	-1.6660599e-15 	7.2625054e-17 	1.2220129e-11 	-5.3341589e-13 	2.4514001e-14
0.093023256 	3.6001859e-14 	-8.4164482e-18 	-5.0587655e-20 	3.594701e-14 	-1.2654306e-15 	1.6886362e-15
0.10465116 	9.3865006e-15 	-8.6144948e-18 	-4.4044038e-20 	9.38095e-15 	-4.8543618e-17 	6.9117124e-16
0.11627907 	8.869282e-15 	-1.5318042e-18 	2.6824075e-20 	8.8616626e-15 	-3.5489086e-18 	3.908333e-15
0.12790698 	9.2349192e-15 	-8.9905978e-19 	1.3657515e-20 	9.2230608e-15 	4.0792282e-18 	2.4548033e-15
0.13953488 	1.0028775e-14 	-1.7702728e-19 	7.1984701e-21 	1.0011627e-14 	2.1500399e-18 	9.3158473e-16
0.15116279 	1.2525426e-14 	-1.3768205e-20 	-1.600061e-22 	1.2502515e-14 	8.4893037e-17 	5.0497004e-16
0.1627907 	1.5747501e-14 	-2.9984255e-20 	-3.9289065e-23 	1.5722318e-14 	8.8357202e-18 	2.5230719e-15
0.1744186 	1.9567335e-14 	-5.2087297e-20 	-6.6937927e-23 	1.9538222e-14 	1.5053675e-17 	4.2705267e-15
0.18604651 	2.4842651e-14 	-1.131757e-19 	-1.7527612e-21 	2.481671e-14 	1.8076895e-17 	1.1183375e-14
0.19767442 	2.6504362e-14 	-4.9410649e-19 	-7.7088053e-21 	2.6459867e-14 	-9.9606986e-17 	2.7467026e-15
0.20930233 	3.0348962e-14 	-7.4278294e-18 	-2.8355744e-20 	3.0335299e-14 	6.9449185e-18 	1.9517409e-14
0.22093023 	4.3945383e-14 	-5.4463003e-17 	4.4621303e-20 	4.3959781e-14 	-5.852638e-17 	2.3957352e-14
0.23255814 	4.5750834e-14 	-5.7165367e-17 	1.0059106e-19 	4.57641e-14 	-1.0377145e-16 	2.5212063e-14
0.24418605 	3.3056354e-14 	-9.8557899e-18 	5.866053e-20 	3.3037585e-14 	-6.0515202e-17 	1.8942152e-14
0.25581395 	3.4809332e-14 	-1.3522758e-18 	5.0348576e-20 	3.4760097e-14 	-2.3082655e-17 	9.4491062e-15
0.26744186 	3.4562159e-14 	-1.8144327e-19 	4.9695741e-21 	3.4539803e-14 	-2.2783358e-18 	2.2850958e-14
0.27906977 	4.7224427e-14 	-1.0343082e-19 	3.6759883e-21 	4.7152424e-14 	7.8261785e-17 	9.4828052e-15
0.29069767 	4.9092041e-14 	-1.4078475e-20 	-3.480107e-22 	4.9041534e-14 	-1.4938162e-17 	2.2589507e-14
0.30232558 	5.0253571e-14 	-9.4112671e-20 	2.6145513e-22 	5.0187319e-14 	1.1579518e-17 	1.5449405e-14
0.31395349 	4.8910995e-14 	-2.9895869e-19 	-8.0359561e-22 	4.8845285e-14 	-1.0217102e-16 	1.4266096e-14
0.3255814 	3.9855475e-14 	-3.6321925e-19 	-1.1702259e-21 	3.9800023e-14 	-1.4878526e-16 	1.0543799e-14
0.3372093 	3.4518815e-14 	-4.6145657e-19 	-2.0537316e-21 	3.4461105e-14 	4.7286615e-17 	3.9303564e-15
0.34883721 	4.3201373e-14 	-7.2223566e-19 	-9.1052758e-21 	4.3124096e-14 	2.0964651e-16 	2.0622052e-15
0.36046512 	5.4987784e-14 	-1.0207994e-18 	-1.8641787e-21 	5.4885347e-14 	1.45074e-16 	2.8088947e-16
0.37209302 	1.4601312e-13 	-2.1181676e-18 	-4.9808141e-20 	1.4575566e-13 	3.8761661e-15 	7.611018e-15
0.38372093 	2.365072e-13 	-3.2110122e-18 	-8.2590248e-21 	2.3609696e-13 	6.4273332e-16 	1.5600906e-14
0.39534884 	4.1830883e-13 	-5.6478018e-18 	-8.3017673e-21 	4.1778726e-13 	2.7058724e-15 	1.3361152e-13
0.40697674 	5.834585e-13 	-6.6333346e-18 	-9.6202391e-21 	5.8270491e-13 	3.1356142e-15 	1.7439717e-13
0.41860465 	7.5293373e-13 	-5.9304373e-18 	-1.5615399e-20 	7.5178624e-13 	1.2171041e-15 	1.3556584e-13
0.43023256 	1.3835908e-11 	-1.3306688e-16 	-5.5374427e-18 	1.3810803e-11 	5.6566161e-13 	4.5193207e-13
0.44186047 	3.2161419e-11 	-3.1206202e-16 	1.9893031e-19 	3.2102063e-11 	-2.0544066e-14 	5.2640497e-13
0.45348837 	3.2769829e-11 	-3.265044e-16 	1.6009208e-18 	3.2709134e-11 	-1.6533139e-13 	3.8773855e-13
0.46511628 	1.4889683e-10 	-4.0388182e-15 	-1.3778856e-16 	1.4863395e-10 	4.4280052e-12 	7.8131838e-13
0.47674419 	3.1012083e-10 	-8.8946507e-15 	9.6518504e-17 	3.0957463e-10 	-3.3366584e-12 	8.5735989e-13
0.48837209 	2.6943374e-10 	-7.617533e-15 	6.1978415e-17 	2.6896693e-10 	-2.1426026e-12 	4.9919114e-12
0.5 	3.2217044e-09 	-2.0408882e-14 	-4.3077916e-16 	3.2160064e-09 	8.9931065e-11 	1.2918726e-11
0.51162791 	7.6143555e-09 	-4.3624285e-14 	6.8903043e-16 	7.6008628e-09 	-1.1995508e-10 	1.7572375e-11
0.52325581 	6.8670597e-09 	-3.9312723e-14 	5.9109032e-16 	6.8548968e-09 	-1.0290443e-10 	1.9088877e-11
0.53488372 	2.0287874e-08 	-5.4277739e-15 	8.69135e-16 	2.0249947e-08 	6.909335e-10 	5.0311202e-11
0.54651163 	5.7268513e-08 	2.5522634e-14 	-4.1682795e-16 	5.716067e-08 	-9.3272407e-10 	1.1582442e-10
0.55813953 	6.867886e-08 	3.0596168e-14 	-6.9915804e-16 	6.8549566e-08 	-1.5644861e-09 	1.5786394e-10
0.56976744 	2.4196122e-07 	6.6093678e-12 	2.8793849e-13 	2.41526e-07 	9.1250159e-09 	5.5484065e-10
0.58139535 	1.8719524e-06 	5.6802643e-11 	-8.3831147e-13 	1.8686013e-06 	-2.6349775e-08 	3.6303047e-09
0.59302326 	3.188244e-06 	9.3824641e-11 	-2.5857175e-12 	3.1826618e-06 	-8.1274177e-08 	7.7504063e-08
0.60465116 	1.8121124e-06 	3.8760703e-11 	-1.2338419e-13 	1.8099321e-06 	-3.8782074e-09 	5.9276871e-07
0.61627907 	3.6913317e-05 	2.1210938e-08 	-3.3756083e-10 	3.6893011e-05 	-5.7876265e-07 	5.1930954e-07
0.62790698 	6.368843e-05 	3.7028023e-08 	-1.0641676e-09 	6.3652916e-05 	-1.8245613e-06 	1.2288477e-07
0.63953488 	2.3042968e-05 	1.3312857e-08 	8.297063e-12 	2.3029746e-05 	2.1097086e-08 	5.5470967e-08
0.65116279 	6.6370704e-05 	3.4573934e-08 	-7.3740499e-10 	6.6315632e-05 	-1.4120029e-06 	1.3300634e-07
0.6627907 	8.2493899e-05 	4.2895259e-08 	-1.1080752e-09 	8.242556e-05 	-2.1217723e-06 	3.0807153e-07
0.6744186 	7.8008288e-05 	2.0387969e-07 	4.5620003e-09 	7.8139944e-05 	1.0305252e-06 	5.7763986e-07
0.68604651 	0.00031722944 	9.6707652e-07 	-1.7089437e-08 	0.00031795955 	-5.6090628e-06 	6.98369e-07
0.69767442 	0.00049978465 	1.5339435e-06 	-4.2629182e-09 	0.00050180487 	-1.399167e-06 	0.00034037989
0.70930233 	0.00066658016 	4.3442024e-06 	-5.4117913e-08 	0.0006710392 	-4.4204978e-06 	0.00028431569
0.72093023 	0.00071446562 	5.0179088e-06 	-9.7968849e-08 	0.00071904625 	-8.002361e-06 	0.00018712056
0.73255814 	0.00073557099 	1.5958158e-05 	3.0246951e-08 	0.00074957694 	1.3197646e-07 	0.00045497593
0.74418605 	0.00099658765 	4.2028689e-05 	-1.0401918e-06 	0.00103252 	-1.3508326e-05 	0.00011662065
0.75581395 	0.0012177785 	5.3004693e-05 	9.0094291e-07 	0.0012619992 	1.2519471e-06 	0.00088602768
0.76744186 	0.0013258942 	0.00020443739 	-3.8426449e-06 	0.0014926979 	-9.4026255e-06 	6.4632679e-06
0.77906977 	0.0015296822 	0.00024587764 	1.3675785e-06 	0.0017466503 	7.5250808e-07 	0.0011779966
0.79069767 	0.00148279 	0.00046052483 	-4.476863e-06 	0.0018507351 	-2.2851132e-06 	4.9929653e-05
0.80232558 	0.0013766512 	0.00066075652 	2.3397413e-07 	0.0019142526 	-3.0209589e-07 	0.001076996
0.81395349 	0.0013829861 	0.00062133249 	-1.0919579e-06 	0.0018548095 	-4.7423441e-07 	0.00033181718
0.8255814 	0.0013465659 	0.00065117617 	4.9468364e-08 	0.0018196811 	2.5168148e-08 	0.00093116973
0.8372093 	0.0013310412 	0.00061968149 	6.6219606e-08 	0.0017519883 	3.3690721e-08 	0.00085556216
0.84883721 	0.0013130814 	0.00061628285 	1.2846324e-07 	0.0016979594 	7.6045376e-08 	0.00025209675
0.86046512 	0.0012879873 	0.00061412634 	-5.0147636e-08 	0.0016449943 	-5.0622988e-07 	0.00090978814
0.87209302 	0.0012634644 	0.00061358732 	2.2603018e-09 	0.0015915363 	6.7712416e-09 	0.00071123238
0.88372093 	0.0012376352 	0.00060923763 	-1.0009894e-07 	0.0015348875 	1.6926851e-09 	8.3425218e-05
0.89534884 	0.0012058978 	0.00060193834 	-1.4952056e-08 	0.0014758535 	-1.1204598e-09 	0.00071867197
0.90697674 	0.0011766742 	0.00058496694 	-2.4126207e-07 	0.0014086796 	-8.3043313e-07 	0.00074105304
0.91860465 	0.0011460983 	0.00056618483 	-1.2314916e-07 	0.0013370383 	-3.9043234e-07 	0.00069165062
0.93023256 	0.0011133879 	0.00054503011 	-4.9394012e-09 	0.0012615792 	-4.5227588e-10 	0.00060715686
0.94186047 	0.0010771475 	0.00052146785 	-3.154174e-08 	0.0011828115 	-9.1257705e-08 	0.00059854319
0.95348837 	0.0010081102 	0.0004813791 	-6.7002958e-09 	0.0010690183 	-6.7892425e-09 	0.00044461038
0.96511628 	0.00086577744 	0.00040897755 	-2.3222332e-07 	0.00089524908 	-5.3112742e-07 	0.00045342746
0.97674419 	0.00056858199 	0.00026697605 	-6.497251e-08 	0.00058007776 	-1.3128648e-07 	2.5461341e-06
0.98837209 	0.00011488989 	5.3763205e-05 	-2.1717507e-07 	0.00011638699 	-4.705558e-07 	4.6971239e-05
