0.47777778 	0.40612744 	2.9281021e-06 	-4.3925781e-09
0.48888889 	0.90348361 	4.2997359e-05 	-1.6138937e-08
0.5 	1.2066948 	0.00018864862 	-4.8389811e-08
0.51111111 	1.376129 	0.00040360156 	-6.2041623e-08
0.52222222 	1.4409246 	0.00057738514 	-1.7672478e-07
0.53333333 	1.4654508 	0.00074910846 	-3.3994971e-08
0.54444444 	1.4771509 	0.00078708553 	-2.2454214e-08
0.55555556 	1.4820535 	0.0008703363 	-7.1681652e-08
0.56666667 	1.4829443 	0.00089010201 	-6.8098932e-08
0.57777778 	1.4814898 	0.00089305434 	-4.0567296e-08
0.58888889 	1.4787618 	0.00087930779 	-2.9543853e-09
0.6 	1.4753308 	0.00085578008 	-1.6019548e-08
0.61111111 	1.4716179 	0.00082769666 	-6.5205791e-08
0.62222222 	1.467804 	0.00079802089 	-9.5793727e-08
0.63333333 	1.4640217 	0.00076887601 	-2.6202731e-08
0.64444444 	1.4601384 	0.00073808046 	-1.9726083e-08
0.65555556 	1.4560881 	0.00070609225 	-7.9184659e-08
0.66666667 	1.4521416 	0.00067566825 	-1.3733317e-08
0.67777778 	1.4479655 	0.00064097432 	-3.1656487e-08
0.68888889 	1.4436786 	0.00060708462 	-3.1997421e-08
0.7 	1.4393767 	0.00057445068 	-9.9226965e-09
0.71111111 	1.4346556 	0.00053861891 	-2.9404062e-08
0.72222222 	1.4300641 	0.00050462315 	-2.8836362e-09
0.73333333 	1.4250447 	0.00045854659 	1.8350231e-09
0.74444444 	1.4199722 	0.00041128867 	1.3681867e-10
0.75555556 	1.4148903 	0.00036236876 	2.5189324e-08
0.76666667 	1.4095506 	0.00031156168 	-4.7355513e-08
0.77777778 	1.404342 	0.00026018328 	3.223892e-08
0.78888889 	1.3988533 	0.00020694345 	3.9099124e-09
0.8 	1.3933191 	0.00015320977 	2.9618255e-08
0.81111111 	1.3875418 	0.00010119481 	3.7689981e-08
0.82222222 	1.3815205 	5.1328312e-05 	2.1980848e-09
0.83333333 	1.3752244 	4.0057274e-06 	6.3906348e-08
0.84444444 	1.3684993 	-4.2286953e-05 	6.3022581e-08
0.85555556 	1.3613089 	-8.6443019e-05 	6.3670038e-09
0.86666667 	1.3534981 	-0.00012576113 	2.8307105e-08
0.87777778 	1.3449016 	-0.00015998107 	9.1418923e-08
0.88888889 	1.3353266 	-0.00018923873 	1.5297686e-07
0.9 	1.3244653 	-0.00021007843 	1.9552004e-07
0.91111111 	1.3119314 	-0.00022340959 	2.0663948e-07
0.92222222 	1.2971854 	-0.00024087994 	1.863827e-07
0.93333333 	1.2787869 	-0.00023998151 	1.1699817e-07
0.94444444 	1.2510752 	-0.00020807806 	4.477894e-08
0.95555556 	1.192148 	-0.00016716871 	1.4324215e-07
0.96666667 	1.0747352 	-7.9393183e-05 	4.2053738e-09
0.97777778 	0.8636365 	-4.3645602e-06 	2.7640591e-08
0.98888889 	0.50187781 	1.8077084e-05 	3.6061502e-09
