0.4742268 	1.2530834e-05 	-2.8815782e-06 	-7.613477e-10 	1.2511397e-05 	3.7635189e-09 	3.795222e-06
0.48453608 	0.00021686525 	-0.00010088848 	-5.9566161e-08 	0.00021604634 	1.2806336e-07 	7.9094794e-05
0.49484536 	6.2180694e-05 	-3.697533e-05 	3.2493399e-07 	6.1718357e-05 	-5.6746001e-07 	2.9387764e-05
0.50515464 	6.1269796e-07 	-2.7736509e-07 	-7.0868678e-10 	6.0833837e-07 	1.5407043e-09 	3.5742673e-07
0.51546392 	1.1557621e-07 	-1.0029715e-08 	1.4368343e-11 	1.1543026e-07 	7.5522775e-11 	6.2564775e-08
0.5257732 	2.4431784e-07 	-7.3297208e-11 	6.4023375e-11 	2.4440048e-07 	1.6090629e-09 	1.1743018e-07
0.53608247 	5.2715768e-07 	1.1700215e-08 	3.5424074e-11 	5.2795249e-07 	6.0119641e-10 	2.6847433e-07
0.54639175 	9.2230926e-07 	5.1124837e-08 	1.0636406e-10 	9.2627929e-07 	1.3287983e-09 	4.083515e-07
0.55670103 	2.560768e-06 	2.8557403e-07 	6.0081663e-10 	2.5833725e-06 	4.2698013e-09 	6.1941262e-07
0.56701031 	7.24934e-06 	1.0192488e-06 	1.346413e-09 	7.3323225e-06 	8.4417868e-09 	2.7882791e-06
0.57731959 	1.3625351e-05 	2.1784573e-06 	6.3232357e-09 	1.380383e-05 	3.7810637e-08 	6.6361667e-06
0.58762887 	1.7351453e-05 	2.8452569e-06 	-1.6531049e-09 	1.7585782e-05 	-5.666439e-09 	9.5339482e-06
0.59793814 	1.395416e-05 	2.139599e-06 	-1.1361297e-09 	1.4128025e-05 	-6.7757217e-09 	6.338449e-06
0.60824742 	9.0208739e-06 	1.353908e-06 	1.0344689e-08 	9.1231552e-06 	3.2053006e-08 	8.758397e-08
0.6185567 	6.0011792e-06 	7.6565805e-07 	-1.4352254e-09 	6.0629629e-06 	-8.3534763e-09 	2.7800888e-06
0.62886598 	6.5976555e-06 	7.4859108e-07 	8.2613907e-10 	6.6575e-06 	1.3185903e-08 	3.2337398e-06
0.63917526 	8.5315094e-06 	9.5714475e-07 	6.5384183e-09 	8.6008385e-06 	2.8031946e-08 	1.0674892e-06
0.64948454 	1.157719e-05 	1.2520134e-06 	2.7778354e-09 	1.167359e-05 	2.405442e-08 	5.2760931e-06
0.65979381 	1.6218651e-05 	1.9196777e-06 	2.7987407e-09 	1.6366459e-05 	1.655751e-08 	8.9683278e-06
0.67010309 	2.4176194e-05 	3.3743435e-06 	1.2212123e-08 	2.4406449e-05 	4.7158464e-08 	6.7841165e-06
0.68041237 	4.0535536e-05 	6.9787074e-06 	8.2554657e-08 	4.096446e-05 	3.3396685e-07 	1.9344739e-05
0.69072165 	7.7689194e-05 	1.7287868e-05 	1.2819024e-07 	7.8449962e-05 	3.6470819e-07 	7.4681673e-06
0.70103093 	0.00014820019 	3.9623764e-05 	6.0532683e-07 	0.00014954742 	1.708612e-06 	6.8014989e-05
0.71134021 	0.00027379808 	8.8082816e-05 	3.792165e-07 	0.00027546153 	7.5810456e-07 	2.4163767e-05
0.72164948 	0.00044819869 	0.00016187643 	1.3321257e-06 	0.00045056218 	2.9519548e-06 	0.00022791422
0.73195876 	0.00064545534 	0.00025357939 	3.0266115e-07 	0.00064811334 	4.7237537e-07 	0.00014146972
0.74226804 	0.00086226325 	0.00036604416 	9.3971214e-07 	0.00086647552 	1.8400317e-06 	0.00044345695
0.75257732 	0.0010574355 	0.00046577512 	5.3985718e-08 	0.0010641177 	7.7404054e-08 	0.0004037136
0.7628866 	0.0012139516 	0.00054692607 	3.3728427e-07 	0.0012264314 	6.5091035e-07 	0.00059360488
0.77319588 	0.0013532029 	0.00062043239 	1.0886621e-08 	0.0013707896 	1.7570671e-08 	0.00057476071
0.78350515 	0.0014550475 	0.00067134488 	2.586893e-07 	0.0014777973 	4.9290489e-07 	0.00068592387
0.79381443 	0.0015438271 	0.0007181689 	5.2016961e-08 	0.0015692 	9.863855e-08 	0.00048942613
0.80412371 	0.0016107338 	0.00075310483 	3.0025327e-07 	0.0016368841 	5.5708588e-07 	0.00074251648
0.81443299 	0.0016665281 	0.00078057323 	9.2721888e-08 	0.0016910514 	2.0254627e-07 	7.5603695e-05
0.82474227 	0.0017109186 	0.00080150235 	1.2365272e-07 	0.0017365909 	2.6619109e-07 	0.00077786281
0.83505155 	0.001745638 	0.0008179777 	1.1804809e-09 	0.0017727629 	2.5862375e-09 	0.00078790385
0.84536082 	0.0017730132 	0.00083134404 	2.5797863e-08 	0.0018027695 	5.6683491e-08 	0.00042947555
0.8556701 	0.0017945089 	0.00084097571 	-3.4241355e-08 	0.0018293793 	3.1481783e-08 	0.00081768959
0.86597938 	0.0018123462 	0.00083998119 	-1.3466795e-07 	0.0018506043 	-2.2528683e-08 	0.00082956706
0.87628866 	0.0018269306 	0.00081235111 	-1.7836901e-08 	0.0018645286 	6.0530139e-08 	0.00023882432
0.88659794 	0.0018376614 	0.00077532078 	4.8002933e-09 	0.0018731783 	3.3569054e-08 	0.00047533205
0.89690722 	0.0018422424 	0.0007469503 	-8.1495696e-08 	0.0018737282 	-5.3128218e-08 	0.00083939364
0.90721649 	0.0018377845 	0.00072393029 	-1.8432473e-07 	0.0018635916 	-2.2141261e-07 	0.00083704734
0.91752577 	0.0018213233 	0.00070876007 	-1.4142065e-07 	0.0018412064 	-3.5056014e-07 	0.00082900751
0.92783505 	0.0017879149 	0.0007052268 	-2.826783e-08 	0.0018029508 	-3.4402945e-07 	0.00081406261
0.93814433 	0.0017327045 	0.0007328279 	1.7273554e-08 	0.0017407054 	-4.0135249e-08 	0.00079187405
0.94845361 	0.0016476873 	0.00076587177 	4.517842e-08 	0.0016454108 	9.5043193e-08 	0.00010570071
0.95876289 	0.0015285285 	0.00070952906 	-1.4963973e-07 	0.0015230228 	-3.2396569e-07 	0.00068001007
0.96907216 	0.0013754177 	0.00063788259 	6.7162037e-08 	0.0013681022 	1.4439165e-07 	0.00017120984
0.97938144 	0.0010344065 	0.00048048713 	-1.5044637e-07 	0.001030915 	-3.2290471e-07 	0.00048650251
0.98969072 	0.00029671609 	0.00013785566 	-2.607329e-07 	0.00029621117 	-5.5976323e-07 	0.0001453869
