0.27835052 	0.77621824 	0.19286684 	-0.0002229443
0.28865979 	1.2739667 	0.30589288 	-1.2032604e-05
0.29896907 	1.2678376 	0.29113415 	-2.3725003e-05
0.30927835 	1.2639452 	0.27785405 	-0.00012040307
0.31958763 	1.2615652 	0.26515706 	-6.2464751e-06
0.32989691 	1.2596546 	0.25433193 	-0.00010662431
0.34020619 	1.2575436 	0.24362499 	-0.00012004112
0.35051546 	1.2553335 	0.23349832 	-3.6069016e-05
0.36082474 	1.2528618 	0.22375377 	-0.00016319493
0.37113402 	1.2507669 	0.21467555 	-3.9670018e-05
0.3814433 	1.2484857 	0.20621638 	-0.00010954252
0.39175258 	1.2460355 	0.19822596 	-2.8533044e-05
0.40206186 	1.243099 	0.19002575 	-0.00028722455
0.41237113 	1.2409046 	0.1829811 	-5.9715704e-05
0.42268041 	1.2380682 	0.17602148 	-0.00010128654
0.43298969 	1.2349565 	0.16890467 	-0.00026554767
0.44329897 	1.2324788 	0.16312218 	-9.4534529e-06
0.45360825 	1.22899 	0.15626502 	-0.00023235681
0.46391753 	1.2263505 	0.15109967 	-2.7005024e-05
0.4742268 	1.2230253 	0.14486065 	-0.00015058805
0.48453608 	1.2202589 	0.14005203 	-7.3998922e-05
0.49484536 	1.2170481 	0.13429052 	-0.0001170748
0.50515464 	1.2143061 	0.12990112 	-0.00010873188
0.51546392 	1.2112118 	0.12481805 	-5.5499242e-05
0.5257732 	1.2084124 	0.12053364 	-4.3874834e-05
0.53608247 	1.2053344 	0.11617536 	-1.4246187e-05
0.54639175 	1.2023605 	0.11173659 	-1.8792053e-05
0.55670103 	1.199286 	0.10783523 	-0.00017417187
0.56701031 	1.196127 	0.10368059 	-1.8081785e-05
0.57731959 	1.1930579 	0.10002954 	-6.4131518e-05
0.58762887 	1.1897989 	0.096370899 	-0.00012511464
0.59793814 	1.1865505 	0.092507679 	-1.9280041e-05
0.60824742 	1.1833439 	0.089348935 	-0.00011392591
0.6185567 	1.1800359 	0.086057379 	-0.00011832246
0.62886598 	1.1767646 	0.082632606 	-1.1955271e-05
0.63917526 	1.1733372 	0.07969481 	-0.00011557422
0.64948454 	1.169863 	0.076675233 	-0.00011315507
0.65979381 	1.1664501 	0.073586135 	-7.5156362e-06
0.67010309 	1.1626558 	0.070806053 	-0.00011660502
0.68041237 	1.1588397 	0.067962301 	-7.6191985e-05
0.69072165 	1.1550205 	0.06515188 	-1.6093954e-06
0.70103093 	1.1508532 	0.062505526 	-0.0001437635
0.71134021 	1.1466845 	0.059839339 	-1.219133e-05
0.72164948 	1.1423588 	0.057277426 	-4.5437369e-05
0.73195876 	1.1378318 	0.054755062 	-7.4002576e-05
0.74226804 	1.1333119 	0.05224666 	-1.2129562e-06
0.75257732 	1.1283994 	0.049871891 	-0.00010556212
0.7628866 	1.1235593 	0.047440943 	-1.6780195e-06
0.77319588 	1.1182819 	0.045179496 	-7.7021058e-05
0.78350515 	1.113005 	0.042859438 	-6.2798488e-07
0.79381443 	1.1073751 	0.040648606 	-5.7545287e-05
0.80412371 	1.1016589 	0.038410368 	-7.0875954e-07
0.81443299 	1.09541 	0.036297973 	-5.5754681e-05
0.82474227 	1.0889797 	0.034137074 	-1.6947367e-06
0.83505155 	1.0817415 	0.032108426 	-5.071791e-05
0.84536082 	1.0745544 	0.030001221 	-6.7469196e-07
0.8556701 	1.067517 	0.028023452 	-8.2336542e-06
0.86597938 	1.0611199 	0.026212801 	-2.7180718e-05
0.87628866 	1.0547487 	0.024377238 	-2.2605035e-06
0.88659794 	1.0475189 	0.022587929 	-8.5660237e-07
0.89690722 	1.0391182 	0.020676079 	-3.1644121e-05
0.90721649 	1.0295889 	0.018747869 	-6.2773942e-06
0.91752577 	1.0188429 	0.016796701 	-1.7457531e-06
0.92783505 	1.0062919 	0.014856103 	-3.2978396e-06
0.93814433 	0.99070948 	0.012933188 	-2.5535606e-06
0.94845361 	0.97121374 	0.011082665 	-2.6438748e-06
0.95876289 	0.93746743 	0.0089721956 	-6.5543779e-06
0.96907216 	0.87654665 	0.0067535082 	-3.9000337e-07
0.97938144 	0.75284095 	0.0041850805 	-1.7042012e-07
0.98969072 	0.49565783 	0.0013702452 	-1.1271283e-06
