0.4742268 	0.20450253 	2.2029739e-05 	-1.4703495e-08
0.48453608 	0.78663719 	0.0003801849 	-1.3985517e-07
0.49484536 	1.20918 	0.0012188839 	3.0753927e-06
0.50515464 	1.424857 	0.0018788081 	-1.8028948e-07
0.51546392 	1.4847045 	0.0020366602 	-5.7095589e-08
0.5257732 	1.494072 	0.0019735203 	-1.1601751e-06
0.53608247 	1.4918568 	0.0018614479 	-3.6820933e-07
0.54639175 	1.4879296 	0.0017477562 	-5.4269077e-08
0.55670103 	1.4838226 	0.001636465 	-6.9490015e-08
0.56701031 	1.479615 	0.0015289423 	-1.7603871e-07
0.57731959 	1.4753216 	0.0014234322 	-9.4125968e-07
0.58762887 	1.4710095 	0.0013196998 	-1.5565623e-06
0.59793814 	1.4667187 	0.0012163996 	-1.1313652e-07
0.60824742 	1.4624406 	0.0011132937 	-3.5876236e-07
0.6185567 	1.458332 	0.0010145275 	-4.0016085e-07
0.62886598 	1.4542501 	0.00091806271 	-1.1474885e-06
0.63917526 	1.4501645 	0.00082281602 	-2.5074234e-07
0.64948454 	1.4461915 	0.00073209266 	-7.8021203e-07
0.65979381 	1.4421706 	0.00064338789 	-1.6582086e-07
0.67010309 	1.4380885 	0.00055765654 	-3.5958362e-08
0.68041237 	1.4339636 	0.00047967854 	-9.7157301e-07
0.69072165 	1.4295851 	0.00040851775 	2.3762453e-08
0.70103093 	1.4250307 	0.0003498686 	-9.6049821e-07
0.71134021 	1.4199847 	0.0003032772 	1.8991983e-07
0.72164948 	1.4147671 	0.00027305558 	-4.0594838e-07
0.73195876 	1.4094435 	0.00025360015 	1.6652404e-07
0.74226804 	1.4040081 	0.00024625236 	-1.7835726e-07
0.75257732 	1.3987555 	0.00022818696 	2.8857151e-08
0.7628866 	1.3935903 	0.00019290973 	-1.8148824e-07
0.77319588 	1.3884549 	0.00015218671 	4.920831e-09
0.78350515 	1.3833851 	9.6984602e-05 	-3.1386812e-07
0.79381443 	1.378205 	4.3683851e-05 	1.8952377e-08
0.80412371 	1.3727917 	-9.2746957e-06 	-6.7844839e-07
0.81443299 	1.3671025 	-6.1303218e-05 	4.7720918e-08
0.82474227 	1.3608128 	-0.00011457458 	-6.4626735e-07
0.83505155 	1.3540968 	-0.00017013013 	2.2981045e-09
0.84536082 	1.346961 	-0.00023642527 	2.2145183e-08
0.8556701 	1.3395422 	-0.00031273916 	-8.6147722e-07
0.86597938 	1.3321496 	-0.00039309501 	-3.2796027e-07
0.87628866 	1.3247164 	-0.00048090451 	5.4156553e-08
0.88659794 	1.3169912 	-0.00057418471 	5.0672953e-08
0.89690722 	1.3088552 	-0.00066540374 	-1.4636882e-07
0.90721649 	1.3001491 	-0.00074783421 	-4.310821e-07
0.91752577 	1.2905825 	-0.00082299604 	-4.0825804e-07
0.92783505 	1.2796605 	-0.00088659244 	-2.889481e-07
0.93814433 	1.266445 	-0.00095629565 	-4.8725081e-09
0.94845361 	1.2474175 	-0.00096394804 	2.4863953e-07
0.95876289 	1.2079261 	-0.00092684925 	2.1486451e-07
0.96907216 	1.1061528 	-0.00072794869 	2.6749896e-07
0.97938144 	0.87948684 	-0.00036347146 	2.002274e-07
0.98969072 	0.48327748 	-7.7013211e-05 	1.1165057e-07
