0 	0.0075514123 	-5.1269506e-16 	6.7301021e-21 	2.4532849e-18 	1.0711273e-19 	4.676643e-21
0.010869565 	0.0074300012 	0.0009947591 	-1.9413815e-06 	0.011155439 	-5.0020721e-05 	0.0021214924
0.02173913 	0.0070389047 	0.0026334687 	5.6838628e-06 	0.010998972 	-2.8440045e-05 	0.0028612293
0.032608696 	0.0064776975 	0.0052249761 	1.0052914e-06 	0.010805085 	-5.086854e-06 	0.0035218145
0.043478261 	0.0059318439 	0.0067940524 	-5.4388217e-06 	0.010449189 	-2.32261e-05 	0.0040470213
0.054347826 	0.0055812445 	0.0065997573 	7.9369132e-06 	0.0098067368 	-6.7989665e-07 	0.00088603747
0.065217391 	0.0054612967 	0.0049410137 	1.0292722e-05 	0.0089219626 	6.0602421e-07 	0.0021464189
0.076086957 	0.0054822696 	0.0030525992 	1.9912891e-05 	0.0081585828 	2.7814718e-06 	0.001269193
0.086956522 	0.0055789112 	0.0011339082 	-2.9087022e-07 	0.0074560938 	-2.2184207e-07 	0.0052061161
0.097826087 	0.0058104936 	-0.00088261287 	-6.1624729e-06 	0.0067253671 	-4.9377976e-06 	0.005219648
0.10869565 	0.0060891948 	-0.0026227296 	2.4429735e-05 	0.0060478059 	6.8020766e-06 	0.0013818687
0.11956522 	0.0063485063 	-0.0040050701 	1.0298957e-05 	0.0054901829 	3.0706653e-06 	0.0035510189
0.13043478 	0.0065632588 	-0.0050518439 	4.2075327e-06 	0.0050460228 	1.2544886e-06 	0.0046875158
0.14130435 	0.00663253 	-0.0055843982 	1.9426669e-05 	0.004713406 	6.4375735e-06 	0.00027093601
0.15217391 	0.0067244079 	-0.0060954421 	1.4869986e-07 	0.0043952384 	7.4580037e-08 	0.0054204189
0.16304348 	0.0065593719 	-0.0058779357 	6.7284149e-06 	0.0041856538 	3.3746193e-06 	0.0010391535
0.17391304 	0.0064267078 	-0.00576772 	-5.9342987e-07 	0.0039555878 	1.5639311e-07 	0.0040168841
0.18478261 	0.006081069 	-0.0052394127 	-1.956525e-06 	0.0038144046 	5.1562458e-07 	0.0012551797
0.19565217 	0.0057801279 	-0.0048299444 	-9.6353831e-07 	0.0036443299 	-1.668283e-07 	0.0035057861
0.20652174 	0.00536439 	-0.0042921964 	-5.152838e-06 	0.0035115263 	-8.9216923e-07 	0.00082782391
0.2173913 	0.0050155832 	-0.0038660502 	2.4135376e-06 	0.0033586644 	-1.3052121e-06 	0.0031710309
0.22826087 	0.0046455092 	-0.0034919006 	-5.9116503e-06 	0.0032139975 	-1.4813159e-06 	9.4341361e-05
0.23913043 	0.0043330472 	-0.0031734657 	2.6399906e-06 	0.0030689243 	-1.9240672e-06 	0.0024594734
0.25 	0.0040494958 	-0.0029464001 	-2.5980592e-06 	0.0029332192 	-7.9407419e-07 	0.00096494214
0.26086957 	0.003794122 	-0.0027493883 	-9.6015065e-07 	0.0028075935 	-2.9346169e-07 	0.001481882
0.27173913 	0.0035714796 	-0.0025915263 	7.8984456e-07 	0.0026951308 	-7.0395755e-07 	0.0018319529
0.2826087 	0.0033608772 	-0.0024681875 	-2.8177217e-06 	0.0025976829 	-9.7947279e-07 	0.00023289719
0.29347826 	0.0031778353 	-0.0023540803 	2.9132066e-06 	0.0025152223 	-2.4585988e-06 	0.0014484097
0.30434783 	0.0029963327 	-0.0022350234 	-6.2731753e-07 	0.0024444517 	-2.3619155e-07 	0.0011125896
0.31521739 	0.0028211773 	-0.0021232934 	-1.505333e-06 	0.0023860599 	-5.6677349e-07 	0.00058903659
0.32608696 	0.0026539443 	-0.0020005329 	5.813741e-06 	0.0023407012 	-3.6215232e-06 	0.0011024696
0.33695652 	0.0024815958 	-0.001859398 	-7.7234989e-07 	0.0022996349 	-3.2077849e-07 	0.00079495523
0.34782609 	0.0023114196 	-0.0017117033 	-1.0655636e-06 	0.0022669739 	-4.4255832e-07 	0.00056842711
0.35869565 	0.0021455303 	-0.0015562393 	7.1893261e-06 	0.0022422747 	-3.3390486e-06 	0.00083902413
0.36956522 	0.001978181 	-0.0013930322 	1.2164254e-07 	0.0022177144 	-5.6496304e-08 	0.0008005738
0.38043478 	0.0018134628 	-0.0012115874 	-1.3676075e-06 	0.0021944607 	-6.563232e-07 	0.00032780022
0.39130435 	0.001660739 	-0.0010523384 	5.6057316e-06 	0.0021810262 	-2.4137581e-06 	0.00063765011
0.40217391 	0.0015129447 	-0.00089543527 	3.1809718e-06 	0.0021648136 	-1.3696868e-06 	0.0006094123
0.41304348 	0.0013759128 	-0.00073497963 	-1.8890035e-06 	0.0021434531 	-1.0880271e-06 	3.5301904e-05
0.42391304 	0.0012445569 	-0.00060064376 	1.9513777e-06 	0.0021472794 	-9.1669521e-07 	0.00049676253
0.43478261 	0.0011330409 	-0.00049094871 	5.4047801e-06 	0.0021455652 	-2.5389939e-06 	0.00047608841
0.44565217 	0.0010215249 	-0.00038125366 	4.7664055e-07 	0.0021438511 	-2.2391058e-07 	0.00045541429
0.45652174 	0.00092821059 	-0.00028995526 	-4.7226827e-07 	0.0021512964 	-3.4186216e-07 	0.00025822018
0.4673913 	0.00086181148 	-0.00022944658 	2.1163784e-06 	0.0021632701 	-1.6154012e-06 	0.00039947914
0.47826087 	0.00080763868 	-0.00017550108 	2.4004739e-06 	0.0021691159 	-1.8322472e-06 	0.00038375843
0.48913043 	0.00075346588 	-0.00012155559 	3.4988166e-08 	0.0021749616 	-2.6705963e-08 	0.00036803771
0.5 	0.00072604839 	-8.8642667e-05 	-8.7294919e-09 	0.002185784 	-5.5567071e-09 	0.00036594397
0.51086957 	0.00072882729 	-6.9915991e-05 	8.8620281e-07 	0.0021935492 	-1.7803618e-06 	0.00035702248
0.52173913 	0.00073187967 	-5.1249688e-05 	7.5780009e-07 	0.0022011831 	-1.5224036e-06 	0.00034423282
0.5326087 	0.00073666873 	-3.3333452e-05 	-8.5772341e-08 	0.0022084601 	-1.4049878e-08 	0.00029779153
0.54347826 	0.0007608851 	-3.2095822e-05 	2.0785852e-08 	0.0022257071 	-1.3882206e-07 	0.00035178831
0.55434783 	0.00078524811 	-2.95772e-05 	1.1761194e-07 	0.002255988 	-7.8549255e-07 	0.0003410378
0.56521739 	0.00080961111 	-2.7058577e-05 	5.6874185e-08 	0.0022862689 	-3.7984451e-07 	0.00033028729
0.57608696 	0.00083900265 	-3.1110408e-05 	-1.0540181e-06 	0.0023189752 	-6.118264e-08 	6.5297966e-06
0.58695652 	0.00085710216 	-3.7709953e-05 	-1.0831777e-07 	0.0023785156 	4.2474137e-07 	0.00034748736
0.59782609 	0.0008818635 	-4.0812689e-05 	-1.622851e-07 	0.0024368126 	6.3636093e-07 	0.00033837042
0.60869565 	0.00090662484 	-4.3915425e-05 	-1.1680544e-08 	0.0024951096 	4.5802369e-08 	0.00032925347
0.61956522 	0.00093550867 	-5.8226507e-05 	-7.9560348e-08 	0.002563001 	4.2110351e-07 	0.00035829002
0.63043478 	0.00096571666 	-6.3200553e-05 	-2.8192857e-07 	0.0026362011 	1.4922146e-06 	0.00035060828
0.64130435 	0.00099592464 	-6.8174598e-05 	-6.0222743e-08 	0.0027094011 	3.1875186e-07 	0.00034292654
0.65217391 	0.0010295314 	-8.3074119e-05 	-6.7885268e-08 	0.0027864998 	3.4671456e-07 	0.00037131972
0.66304348 	0.0010646273 	-9.0062071e-05 	-3.6638223e-07 	0.0028688863 	1.8712462e-06 	0.00036495444
0.67391304 	0.0010997232 	-9.7050024e-05 	-7.2613163e-08 	0.0029512729 	3.7086162e-07 	0.00035858916
0.68478261 	0.0011385556 	-0.00011555578 	-1.6096096e-07 	0.0030350177 	5.2517726e-07 	0.00038516319
0.69565217 	0.0011777149 	-0.00012804584 	-5.1905033e-07 	0.0031226968 	1.6935375e-06 	0.00037999619
0.70652174 	0.0012168743 	-0.0001405359 	-1.0620029e-08 	0.003210376 	3.4650624e-08 	0.00037482919
0.7173913 	0.001260187 	-0.00016498843 	-3.8341566e-07 	0.0032991488 	1.0864004e-06 	0.00039864911
0.72826087 	0.0013002843 	-0.00018114554 	-3.8896584e-07 	0.0033920141 	1.1021267e-06 	0.00039456775
0.73913043 	0.0013417066 	-0.00019992035 	1.0941546e-08 	0.0034841132 	5.2252056e-08 	0.00041658342
0.75 	0.0013716339 	-0.00019125566 	4.3951061e-07 	0.0035841832 	2.0989112e-06 	0.00041343072
0.76086957 	0.0014015612 	-0.00018259098 	8.9383311e-09 	0.0036842533 	4.2685575e-08 	0.00041027802
0.77173913 	0.001419661 	-8.6272038e-05 	3.4347325e-06 	0.0037808707 	9.7424545e-07 	0.00043463235
0.7826087 	0.0014450968 	3.472652e-05 	1.409154e-06 	0.0038684216 	3.996998e-07 	0.00043221117
0.79347826 	0.0015081222 	0.00027812936 	4.8144709e-06 	0.0039066012 	-1.5627209e-06 	0.00045348413
0.80434783 	0.0016412579 	0.00054437443 	4.1888271e-06 	0.0038747282 	-1.3596442e-06 	0.00045146575
0.81521739 	0.001871389 	0.00084665742 	3.3841159e-06 	0.0037452918 	-3.3251717e-06 	0.00044953624
0.82608696 	0.0021311919 	0.001084579 	3.2614111e-06 	0.0035722954 	-3.2046042e-06 	0.00044782366
0.83695652 	0.0023838401 	0.0012316101 	1.3366317e-06 	0.0033863444 	-4.0119497e-06 	0.00043963818
0.84782609 	0.0026112702 	0.0013237525 	5.4598222e-07 	0.0032014502 	-1.6387859e-06 	0.00043834064
0.85869565 	0.0027542637 	0.0013496621 	-1.3390677e-07 	0.0030580216 	-4.6514609e-06 	0.00043049469
0.86956522 	0.0028665585 	0.0013581667 	3.5286566e-09 	0.0029252035 	4.8108564e-08 	2.477539e-05
0.88043478 	0.002910248 	0.0013390196 	-7.4922055e-07 	0.0028114322 	-3.0344109e-06 	0.00041929489
0.89130435 	0.0029223269 	0.0013129528 	-6.9375769e-07 	0.0027065193 	-1.8848396e-06 	0.0004052609
0.90217391 	0.0029060439 	0.0012783253 	1.1361613e-08 	0.0026029879 	1.2288158e-07 	0.00025603088
0.91304348 	0.0028591235 	0.0012373897 	-8.6736467e-07 	0.0025000795 	-2.0586435e-06 	0.00038792406
0.92391304 	0.0028103686 	0.0011957046 	-1.1233408e-06 	0.0023968645 	-2.6078464e-06 	0.00037132183
0.93478261 	0.0027610813 	0.0011509732 	-6.3655597e-07 	0.0022882995 	-1.4868155e-06 	0.0003584121
0.94565217 	0.0026948565 	0.0010822083 	-1.2969062e-06 	0.0021265293 	-2.9107836e-06 	0.00034568004
0.95652174 	0.0026133825 	0.00095422641 	1.5327091e-07 	0.0018646761 	4.4017756e-07 	0.00016258997
0.9673913 	0.002454277 	0.00050285784 	-3.1777299e-06 	0.0014466994 	-1.9075765e-06 	0.00028668936
0.97826087 	0.0017689626 	1.408637e-05 	8.3499256e-07 	0.0010236469 	1.962003e-07 	0.00012337847
0.98913043 	0.00038619458 	-0.00014022217 	5.8808715e-09 	0.00027086465 	-1.0676893e-08 	3.2536972e-05
