0.12903226 	3.7173781e-08 	-6.7814014e-09 	3.9962743e-11 	4.5533675e-08 	-1.0843331e-10 	1.6437039e-08
0.13978495 	1.5279122e-08 	-4.4744403e-09 	1.9535828e-10 	1.6906355e-08 	-7.3814738e-10 	3.2228226e-11
0.15053763 	1.7280107e-16 	-1.5039564e-18 	2.1181178e-21 	1.7659506e-16 	1.1008442e-18 	8.2125078e-17
0.16129032 	2.2789424e-15 	-2.4141892e-18 	1.0557015e-20 	2.2835396e-15 	1.3655419e-18 	6.719514e-16
0.17204301 	1.0741098e-14 	-1.5591004e-17 	-8.1161928e-20 	1.0752776e-14 	3.1484288e-17 	2.9183736e-15
0.1827957 	1.1351337e-14 	-1.5980596e-17 	3.6046465e-21 	1.1355427e-14 	-2.7789724e-18 	1.0253307e-15
0.19354839 	9.3601869e-15 	-1.565543e-18 	4.5681413e-21 	9.3446957e-15 	-1.1394616e-18 	1.6622517e-16
0.20430108 	9.373744e-15 	-3.229173e-20 	1.0355345e-21 	9.3585671e-15 	-2.583002e-19 	1.3828717e-15
0.21505376 	1.0345627e-14 	-1.5290541e-20 	-1.1485764e-22 	1.0331119e-14 	6.1793433e-18 	2.7214824e-15
0.22580645 	1.2006264e-14 	-4.0634086e-20 	-5.8188088e-22 	1.1991368e-14 	5.2432499e-17 	4.1469219e-15
0.23655914 	1.4805615e-14 	-8.1491947e-20 	1.5813545e-22 	1.4788049e-14 	-1.8372241e-17 	5.4919333e-15
0.24731183 	2.1771568e-14 	-7.8973247e-19 	4.1968455e-21 	2.173784e-14 	-7.8056275e-17 	3.0669616e-15
0.25806452 	3.2217376e-14 	-6.6131287e-18 	-7.6880084e-20 	3.2212673e-14 	3.3320622e-17 	2.4013143e-14
0.2688172 	3.3371849e-14 	-1.0215513e-17 	2.9612227e-19 	3.3342688e-14 	-1.2370277e-16 	1.1733532e-14
0.27956989 	3.3659956e-14 	-8.1355499e-18 	3.1427863e-19 	3.3630199e-14 	-1.1140685e-16 	1.3112573e-14
0.29032258 	3.2626188e-14 	-2.3183345e-18 	9.2140059e-20 	3.2611921e-14 	-3.2662208e-17 	2.3777086e-14
0.30107527 	4.0125719e-14 	-1.0462703e-19 	8.1799688e-22 	4.0056298e-14 	-1.8491821e-17 	3.5458704e-15
0.31182796 	5.7088853e-14 	-1.6022502e-20 	4.1945279e-22 	5.7061761e-14 	9.2744007e-17 	4.2838008e-14
0.32258065 	6.2470487e-14 	-9.897686e-21 	2.8102672e-23 	6.235722e-14 	-2.2225952e-17 	3.0308238e-15
0.33333333 	7.9476126e-14 	-1.960129e-20 	-5.5451036e-22 	7.9423154e-14 	-8.2814395e-17 	5.1624547e-14
0.34408602 	5.671615e-14 	-8.3486156e-20 	6.8219563e-22 	5.6611132e-14 	-4.0702462e-17 	1.4290938e-15
0.35483871 	4.7761679e-14 	-5.1016237e-20 	-4.0308488e-23 	4.7703011e-14 	-2.7877153e-16 	1.6828816e-14
0.3655914 	3.9357258e-14 	-9.566517e-20 	1.0828568e-21 	3.9291379e-14 	5.9585778e-19 	4.5805881e-15
0.37634409 	6.0426035e-14 	-1.0605535e-19 	-1.525841e-21 	6.0323984e-14 	9.756951e-16 	6.6293582e-15
0.38709677 	9.9570513e-14 	-1.6967398e-19 	-5.0581402e-22 	9.9389874e-14 	3.2344147e-16 	4.4359725e-15
0.39784946 	1.9640332e-13 	-9.3591734e-19 	-3.0437405e-20 	1.9604838e-13 	3.2970792e-15 	8.0374961e-15
0.40860215 	3.5417427e-13 	-2.3322866e-18 	-4.3595595e-20 	3.5351188e-13 	4.7224174e-15 	1.1605682e-15
0.41935484 	5.1982216e-13 	-3.5846743e-18 	-1.2731454e-20 	5.1894114e-13 	1.1105561e-15 	4.7831977e-14
0.43010753 	7.258362e-13 	-5.5618799e-18 	-1.0090848e-19 	7.2467199e-13 	8.8021783e-15 	9.2906552e-14
0.44086022 	9.3185024e-13 	-7.5390854e-18 	-1.2071695e-20 	9.3040285e-13 	1.0530057e-15 	1.3798113e-13
0.4516129 	1.0860904e-12 	-1.1615329e-17 	-3.9324038e-20 	1.0846878e-12 	9.7964227e-16 	2.822636e-13
0.46236559 	1.1791496e-12 	-1.4420977e-17 	-7.2246332e-20 	1.1777354e-12 	1.799804e-15 	3.4194285e-13
0.47311828 	1.2384616e-12 	-1.5188473e-17 	5.8794921e-20 	1.2364282e-12 	4.2980598e-16 	6.3641626e-14
0.48387097 	1.6674917e-12 	-1.5524303e-17 	-1.9586353e-20 	1.6655429e-12 	1.5921378e-14 	4.9445541e-13
0.49462366 	2.4882206e-12 	-1.6669302e-17 	-1.811102e-20 	2.4848496e-12 	1.4722107e-14 	5.4855145e-13
0.50537634 	3.1931587e-12 	-1.6589629e-17 	1.6159169e-19 	3.1873987e-12 	-2.3174981e-14 	3.1605355e-14
0.51612903 	3.2217184e-12 	-9.8438456e-18 	6.3257811e-20 	3.2169031e-12 	2.2652698e-14 	6.0586071e-13
0.52688172 	4.6962751e-12 	-5.5763199e-18 	6.3122316e-20 	4.6886811e-12 	2.2604177e-14 	6.4639399e-13
0.53763441 	7.8117725e-12 	-6.036939e-18 	8.7689607e-20 	7.797183e-12 	-2.9910925e-14 	8.330714e-14
0.5483871 	8.7603958e-12 	-3.7197947e-18 	9.6146178e-21 	8.7497504e-12 	6.1637181e-14 	3.1278772e-12
0.55913978 	3.2042818e-11 	-1.0516599e-19 	7.906796e-20 	3.1988052e-11 	5.0688715e-13 	3.2889483e-12
0.56989247 	8.0611272e-11 	2.2139124e-18 	-2.3318416e-20 	8.0460691e-11 	4.6417724e-13 	1.6031226e-12
0.58064516 	1.4217373e-10 	2.2214993e-18 	-1.527494e-20 	1.4205163e-10 	3.0406351e-13 	7.8103808e-11
0.59139785 	3.8786414e-08 	8.892e-14 	3.8822429e-15 	3.8713216e-08 	1.683145e-09 	1.9822234e-10
0.60215054 	9.8882869e-08 	2.2715868e-13 	-1.7381932e-15 	9.869583e-08 	-7.5070596e-10 	2.7983493e-10
0.61290323 	1.2231125e-07 	2.8045056e-13 	-4.3186916e-15 	1.2208015e-07 	-1.865194e-09 	4.8306009e-10
0.62365591 	7.8010595e-08 	1.7679321e-13 	-3.240575e-16 	7.7864387e-08 	-1.2339629e-10 	9.3459128e-10
0.6344086 	8.3078593e-08 	1.8598857e-13 	-9.8630419e-16 	8.292254e-08 	-4.3146748e-10 	8.188579e-10
0.64516129 	1.1699916e-07 	2.627005e-13 	-4.4712668e-15 	1.1677817e-07 	-1.9559952e-09 	5.0942256e-10
0.65591398 	7.4350018e-08 	2.9046111e-13 	5.5055631e-15 	7.4211575e-08 	1.9823887e-11 	1.2973201e-09
0.66666667 	9.9571253e-08 	7.21551e-13 	-5.5614446e-15 	9.9384872e-08 	-4.9959698e-10 	1.0426376e-09
0.67741935 	1.9133514e-07 	9.1379344e-13 	-1.219306e-14 	1.9109856e-07 	-1.0953298e-09 	6.6266546e-08
0.68817204 	2.7094872e-05 	8.1872214e-08 	3.3237463e-09 	2.7173414e-05 	1.0936558e-06 	2.0644389e-07
0.69892473 	7.9443312e-05 	2.4081426e-07 	-3.434903e-09 	7.9674064e-05 	-1.1208788e-06 	2.1359058e-07
0.70967742 	6.1853469e-05 	1.7960631e-07 	-6.1680494e-10 	6.2026032e-05 	-2.0127601e-07 	2.980128e-06
0.72043011 	0.00010959473 	2.579029e-07 	3.1242819e-10 	0.00010977281 	1.8413677e-07 	3.3849251e-06
0.7311828 	0.00017534632 	4.1843222e-07 	-6.4991362e-09 	0.00017562766 	-2.702307e-06 	4.748758e-07
0.74193548 	0.00015201475 	5.3424635e-07 	1.0324533e-08 	0.00015238131 	1.3903649e-06 	8.2691581e-07
0.75268817 	0.00029287568 	1.2205397e-06 	-1.835521e-08 	0.00029371303 	-4.2573955e-06 	6.8331344e-07
0.76344086 	0.00028521554 	6.8782494e-06 	2.6401064e-07 	0.00029168661 	3.1443854e-06 	2.2883585e-05
0.77419355 	0.00069116926 	3.5092439e-05 	-2.555733e-07 	0.00072517627 	-3.4880002e-06 	1.3635536e-05
0.78494624 	0.0014141377 	6.3931629e-05 	5.2044636e-07 	0.0014787096 	1.4801037e-06 	0.00089875584
0.79569892 	0.0015344594 	0.00016879598 	-7.7370415e-07 	0.0016880037 	-2.3513908e-06 	0.00060932784
0.80645161 	0.0015430011 	0.00023033646 	8.6438738e-07 	0.0017528051 	8.6858918e-08 	0.00083777772
0.8172043 	0.0014344726 	0.00039727753 	-1.3953472e-06 	0.0017716623 	-1.6757429e-06 	0.00046727977
0.82795699 	0.0013353067 	0.00061676613 	7.18098e-07 	0.001850098 	-5.8469845e-07 	0.00072604059
0.83870968 	0.001303309 	0.00062247808 	-1.2765925e-06 	0.0017932201 	-7.5239019e-07 	8.0866711e-05
0.84946237 	0.0012731953 	0.00063877187 	-3.1125698e-07 	0.0017529346 	-1.1521894e-06 	0.00066249098
0.86021505 	0.001252905 	0.00062660816 	-1.000875e-08 	0.0016940042 	1.3679586e-09 	0.00053335409
0.87096774 	0.0012328503 	0.00061967581 	-1.694631e-08 	0.0016394746 	5.3362088e-09 	0.0004720235
0.88172043 	0.0012124183 	0.00061102611 	-2.6488569e-07 	0.0015830027 	-1.3325913e-06 	0.0005619803
0.89247312 	0.0011913741 	0.00060089382 	-2.0356529e-08 	0.0015248785 	-8.2748357e-08 	0.0005231608
0.90322581 	0.0011693143 	0.00058860169 	-6.6857917e-08 	0.001462671 	7.8027247e-09 	0.00012670782
0.91397849 	0.0011448121 	0.00057320946 	-9.8932205e-08 	0.0013965187 	-3.6325892e-07 	0.00046492499
0.92473118 	0.0011200503 	0.00055626146 	-3.2832407e-07 	0.0013252954 	-1.1654453e-06 	0.00042760978
0.93548387 	0.0010935761 	0.00053753626 	-3.4254701e-07 	0.0012515672 	-1.1500001e-06 	0.00039110642
0.94623656 	0.0010591924 	0.00051386949 	-3.8382985e-07 	0.0011682827 	-1.1779913e-06 	0.00035718998
0.95698925 	0.00098990239 	0.00047300369 	-4.3571397e-09 	0.0010508634 	1.1535303e-08 	4.4121382e-06
0.96774194 	0.00083919617 	0.00039682142 	-4.0028876e-08 	0.00086944777 	-9.2010915e-08 	0.000258147
0.97849462 	0.00052662577 	0.00024759758 	-2.064937e-07 	0.00053868955 	-4.5100706e-07 	0.00013226406
0.98924731 	0.00010219701 	4.7845759e-05 	-5.2343375e-07 	0.00010362244 	-1.1354232e-06 	2.4540713e-05
