0.47777778 	0.40650904 	-1.6512213e-05 	-8.7735492e-08
0.48888889 	0.89741187 	-3.6423259e-05 	-1.0091726e-07
0.5 	1.1915603 	3.9776241e-05 	-1.5918541e-07
0.51111111 	1.3587309 	0.0001927822 	-1.1952183e-07
0.52222222 	1.4270379 	0.00032783052 	-6.9022221e-07
0.53333333 	1.4544562 	0.00047403793 	8.760683e-08
0.54444444 	1.4685213 	0.00052224396 	8.8662285e-08
0.55555556 	1.4762942 	0.00059367923 	-1.5647875e-07
0.56666667 	1.4796716 	0.00063091066 	-2.2729929e-07
0.57777778 	1.4801076 	0.00064470103 	-7.9370542e-08
0.58888889 	1.4785935 	0.00064104244 	-8.5286638e-08
0.6 	1.4759558 	0.00062526517 	-6.3083578e-08
0.61111111 	1.47268 	0.00060029378 	-5.305766e-07
0.62222222 	1.4691203 	0.00057192496 	-1.0731528e-06
0.63333333 	1.4654957 	0.00054784453 	-1.2268191e-07
0.64444444 	1.4617271 	0.00052000802 	-1.7672262e-08
0.65555556 	1.457793 	0.00048653703 	-1.1438569e-06
0.66666667 	1.4539559 	0.00046234997 	-5.7110301e-09
0.67777778 	1.4499079 	0.00043116094 	-4.100078e-07
0.68888889 	1.4457652 	0.00039987598 	-6.0708179e-07
0.7 	1.4416101 	0.00037163469 	-1.9162878e-08
0.71111111 	1.4371413 	0.00033444198 	-9.0171507e-07
0.72222222 	1.4327848 	0.00030496475 	-1.8838712e-07
0.73333333 	1.4281573 	0.00026491909 	-9.2364994e-07
0.74444444 	1.4234593 	0.0002312484 	-2.2567393e-07
0.75555556 	1.4186489 	0.00018840008 	-9.0950166e-07
0.76666667 	1.4135623 	0.00015041637 	-3.546477e-07
0.77777778 	1.4084328 	0.00010469757 	-1.0412742e-06
0.78888889 	1.4030035 	6.6141807e-05 	-1.6750588e-07
0.8 	1.3974583 	2.2141037e-05 	-5.2122853e-07
0.81111111 	1.3916341 	-1.8117218e-05 	-3.9991434e-07
0.82222222 	1.3855151 	-5.6444556e-05 	-1.8269718e-07
0.83333333 	1.3790648 	-9.5273088e-05 	-6.0400149e-07
0.84444444 	1.3721213 	-0.00012830914 	-4.1076623e-07
0.85555556 	1.3646293 	-0.00015712783 	-9.5843086e-08
0.86666667 	1.3564639 	-0.00018304067 	-2.1261697e-08
0.87777778 	1.3474121 	-0.00020411057 	-3.4596009e-07
0.88888889 	1.337318 	-0.00022003941 	-5.3088183e-07
0.9 	1.3258897 	-0.00022567893 	-5.6001292e-07
0.91111111 	1.3127703 	-0.00022896393 	-5.170903e-07
0.92222222 	1.2974563 	-0.00023632501 	-3.9623751e-07
0.93333333 	1.2782182 	-0.00021883501 	-1.5931785e-07
0.94444444 	1.2478445 	-0.00019074728 	1.4365787e-07
0.95555556 	1.1865557 	-0.00015000806 	-2.1925246e-07
0.96666667 	1.0680098 	-7.8629152e-05 	1.1893261e-07
0.97777778 	0.86059562 	-2.2202681e-05 	-7.0864328e-08
0.98888889 	0.50322961 	5.0289168e-06 	-1.7353408e-08
