0 	0.0063384506 	-4.3047529e-16 	-1.5646637e-22 	2.923569e-29 	1.0626399e-35 	3.862415e-42
0.010869565 	0.0061554676 	0.0027671429 	5.8384857e-08 	0.01291846 	-9.0285667e-06 	0.010780421
0.02173913 	0.0056957971 	0.0056683682 	-1.0564621e-06 	0.012631821 	-7.0917367e-06 	0.0095261477
0.032608696 	0.0053115645 	0.0066170732 	2.475264e-06 	0.012039012 	-2.4814994e-06 	0.0052006306
0.043478261 	0.0051687618 	0.0052020141 	-1.8108797e-05 	0.011108397 	-1.7433841e-05 	0.0070255474
0.054347826 	0.0053483992 	0.0015526746 	3.4708234e-05 	0.009792095 	1.1470143e-06 	0.00067943654
0.065217391 	0.0057392444 	-0.0018395865 	1.8916084e-05 	0.0082752901 	2.1199084e-06 	0.0023261659
0.076086957 	0.006129678 	-0.0038700104 	2.2188345e-05 	0.0070382252 	4.1229583e-06 	0.0011129996
0.086956522 	0.0064350278 	-0.005338227 	-3.0845008e-06 	0.0060601482 	-1.1157302e-05 	0.0029866677
0.097826087 	0.0066564197 	-0.0064538084 	1.9365912e-06 	0.0053532472 	-1.9028713e-05 	0.0022338254
0.10869565 	0.006784488 	-0.0071524406 	1.3379097e-06 	0.0048653509 	3.2194243e-07 	0.0013912765
0.11956522 	0.0067765789 	-0.0072402615 	5.5307026e-06 	0.0046179991 	-6.0057489e-06 	0.0012883281
0.13043478 	0.0066932893 	-0.0070594639 	2.3941482e-05 	0.0044638171 	-1.0448942e-05 	0.00086934455
0.14130435 	0.0065183314 	-0.0065934687 	-1.8087655e-07 	0.0044021788 	-1.1447791e-07 	0.00012302133
0.15217391 	0.0062291315 	-0.0059356104 	3.3903546e-05 	0.0043845032 	-1.0132826e-05 	0.0002630451
0.16304348 	0.0059080971 	-0.0052508259 	9.0707868e-06 	0.0043678171 	-3.2962201e-06 	8.8404006e-06
0.17391304 	0.0055399617 	-0.0046052528 	2.5047078e-05 	0.004315522 	-9.1018212e-06 	0.00022571427
0.18478261 	0.0051765961 	-0.0040263271 	6.2587237e-06 	0.0042347467 	-3.6679826e-06 	0.00039498424
0.19565217 	0.0048244422 	-0.0035796752 	1.6307606e-05 	0.0040985098 	-9.5572227e-06 	0.00057544039
0.20652174 	0.0044935 	-0.003203642 	1.1691773e-06 	0.0039387178 	-1.0616588e-06 	0.00066452408
0.2173913 	0.0042011855 	-0.0029361836 	1.2272804e-05 	0.0037593012 	-1.1144187e-05 	0.00081040177
0.22826087 	0.0039207509 	-0.0027023191 	-8.2079944e-07 	0.0035710104 	-8.1247955e-07 	0.00015237701
0.23913043 	0.003695694 	-0.0025284298 	9.2684266e-06 	0.0034012177 	-1.0490582e-05 	0.00095337814
0.25 	0.0034694486 	-0.0023591829 	-1.3442e-07 	0.0032361418 	-1.5259511e-07 	0.00090651649
0.26086957 	0.0032858884 	-0.0022187277 	2.4601578e-06 	0.0030942093 	-2.6486699e-06 	0.0010384155
0.27173913 	0.0031052765 	-0.0020776463 	3.5386503e-06 	0.0029737016 	-3.809803e-06 	0.0011302984
0.2826087 	0.0029349927 	-0.0019358571 	-8.9115478e-07 	0.0028641795 	-8.1777433e-07 	0.00028720775
0.29347826 	0.0027837227 	-0.0017892117 	5.1618535e-06 	0.0027823824 	-4.4279088e-06 	0.0011626981
0.30434783 	0.0026259843 	-0.0016443898 	-1.1963694e-07 	0.0027057205 	-7.4289594e-08 	0.001139585
0.31521739 	0.0024803158 	-0.0014903504 	-6.9063261e-07 	0.0026396639 	-4.288543e-07 	0.0006747383
0.32608696 	0.0023348628 	-0.0013328891 	5.8984143e-06 	0.0025873408 	-4.125267e-06 	0.0012292539
0.33695652 	0.0021870419 	-0.0011834464 	-5.7304362e-07 	0.0025311306 	-1.7467556e-07 	0.00083204861
0.34782609 	0.0020505162 	-0.0010323646 	-7.5864496e-07 	0.0024751452 	-2.3125069e-07 	0.00065954252
0.35869565 	0.0019138293 	-0.0008785572 	4.3988355e-06 	0.0024291721 	-3.113857e-06 	0.0012406389
0.36956522 	0.0017792317 	-0.00074474536 	-3.3520292e-07 	0.0023732586 	1.1754959e-07 	0.00088293974
0.38043478 	0.0016601828 	-0.0006290187 	-7.373702e-07 	0.0023057338 	2.5858237e-07 	0.00039112918
0.39130435 	0.0015446324 	-0.00049979547 	1.4318992e-06 	0.0022539113 	-1.3042406e-06 	0.0012036392
0.40217391 	0.0014320525 	-0.00039292551 	-7.1001186e-09 	0.0022008986 	1.1326545e-07 	0.0011389684
0.41304348 	0.0013427295 	-0.00033178334 	-9.1252575e-08 	0.0021285871 	1.4557171e-06 	1.7759643e-05
0.42391304 	0.0012595902 	-0.00024526168 	-2.1197559e-08 	0.0020727622 	3.3815647e-07 	0.00089328724
0.43478261 	0.00117959 	-0.00017170972 	1.0975636e-06 	0.0020286567 	-1.368079e-06 	0.0011753249
0.44565217 	0.0011155181 	-0.00012815221 	4.3757803e-07 	0.0019892659 	1.3142601e-06 	0.00058253181
0.45652174 	0.0010629161 	-9.024426e-05 	6.3974963e-07 	0.0019523449 	1.92148e-06 	0.00029960234
0.4673913 	0.0010161305 	-3.9677246e-05 	5.748273e-08 	0.0019196021 	1.7264866e-07 	0.0010859044
0.47826087 	0.00097076956 	3.5448356e-06 	7.7325544e-08 	0.0019091828 	-9.529754e-08 	0.0011797063
0.48913043 	0.00094215989 	2.8302332e-05 	1.0041723e-06 	0.0019113965 	2.4759907e-06 	0.0004048682
0.5 	0.00091828164 	6.4881868e-05 	1.0298462e-06 	0.0019145124 	2.5392951e-06 	0.00040901059
0.51086957 	0.00089832741 	0.00011383439 	5.1295677e-08 	0.0019180713 	1.2647991e-07 	0.0012123259
0.52173913 	0.00089386979 	0.00015216967 	1.6356092e-07 	0.0019310008 	4.519696e-07 	0.0011340647
0.5326087 	0.00090557934 	0.00018175764 	1.1890091e-06 	0.0019475825 	3.2856013e-06 	0.00030868655
0.54347826 	0.00090301785 	0.00024648335 	9.1305579e-07 	0.0019809288 	2.5230566e-06 	0.00059447555
0.55434783 	0.00089703749 	0.00032699448 	2.1212205e-07 	0.0020216319 	-9.5038169e-08 	0.0014196216
0.56521739 	0.0009479413 	0.00035768219 	2.8691832e-07 	0.0020328445 	1.5310772e-06 	0.00095146287
0.57608696 	0.0010196011 	0.00037435231 	8.5308767e-07 	0.0020328901 	4.5523168e-06 	1.7098077e-05
0.58695652 	0.0010390624 	0.00048839659 	2.582419e-07 	0.0020851046 	1.3780517e-06 	0.0011159085
0.59782609 	0.0010790904 	0.00056134358 	-6.7783068e-09 	0.0021253766 	2.0726549e-07 	0.0015373521
0.60869565 	0.0011755786 	0.00055467391 	-1.3197218e-07 	0.0021284768 	4.0354147e-06 	0.0004158269
0.61956522 	0.0012493315 	0.00062120088 	-9.5987605e-08 	0.002158003 	2.9350867e-06 	0.0008135155
0.63043478 	0.0013114957 	0.00071307604 	2.3159456e-07 	0.0022020956 	1.7568571e-08 	0.0017637817
0.64130435 	0.0013989806 	0.00071367425 	-7.3819559e-07 	0.0022273891 	4.0025856e-06 	0.00068478955
0.65217391 	0.001487834 	0.00075776482 	-7.6072623e-07 	0.0022591043 	4.1247495e-06 	0.00071349934
0.66304348 	0.00157161 	0.00084828443 	2.3193557e-07 	0.0023027688 	7.4239243e-08 	0.0019341614
0.67391304 	0.0016562469 	0.0008516238 	-1.2600896e-06 	0.0023416394 	4.8633356e-06 	0.00071208585
0.68478261 	0.0017534987 	0.00089831046 	-1.1244285e-06 	0.0023787663 	4.3397493e-06 	0.00091572689
0.69565217 	0.0018522061 	0.00097505492 	1.6187861e-08 	0.0024211254 	7.4457774e-09 	0.0021026529
0.70652174 	0.0019334928 	0.00096803339 	-1.8407579e-06 	0.0024697295 	7.1666533e-06 	0.00038700217
0.7173913 	0.002050527 	0.0010371154 	-7.1995839e-07 	0.0025012134 	2.803026e-06 	0.0015388583
0.72826087 	0.0021458064 	0.0010750816 	-6.2826621e-07 	0.0025492439 	2.9932781e-06 	0.0015743448
0.73913043 	0.0022328425 	0.0010810867 	-1.6563459e-06 	0.0026021068 	7.8914064e-06 	0.0004788396
0.75 	0.0023737624 	0.0011697411 	9.4917718e-08 	0.0026189614 	9.9137847e-08 	0.0024096148
0.76086957 	0.0024233112 	0.0011423445 	-1.5431973e-06 	0.002701871 	9.1077545e-06 	0.00042625778
0.77173913 	0.0025687468 	0.0012238497 	-3.5729635e-07 	0.0027110329 	2.1087177e-06 	0.0020586087
0.7826087 	0.0026225981 	0.0012184501 	-9.8486765e-07 	0.0027823502 	6.9996872e-06 	0.0010889748
0.79347826 	0.0027223483 	0.0012623221 	-6.6797605e-07 	0.002810978 	4.7474637e-06 	0.0016230414
0.80434783 	0.0027916476 	0.0012821136 	-5.5685195e-07 	0.0028487073 	5.6395715e-06 	0.0014693126
0.81521739 	0.0028540573 	0.0013018065 	-5.5897628e-07 	0.0028773661 	5.6610859e-06 	0.0015052511
0.82608696 	0.0029289982 	0.001327493 	-9.5602454e-08 	0.0028730271 	5.3098261e-06 	0.0014633337
0.83695652 	0.0029890709 	0.0013431168 	-7.2267813e-08 	0.0028601656 	4.0138041e-06 	0.0017926527
0.84782609 	0.0030694936 	0.0013431063 	5.6769186e-07 	0.0027990039 	5.6029218e-06 	0.00098262504
0.85869565 	0.0031469083 	0.0013546331 	6.4099961e-08 	0.0027185974 	6.3264439e-07 	0.0025460092
0.86956522 	0.0032247559 	0.0013105677 	1.2387846e-06 	0.0026031506 	5.3568726e-06 	4.0945814e-05
0.88043478 	0.0032985663 	0.0012836732 	1.6009567e-07 	0.0024628127 	4.7748559e-07 	0.0021849463
0.89130435 	0.0033240213 	0.0012244103 	3.1770863e-07 	0.0023356272 	9.4756652e-07 	0.0016301583
0.90217391 	0.0032568203 	0.0011891285 	9.5408732e-08 	0.0022656474 	1.105439e-07 	0.00024364553
0.91304348 	0.0032109405 	0.0011279048 	-1.4761156e-07 	0.0021435075 	-5.1069649e-07 	0.0017723798
0.92391304 	0.0030638596 	0.0011035326 	-2.5755258e-08 	0.0021034561 	-8.91063e-08 	0.0022130922
0.93478261 	0.0028705432 	0.00109318 	-2.8931175e-07 	0.0021133442 	-1.048324e-06 	0.0015112391
0.94565217 	0.0026474098 	0.0010568923 	-6.2663734e-08 	0.0020753772 	-9.0191796e-08 	0.002135452
0.95652174 	0.0024680177 	0.00084998356 	-5.1805012e-06 	0.0018727677 	-7.4517655e-06 	0.00014708128
0.9673913 	0.0019173278 	0.00064538282 	-6.1553086e-06 	0.0018192172 	-1.7935575e-06 	0.00102916
0.97826087 	0.0011829602 	0.00025553875 	-1.0674557e-05 	0.0014466369 	-9.7704779e-07 	0.00010910082
0.98913043 	0.00026488094 	3.9224736e-05 	-8.0993918e-07 	0.00033712312 	5.4146463e-08 	3.0938177e-05
