0.34020619 	3.2370848e-08 	-1.2203871e-08 	1.1253859e-11 	2.3591792e-08 	-1.8822671e-11 	2.1117435e-08
0.35051546 	2.307528e-10 	-4.9709876e-11 	2.1687654e-12 	1.9984794e-10 	-8.2043171e-12 	7.2472387e-13
0.36082474 	5.062698e-13 	3.0651452e-15 	-1.3106826e-16 	5.1781899e-13 	-2.0371297e-14 	2.1586936e-14
0.37113402 	1.6508555e-14 	4.3161245e-19 	-2.2216264e-25 	1.6497753e-14 	2.629925e-22 	9.7463443e-15
0.3814433 	3.6111116e-14 	5.0364312e-21 	-3.9650606e-23 	3.6056417e-14 	-3.0527075e-18 	7.4028459e-15
0.39175258 	8.1865693e-14 	1.4041677e-21 	6.0355579e-24 	8.1736598e-14 	9.5986868e-17 	1.4141252e-14
0.40206186 	6.7692958e-14 	7.118218e-24 	-1.0071876e-25 	6.7564901e-14 	2.2117795e-16 	5.1604317e-16
0.41237113 	5.1374152e-14 	1.6017375e-25 	-2.8731259e-27 	5.127715e-14 	8.9442228e-17 	4.8886938e-16
0.42268041 	3.6250654e-14 	1.3616554e-23 	4.9341752e-26 	3.6184413e-14 	-6.4613668e-17 	1.5021145e-15
0.43298969 	3.7612423e-14 	8.7692849e-23 	9.5946988e-25 	3.7544261e-14 	2.0557589e-17 	1.8562107e-15
0.44329897 	4.3198841e-14 	1.5872863e-21 	5.023528e-23 	4.3127647e-14 	1.3457034e-16 	5.8483039e-15
0.45360825 	5.4077264e-14 	6.7843703e-21 	1.683697e-22 	5.3997552e-14 	2.0712856e-16 	1.2248746e-14
0.46391753 	7.9320159e-14 	3.3734718e-20 	3.3987551e-22 	7.9176411e-14 	1.5008684e-16 	3.8522757e-15
0.4742268 	1.3292904e-13 	5.369208e-20 	9.3484712e-23 	1.3275345e-13 	5.0008178e-16 	4.0723729e-14
0.48453608 	2.6555625e-13 	5.732737e-20 	-3.7640781e-23 	2.653328e-13 	1.0711022e-15 	1.4823718e-13
0.49484536 	5.2075579e-13 	4.0534854e-20 	2.1645271e-23 	5.1984681e-13 	4.1410078e-15 	4.3851912e-14
0.50515464 	7.3932344e-13 	3.5682213e-20 	-1.8193137e-22 	7.3882085e-13 	3.1315651e-15 	4.7561529e-13
0.51546392 	9.8549974e-13 	1.3401308e-20 	3.0709388e-24 	9.8391173e-13 	5.3454611e-15 	1.5243944e-13
0.5257732 	1.085082e-12 	1.4475017e-18 	1.4741088e-20 	1.0844544e-12 	7.6439499e-16 	7.5341813e-13
0.53608247 	1.2475508e-12 	7.5428039e-18 	-1.4155569e-20 	1.2457707e-12 	1.9112227e-15 	3.0143695e-13
0.54639175 	1.3511596e-12 	2.1506654e-17 	1.7075082e-20 	1.3506592e-12 	8.9241806e-17 	1.054293e-12
0.55670103 	1.4697717e-12 	6.2907926e-17 	-5.3747704e-20 	1.4676562e-12 	-1.8738516e-16 	2.6232067e-13
0.56701031 	1.6378584e-12 	1.4073707e-16 	2.317846e-19 	1.6378665e-12 	3.5579403e-16 	1.4248851e-12
0.57731959 	1.7150945e-12 	1.9344232e-16 	-2.3934796e-19 	1.7124912e-12 	-5.6806535e-16 	5.9428719e-14
0.58762887 	1.8385078e-12 	2.4082474e-16 	-3.6386545e-20 	1.8385334e-12 	-8.6359356e-17 	1.4988278e-12
0.59793814 	1.590626e-12 	2.3012727e-16 	1.3564518e-18 	1.5894974e-12 	-4.6500634e-15 	6.6873434e-13
0.60824742 	1.0960633e-12 	1.2935668e-16 	1.2074828e-18 	1.0949069e-12 	-4.1393815e-15 	3.0678353e-13
0.6185567 	1.6829837e-12 	4.0446975e-17 	5.9500108e-19 	1.6808888e-12 	-1.6350475e-14 	5.3117336e-13
0.62886598 	5.1977436e-12 	1.1837967e-16 	2.6311251e-18 	5.1883482e-12 	-7.2302633e-14 	1.1840123e-13
0.63917526 	9.384006e-12 	6.156159e-17 	6.2616313e-19 	9.3816235e-12 	-1.72068e-14 	8.0555078e-12
0.64948454 	9.8226708e-11 	7.6284389e-17 	4.3530187e-19 	9.8051362e-11 	-1.1049165e-12 	6.1497452e-12
0.65979381 	2.4098487e-10 	1.3527072e-16 	8.0504074e-19 	2.4067018e-10 	-2.043416e-12 	7.5743451e-11
0.67010309 	3.8128708e-10 	1.9054673e-16 	2.3563504e-20 	3.8125857e-10 	-5.9810688e-14 	3.661058e-10
0.68041237 	9.7161135e-10 	1.5302402e-16 	1.5395417e-18 	9.7004315e-10 	-1.4289309e-12 	1.4878395e-10
0.69072165 	1.6417916e-09 	8.5385515e-17 	1.4691589e-18 	1.6402767e-09 	-1.3636048e-12 	8.4701387e-10
0.70103093 	2.2425597e-09 	2.9201563e-17 	1.8641396e-19 	2.241798e-09 	-5.4968702e-14 	1.842936e-09
0.71134021 	2.4869735e-09 	7.1803261e-17 	2.1123542e-18 	2.4824931e-09 	-6.2287916e-13 	1.3657096e-10
0.72164948 	2.7376355e-09 	4.2426657e-17 	3.8504001e-19 	2.736497e-09 	-1.1353844e-13 	2.1403083e-09
0.73195876 	2.8559289e-09 	1.0777882e-16 	1.5926318e-18 	2.8526616e-09 	-7.4919244e-13 	1.1418368e-09
0.74226804 	2.9219679e-09 	1.8430862e-16 	1.4536728e-18 	2.9189728e-09 	-6.8382451e-13 	1.3506661e-09
0.75257732 	2.9683357e-09 	6.5275799e-16 	6.6280761e-18 	2.9663897e-09 	-2.9800365e-13 	1.9469934e-09
0.7628866 	2.9809737e-09 	1.5968332e-15 	1.6580515e-17 	2.9767329e-09 	-7.4547333e-13 	7.5501034e-10
0.77319588 	2.9870731e-09 	4.9279465e-15 	3.2950812e-17 	2.9859428e-09 	-1.1538943e-13 	2.3903594e-09
0.78350515 	2.9663169e-09 	1.6492869e-14 	1.7600679e-16 	2.9616275e-09 	-6.1635274e-13 	4.9416056e-10
0.79381443 	1.6783735e-08 	1.5857024e-12 	1.0176161e-14 	1.6758374e-08 	2.0668363e-11 	2.4265002e-09
0.80412371 	1.1183364e-07 	1.1610369e-11 	5.1401363e-14 	1.1173281e-07 	1.0439909e-10 	5.119832e-08
0.81443299 	6.529434e-07 	9.0155172e-10 	3.2422723e-11 	6.5295666e-07 	1.5229025e-08 	1.6181167e-07
0.82474227 	1.0274441e-06 	1.7637482e-09 	6.1404386e-11 	1.0276218e-06 	2.8841777e-08 	1.4571547e-07
0.83505155 	2.5008025e-05 	2.2660704e-07 	-8.9943213e-10 	2.5180336e-05 	-1.6569576e-07 	1.8260632e-07
0.84536082 	6.8281433e-05 	6.4956042e-07 	-2.3166313e-10 	6.8894507e-05 	-4.2677593e-08 	6.0811323e-05
0.8556701 	0.00049001935 	1.7649008e-05 	-1.2286977e-07 	0.00050668408 	-2.1947534e-06 	6.5703636e-05
0.86597938 	0.00090406948 	5.7745544e-05 	-2.5172492e-07 	0.00096207051 	-1.2209603e-06 	0.0004962221
0.87628866 	0.0011348296 	0.0001402439 	-8.3595786e-08 	0.0012797109 	-4.0547093e-07 	0.00098612598
0.88659794 	0.0011714425 	0.00025972805 	-8.2404145e-07 	0.0014261189 	-1.4056484e-06 	0.0003368918
0.89690722 	0.0011678286 	0.00038118286 	-9.1199082e-07 	0.0015122924 	-9.1814889e-07 	0.00027501013
0.90721649 	0.0011475084 	0.00049384113 	-2.3994233e-07 	0.001549165 	-1.7342381e-07 	0.0007700703
0.91752577 	0.0011270602 	0.00057909013 	5.8237204e-09 	0.0015372581 	-1.4915239e-08 	0.0011201917
0.92783505 	0.0011268984 	0.00057498888 	-3.8450206e-08 	0.0014679684 	-2.4923733e-07 	0.0010742204
0.93814433 	0.0011209232 	0.00056515244 	-3.0341704e-08 	0.0013858805 	-1.6306831e-07 	0.0010214634
0.94845361 	0.0011106384 	0.00055061517 	-7.605872e-08 	0.0012971264 	-3.4082357e-07 	0.00096662639
0.95876289 	0.0010855758 	0.00052742778 	6.7951109e-08 	0.0011990804 	1.2317157e-07 	0.00033417983
0.96907216 	0.00098630165 	0.000470492 	4.1270332e-08 	0.0010418072 	8.1987014e-08 	0.00048785055
0.97938144 	0.00069675195 	0.0003283518 	2.0369165e-08 	0.0007163262 	3.9369472e-08 	0.00034295108
0.98969072 	0.00015271248 	7.1315293e-05 	-5.4602396e-09 	0.00015404286 	-1.2857718e-08 	5.9942291e-05
