0.29896907 	7.8780372e-11 	-8.2007228e-12 	-1.5423194e-14 	7.1357528e-11 	4.0933951e-14 	6.2746104e-11
0.30927835 	6.6038548e-10 	-2.2786114e-10 	-2.0429179e-12 	4.9003524e-10 	4.2026745e-12 	1.7601845e-11
0.31958763 	1.147455e-11 	3.149689e-13 	5.0305519e-15 	1.290893e-11 	2.1621649e-13 	2.5074374e-14
0.32989691 	2.5984866e-14 	4.6110769e-18 	-3.8638854e-20 	2.5973147e-14 	-9.5085364e-17 	7.1777666e-15
0.34020619 	1.3830164e-14 	6.7989805e-20 	2.3674669e-22 	1.3808756e-14 	1.2654256e-18 	2.3340682e-15
0.35051546 	1.8817304e-14 	2.0415596e-20 	-1.4927843e-22 	1.8788624e-14 	1.4770864e-17 	3.6921937e-15
0.36082474 	2.0326938e-14 	1.2617732e-21 	-8.4098084e-24 	2.0290168e-14 	-3.681605e-17 	1.0321403e-15
0.37113402 	1.8088959e-14 	4.3522735e-22 	-4.9020996e-24 	1.8056367e-14 	-1.3052783e-17 	9.8959977e-16
0.3814433 	1.8011713e-14 	2.4362192e-23 	-3.164356e-26 	1.7983405e-14 	1.7921892e-17 	3.161607e-15
0.39175258 	2.522019e-14 	1.6185446e-23 	-7.8152575e-26 	2.517269e-14 	8.8021976e-18 	3.0226464e-16
0.40206186 	3.1998288e-14 	4.2900229e-20 	1.0582083e-22 	3.1959709e-14 	1.0625599e-17 	1.1630309e-14
0.41237113 	3.5639923e-14 	1.6676191e-19 	-7.1820051e-23 	3.5604878e-14 	3.8525879e-17 	1.6749831e-14
0.42268041 	4.0922721e-14 	3.5923637e-20 	7.4889845e-24 	4.0884626e-14 	7.5187101e-18 	2.0829314e-14
0.43298969 	5.6286636e-14 	1.43812e-21 	1.633683e-23 	5.619431e-14 	7.250692e-17 	7.8492105e-15
0.44329897 	8.020084e-14 	1.2461972e-22 	-5.0574209e-24 	8.0162799e-14 	9.9500011e-17 	6.0244671e-14
0.45360825 	1.0184545e-13 	7.8134757e-22 	3.3511513e-23 	1.0172278e-13 	2.6828942e-16 	3.7490258e-14
0.46391753 	1.6202314e-13 	6.6722196e-22 	2.9096944e-23 	1.618387e-13 	6.2145842e-16 	6.5267922e-14
0.4742268 	2.8770907e-13 	7.3984317e-22 	3.2267928e-23 	2.8753176e-13 	6.8918494e-16 	1.9469698e-13
0.48453608 	4.8090665e-13 	4.001913e-22 	1.6241598e-23 	4.8022494e-13 	1.8292755e-15 	1.2329187e-13
0.49484536 	7.2313104e-13 	2.5574666e-22 	7.1043524e-24 	7.2275501e-13 	8.0015635e-16 	5.2587379e-13
0.50515464 	9.320579e-13 	9.745917e-19 	2.5298353e-20 	9.3082012e-13 	1.0745733e-15 	2.809029e-13
0.51546392 	1.1223942e-12 	1.0523157e-18 	1.1231513e-20 	1.1216078e-12 	4.7706998e-16 	7.0778281e-13
0.5257732 	1.2539479e-12 	4.6930898e-18 	6.9141254e-20 	1.2526833e-12 	2.3604866e-16 	5.8195846e-13
0.53608247 	1.3354853e-12 	5.9634547e-18 	7.923424e-20 	1.3340106e-12 	2.7050617e-16 	5.5088485e-13
0.54639175 	1.4227445e-12 	3.2483757e-17 	9.8166886e-20 	1.4219645e-12 	1.63305e-16 	9.5836964e-13
0.55670103 	1.5026262e-12 	7.3199429e-17 	1.2022693e-18 	1.5002926e-12 	1.2502418e-15 	1.5392414e-13
0.56701031 	1.4986429e-12 	5.5603691e-17 	-5.2271713e-20 	1.4977288e-12 	-3.2337264e-16 	9.2190073e-13
0.57731959 	1.4896753e-12 	6.673584e-17 	6.0718611e-19 	1.4879157e-12 	1.7010179e-15 	4.5303677e-13
0.58762887 	1.2817903e-12 	5.2684379e-17 	2.6443814e-19 	1.2803462e-12 	7.4081734e-16 	4.3646919e-13
0.59793814 	2.6836028e-12 	2.659019e-17 	-3.8683135e-19 	2.6795971e-12 	2.4093584e-14 	5.4084873e-13
0.60824742 	5.409512e-12 	2.811046e-17 	3.879016e-19 	5.3994242e-12 	1.3166376e-14 	7.6946947e-14
0.6185567 	2.4601779e-11 	1.9285922e-17 	-1.2080706e-20 	2.4562436e-11 	7.7248289e-13 	3.9354737e-12
0.62886598 	1.4535049e-10 	1.8649462e-17 	-2.0910856e-20 	1.4508119e-10 	1.3371138e-12 	4.0573987e-12
0.63917526 	3.4999766e-10 	2.7759289e-17 	3.7113485e-19 	3.493356e-10 	-1.5557903e-13 	2.657062e-12
0.64948454 	6.3550252e-10 	1.6160332e-17 	-1.5871049e-19 	6.3494308e-10 	4.8340136e-12 	3.4201022e-10
0.65979381 	1.0122953e-09 	4.7595965e-18 	-1.1099572e-19 	1.0110089e-09 	3.3807142e-12 	3.3744808e-10
0.67010309 	1.4832913e-09 	2.4671438e-18 	2.3863286e-20 	1.4807654e-09 	-1.820967e-13 	1.5825914e-10
0.68041237 	1.9656604e-09 	1.8325501e-18 	-2.1528123e-21 	1.9638319e-09 	7.8198806e-12 	1.0064338e-09
0.69072165 	2.3730085e-09 	1.7917571e-18 	2.5538321e-22 	2.3703739e-09 	-4.6878493e-15 	9.9093258e-10
0.70103093 	2.6450486e-09 	2.8309313e-18 	7.0951062e-21 	2.6416718e-09 	-1.3023873e-13 	8.7363292e-10
0.71134021 	2.8379065e-09 	1.1668564e-17 	2.6058156e-19 	2.8350606e-09 	3.0543935e-12 	1.3449804e-09
0.72164948 	2.9494967e-09 	2.4295678e-17 	1.3674962e-19 	2.9445384e-09 	-4.6814141e-13 	3.4847805e-10
0.73195876 	2.9938237e-09 	7.325299e-17 	1.8155162e-18 	2.9908298e-09 	-1.727066e-13 	1.4231937e-09
0.74226804 	3.0209807e-09 	2.2026414e-16 	1.657962e-19 	3.0177397e-09 	-4.7182804e-14 	1.3205957e-09
0.75257732 	3.0221503e-09 	3.9897541e-16 	2.0965802e-19 	3.0188904e-09 	-5.9665138e-14 	1.3117398e-09
0.7628866 	3.0025692e-09 	2.3669011e-15 	1.6100278e-17 	2.9996939e-09 	-4.8255955e-13 	1.4923776e-09
0.77319588 	2.942252e-09 	5.0962562e-15 	1.1212946e-17 	2.9380882e-09 	-1.6707021e-13 	7.5394753e-10
0.78350515 	7.8124955e-09 	3.1791313e-13 	4.6780256e-15 	7.8008456e-09 	7.2817816e-11 	1.4789733e-09
0.79381443 	1.2972773e-08 	6.1011818e-13 	3.3368353e-15 	1.2949112e-08 	4.8152996e-12 	1.3263831e-10
0.80412371 	2.1311167e-06 	1.2900399e-09 	1.6040856e-11 	2.1285731e-06 	2.6375638e-08 	4.3273837e-09
0.81443299 	1.0993591e-05 	6.6017549e-09 	6.2290535e-13 	1.0993561e-05 	2.8818499e-10 	6.9162188e-06
0.82474227 	4.9887972e-05 	2.7980769e-07 	1.7657299e-10 	5.0104702e-05 	2.2739138e-08 	1.2667695e-05
0.83505155 	0.00015458962 	1.1656002e-06 	-1.9442747e-10 	0.0001557223 	-1.84814e-08 	0.00011688201
0.84536082 	0.00054363897 	3.5373262e-05 	-2.736498e-07 	0.000579398 	-1.1712121e-06 	5.0809361e-05
0.8556701 	0.0010516619 	0.00010438119 	1.1261545e-06 	0.0011605044 	5.3299537e-06 	0.00072487203
0.86597938 	0.0011673801 	0.00024073476 	-6.5135046e-07 	0.0014217531 	-1.0209036e-06 	0.00040656903
0.87628866 	0.0011885294 	0.00036816532 	-7.1142894e-07 	0.0015645743 	-6.3265207e-07 	0.00044438123
0.88659794 	0.0011632869 	0.00047555427 	7.0249064e-07 	0.0016171225 	1.4480571e-07 	0.00088287178
0.89690722 	0.0011419279 	0.00055136151 	-1.0469361e-07 	0.0016101631 	-7.4030647e-08 	0.00079006253
0.90721649 	0.0011319792 	0.0005736014 	-1.7490189e-07 	0.0015633084 	-9.4082084e-08 	0.00022089872
0.91752577 	0.0011230656 	0.00057453568 	-6.9258071e-09 	0.0014995792 	2.8701186e-08 	0.00021063986
0.92783505 	0.0011125359 	0.00056518139 	9.4348257e-09 	0.0014259924 	3.1636173e-08 	0.00048550997
0.93814433 	0.0011006347 	0.00055276354 	1.3354246e-08 	0.0013446001 	2.9532951e-08 	0.00060778719
0.94845361 	0.0010861655 	0.00053700811 	2.121441e-08 	0.0012597659 	4.4092144e-08 	0.00057028513
0.95876289 	0.0010507771 	0.00050920946 	3.534232e-08 	0.0011533578 	7.4965828e-08 	0.0004403009
0.96907216 	0.00093548623 	0.00044571866 	7.0624011e-08 	0.00098562471 	1.5175662e-07 	0.0001549235
0.97938144 	0.00063840135 	0.00030110824 	-1.6311605e-07 	0.00065749022 	-3.6128237e-07 	0.00053004366
0.98969072 	0.00013435954 	6.2803583e-05 	-2.1675015e-09 	0.00013579334 	-6.7125441e-09 	8.3807592e-06
