0.47777778 	0.40588021 	3.2613366e-07 	-1.6404309e-08
0.48888889 	0.89983285 	2.9130354e-05 	-2.7973253e-08
0.5 	1.1984154 	0.00015300324 	-5.7241532e-08
0.51111111 	1.3669094 	0.00034549811 	-6.0460104e-08
0.52222222 	1.4336391 	0.00050631466 	-2.2483339e-07
0.53333333 	1.4597909 	0.00066869258 	-9.2836026e-09
0.54444444 	1.4728192 	0.00071390054 	9.4923429e-09
0.55555556 	1.4792389 	0.00079507075 	-7.6919397e-08
0.56666667 	1.481419 	0.0008261393 	-8.5901406e-08
0.57777778 	1.4809015 	0.00083629639 	-4.7574309e-08
0.58888889 	1.4787562 	0.00082891469 	-4.9006955e-08
0.6 	1.4756865 	0.00081006117 	-5.537161e-09
0.61111111 	1.4721602 	0.00078452197 	-1.22972e-07
0.62222222 	1.4684619 	0.00075674577 	-2.1109865e-07
0.63333333 	1.4647561 	0.00072985095 	-4.5255724e-08
0.64444444 	1.4609318 	0.00070090956 	-2.7896465e-08
0.65555556 	1.456942 	0.00066968713 	-2.0581288e-07
0.66666667 	1.4530544 	0.00064141391 	-2.3816718e-08
0.67777778 	1.4489431 	0.00061003143 	-8.4857174e-08
0.68888889 	1.4447239 	0.00057809289 	-1.09441e-07
0.7 	1.4404877 	0.00054673983 	-1.8865291e-08
0.71111111 	1.4358979 	0.00051169252 	-1.5671068e-07
0.72222222 	1.4314402 	0.00047950853 	-3.7810075e-08
0.73333333 	1.4266462 	0.00043850717 	-1.5665397e-07
0.74444444 	1.4218039 	0.00039820525 	-7.5283999e-08
0.75555556 	1.4168695 	0.00035117005 	-1.2887138e-07
0.76666667 	1.4116698 	0.00030269504 	-2.4466421e-07
0.77777778 	1.4064882 	0.00025237989 	-1.1399777e-07
0.78888889 	1.4010195 	0.00020191039 	-3.2628246e-08
0.8 	1.3954787 	0.00015286522 	-4.9277699e-08
0.81111111 	1.3896806 	0.00010483803 	-3.0804778e-08
0.82222222 	1.3836186 	5.7868278e-05 	-9.5116069e-08
0.83333333 	1.3772545 	1.3693619e-05 	-3.0018619e-08
0.84444444 	1.3704315 	-2.8333741e-05 	-9.4904886e-09
0.85555556 	1.3631045 	-6.747866e-05 	-4.6058752e-08
0.86666667 	1.3551212 	-0.00010193157 	1.1270177e-09
0.87777778 	1.3463009 	-0.00013099881 	1.8642588e-08
0.88888889 	1.3364636 	-0.00015522291 	4.839898e-08
0.9 	1.3253082 	-0.00017031644 	7.7465585e-08
0.91111111 	1.3124635 	-0.00018076171 	8.8626836e-08
0.92222222 	1.2974099 	-0.00019558235 	8.3291853e-08
0.93333333 	1.278556 	-0.00018904218 	5.1468611e-08
0.94444444 	1.2494512 	-0.00016233042 	8.2673745e-08
0.95555556 	1.1892077 	-0.00012493205 	6.5059467e-08
0.96666667 	1.0710724 	-5.1778539e-05 	4.7337663e-08
0.97777778 	0.86193489 	5.0052053e-06 	3.7179733e-09
0.98888889 	0.50265788 	1.8783928e-05 	-1.9377937e-09
