0 	0.74905671 	-5.0872118e-14 	-1.8490668e-20
0.010869565 	0.74002144 	-0.00037918124 	3.3508402e-07
0.02173913 	0.73168679 	-0.00056843292 	1.0197571e-06
0.032608696 	0.73169475 	-0.00046488867 	6.4182113e-07
0.043478261 	0.74240557 	0.00018658404 	4.9167511e-06
0.054347826 	0.76262235 	0.0011575954 	-5.5231681e-07
0.065217391 	0.79245633 	0.0024358445 	1.9527e-06
0.076086957 	0.81975638 	0.0037014558 	6.9681322e-06
0.086956522 	0.84937147 	0.0051787932 	1.8253524e-06
0.097826087 	0.8773929 	0.0063088529 	1.6999832e-06
0.10869565 	0.90272954 	0.0071054719 	4.898341e-05
0.11956522 	0.92959675 	0.008130088 	1.8846481e-05
0.13043478 	0.95327111 	0.0084683493 	2.5035098e-05
0.14130435 	0.97392107 	0.0083410857 	0.00010704755
0.15217391 	0.99728281 	0.0085553105 	-6.7224033e-07
0.16304348 	1.0127727 	0.0074467903 	0.00016972648
0.17391304 	1.033282 	0.0070940343 	2.485884e-05
0.18478261 	1.0459106 	0.005391846 	0.00019729809
0.19565217 	1.0631977 	0.0043702359 	1.9210663e-05
0.20652174 	1.0733913 	0.002177967 	0.00023555865
0.2173913 	1.0887168 	0.00072828621 	-1.0141267e-05
0.22826087 	1.0977612 	-0.0017729933 	0.00025850974
0.23913043 	1.1112698 	-0.0035580839 	2.6235792e-05
0.25 	1.1219169 	-0.0059221706 	0.00015331454
0.26086957 	1.1335358 	-0.0080039171 	0.00013515139
0.27173913 	1.1465284 	-0.010009269 	-2.7816873e-06
0.2826087 	1.1578428 	-0.012046678 	0.0002951979
0.29347826 	1.1719982 	-0.013571961 	-3.5344321e-07
0.30434783 	1.1857844 	-0.015246016 	6.5656685e-05
0.31521739 	1.1991491 	-0.016616358 	0.00020859288
0.32608696 	1.2140273 	-0.017699496 	-3.0206527e-06
0.33695652 	1.2280375 	-0.0188533 	8.4729339e-05
0.34782609 	1.2414221 	-0.019682513 	0.00018075963
0.35869565 	1.2556566 	-0.020290673 	3.8430376e-06
0.36956522 	1.2687251 	-0.021029066 	3.935663e-05
0.38043478 	1.2800216 	-0.02150156 	0.00021547157
0.39130435 	1.2924889 	-0.02165799 	6.2964861e-06
0.40217391 	1.3034238 	-0.022049588 	5.3278252e-06
0.41304348 	1.3120389 	-0.022320302 	0.00023010848
0.42391304 	1.3219167 	-0.022111949 	2.9710521e-05
0.43478261 	1.3299299 	-0.022180074 	2.6075072e-05
0.44565217 	1.337215 	-0.022267199 	4.428969e-05
0.45652174 	1.3423574 	-0.022091676 	0.00020348005
0.4673913 	1.3487629 	-0.021664991 	1.1430869e-05
0.47826087 	1.3533514 	-0.021600124 	2.4666586e-05
0.48913043 	1.3570428 	-0.021497062 	8.7757104e-05
0.5 	1.3597334 	-0.021043727 	0.00015980188
0.51086957 	1.363256 	-0.02054456 	1.8708534e-05
0.52173913 	1.365462 	-0.020405596 	2.1706721e-05
0.5326087 	1.366529 	-0.020223733 	0.00012718179
0.54347826 	1.3678517 	-0.019501143 	9.9972157e-05
0.55434783 	1.3691984 	-0.019089505 	2.5263267e-05
0.56521739 	1.3697972 	-0.018944209 	1.0696676e-05
0.57608696 	1.3681973 	-0.018747691 	0.00028120183
0.58695652 	1.3698443 	-0.017677223 	6.1189861e-06
0.59782609 	1.3694561 	-0.017578426 	2.1373083e-05
0.60869565 	1.368267 	-0.017480854 	0.00011171558
0.61956522 	1.36797 	-0.016428514 	5.2270665e-05
0.63043478 	1.3675707 	-0.016222758 	2.1852824e-05
0.64130435 	1.3667836 	-0.016193172 	5.492542e-06
0.65217391 	1.3652289 	-0.015319844 	0.00012436384
0.66304348 	1.3655185 	-0.01488954 	1.6330107e-05
0.67391304 	1.364891 	-0.014919527 	1.4711702e-05
0.68478261 	1.3642225 	-0.013698331 	6.2914359e-05
0.69565217 	1.3645154 	-0.013484881 	1.3377451e-05
0.70652174 	1.3627769 	-0.013679199 	0.00021499941
0.7173913 	1.3639886 	-0.011831059 	4.4641267e-06
0.72826087 	1.3631557 	-0.01179291 	7.1806272e-06
0.73913043 	1.3588818 	-0.011517381 	0.00036414144
0.75 	1.3579095 	-0.0096878834 	1.8523249e-05
0.76086957 	1.3511757 	-0.0099045272 	0.00027591452
0.77173913 	1.3444068 	-0.0073507821 	9.4912312e-06
0.7826087 	1.3326918 	-0.0070776165 	1.6300391e-06
0.79347826 	1.3157187 	-0.005203858 	2.4062304e-06
0.80434783 	1.2899411 	-0.0051350176 	3.0582667e-06
0.81521739 	1.2566808 	-0.0038790604 	4.8503611e-07
0.82608696 	1.2094645 	-0.0040601637 	9.2627309e-07
0.83695652 	1.150624 	-0.0036763178 	4.3354679e-08
0.84782609 	1.0799077 	-0.004075753 	2.8674371e-05
0.85869565 	0.99481041 	-0.0044725509 	-3.5315316e-07
0.86956522 	0.90224312 	-0.0069769199 	0.00071534454
0.88043478 	0.79442889 	-0.0057982831 	1.8132663e-06
0.89130435 	0.67862155 	-0.0071512594 	2.3856426e-06
0.90217391 	0.55728484 	-0.0084864547 	0.00047164944
0.91304348 	0.41772197 	-0.008064645 	9.2434596e-06
0.92391304 	0.27749144 	-0.0089469151 	2.8174341e-05
0.93478261 	0.13618836 	-0.0087025586 	9.2766824e-06
0.94565217 	-0.0086885296 	-0.008887 	1.4554074e-05
0.95652174 	-0.11957351 	-0.0087709634 	0.00025626183
0.9673913 	-0.2216587 	-0.0074991441 	5.3457841e-06
0.97826087 	-0.28348496 	-0.007979444 	0.00012891518
0.98913043 	-0.34861491 	-0.0067036468 	6.0392091e-05
