/*--------------------------------*- C++ -*----------------------------------*\
| =========                 |                                                 |
| \\      /  F ield         | OpenFOAM: The Open Source CFD Toolbox           |
|  \\    /   O peration     | Version:  2.4.0                                 |
|   \\  /    A nd           | Web:      www.OpenFOAM.org                      |
|    \\/     M anipulation  |                                                 |
\*---------------------------------------------------------------------------*/
FoamFile
{
    version     2.0;
    format      ascii;
    class       volSymmTensorField;
    location    "2000";
    object      R;
}
// * * * * * * * * * * * * * * * * * * * * * * * * * * * * * * * * * * * * * //

dimensions      [0 2 -2 0 0 0 0];

internalField   nonuniform List<symmTensor> 
15296
(
(0.0063262078 1.5426303e-05 7.8503395e-16 0.0063082407 -6.8512295e-14 0.0063064406)
(0.0063314237 2.0930084e-05 -1.8781951e-17 0.0063371004 -7.4215072e-14 0.0063376399)
(0.0062708562 2.0813054e-05 -5.3704972e-17 0.0062459492 -9.0380692e-14 0.0062419778)
(0.0069786206 1.4823655e-05 -9.5121251e-18 0.0069810209 -2.6172e-14 0.0069808626)
(0.015809439 1.276332e-05 -5.6648901e-18 0.015811898 -2.6191767e-14 0.015811509)
(0.032254797 1.5622993e-05 2.6734421e-14 0.032245008 -4.2980008e-14 0.032242652)
(0.060261309 1.694412e-05 2.3790134e-17 0.060209345 -7.1387551e-14 0.060200644)
(0.11076197 2.4623311e-05 -5.4388754e-19 0.11059986 -1.0828976e-13 0.11057471)
(0.16541856 3.0519658e-05 5.2811689e-18 0.16515399 -1.3699856e-13 0.16511353)
(0.18590173 3.0335589e-05 1.6393621e-17 0.18561976 -1.4882913e-13 0.18557664)
(0.188454 2.9073062e-05 -8.7924823e-18 0.18818448 -1.5440123e-13 0.18814315)
(0.18486524 2.822512e-05 -2.0381218e-17 0.18461028 -1.5404499e-13 0.18457102)
(0.17899439 2.7899785e-05 9.5330519e-14 0.17875116 -1.517739e-13 0.1787135)
(0.17234851 2.7864728e-05 4.8223907e-14 0.17211567 -1.524096e-13 0.17207939)
(0.16540451 2.7924175e-05 -4.860385e-14 0.16518195 -1.5708398e-13 0.165147)
(0.15950631 2.7995413e-05 -2.5565963e-17 0.15929284 -1.5349219e-13 0.15925901)
(0.15084027 2.8403304e-05 -1.3094595e-17 0.15062645 -1.5389649e-13 0.15059237)
(0.14942805 2.8974842e-05 -3.4327783e-19 0.1492047 -1.5081901e-13 0.14916911)
(0.14313778 3.0982529e-05 1.3623581e-17 0.14286851 -1.5143803e-13 0.14282625)
(0.15190559 3.4570362e-05 9.6171812e-14 0.15155194 -1.4760113e-13 0.15149784)
(0.15339666 4.3635155e-05 4.8254553e-14 0.15285838 -1.4847243e-13 0.15277821)
(0.14092582 4.6107805e-05 3.1315032e-17 0.14032935 -1.2353577e-13 0.14024398)
(0.12185632 5.225298e-05 3.3049431e-14 0.12118025 -1.0294366e-13 0.12108507)
(0.10451668 0.00010345507 3.6823147e-17 0.10380828 -8.9908787e-14 0.10369977)
(0.080648743 0.00013941764 -2.7453606e-14 0.080086257 -9.090201e-14 0.079983209)
(0.048472551 5.1761819e-05 2.9737051e-17 0.048092629 -6.1056552e-14 0.048032925)
(0.024509525 9.3241308e-06 -4.2607994e-15 0.024409076 -1.6787074e-14 0.024412692)
(0.0088328219 1.8172745e-06 -4.0252997e-18 0.008812098 -4.4277077e-15 0.0088188111)
(0.0048141556 1.7939399e-06 -1.3551954e-17 0.0047920776 -2.7895628e-15 0.0047988289)
(1.0064584e-06 3.0063927e-10 4.3448748e-22 9.9944431e-07 5.4317889e-20 1.0124747e-06)
(6.6920258e-16 2.9539214e-19 9.4068272e-31 6.6179597e-16 -1.7541752e-28 6.7609869e-16)
(6.7101961e-16 4.8102133e-19 -5.8278653e-30 6.5936179e-16 -1.6329945e-28 6.8208389e-16)
(2.5838046e-15 3.3282161e-18 2.7862878e-28 2.5038005e-15 6.5523529e-27 2.6616878e-15)
(4.5310906e-15 1.5455875e-17 2.8268023e-29 4.1851703e-15 1.0963444e-26 4.8725183e-15)
(5.3018891e-15 4.162236e-17 -2.8697064e-27 4.2221139e-15 1.4713121e-26 6.3881054e-15)
(2.8870662e-15 4.4017805e-17 -6.2562201e-28 2.1785957e-15 1.3808245e-26 3.5526455e-15)
(8.0370417e-15 -1.1018859e-16 -1.0511658e-27 -4.4836603e-15 4.4212871e-25 1.9479965e-14)
(6.0055803e-15 -1.1807674e-16 -2.2762406e-29 4.0160023e-15 1.1726816e-25 8.7547519e-15)
(0.0063310167 3.7582917e-05 1.115064e-15 0.0063052244 -3.1285166e-14 0.0063067435)
(0.0063304309 4.8368683e-05 2.0497581e-17 0.006336518 -3.459716e-14 0.0063366102)
(0.0062767115 4.8374208e-05 -7.0669202e-17 0.0062487161 -4.1593146e-14 0.0062482787)
(0.0069341788 3.4701358e-05 -1.2408954e-18 0.0069365111 -1.3097039e-14 0.0069365378)
(0.015512385 2.9735201e-05 1.6693217e-18 0.015515259 -1.3344029e-14 0.015515017)
(0.031818593 3.6155676e-05 2.8825914e-18 0.031808668 -1.9600066e-14 0.031807894)
(0.059834723 3.7767779e-05 3.8354805e-17 0.059779559 -3.2678637e-14 0.05977748)
(0.11129252 5.1424441e-05 -2.1466061e-14 0.11111779 -5.1064621e-14 0.11111237)
(0.16705565 6.0231555e-05 1.9415939e-17 0.16676948 -6.2538181e-14 0.16676086)
(0.18784908 5.7718359e-05 1.4367187e-17 0.18754377 -6.9058266e-14 0.18753461)
(0.19049721 5.3968155e-05 -3.0893991e-14 0.19020512 -7.1539576e-14 0.19019636)
(0.18697559 5.1404568e-05 -2.6424324e-18 0.18669909 -7.0784586e-14 0.18669079)
(0.18116585 5.003588e-05 3.6367264e-18 0.18090187 -7.0200087e-14 0.18089393)
(0.174565 4.9389505e-05 2.3953619e-17 0.17431212 -7.0488546e-14 0.17430447)
(0.16764303 4.9086875e-05 -1.6317186e-14 0.16740113 -7.3024771e-14 0.16739376)
(0.16174696 4.8851643e-05 -5.3897654e-17 0.1615148 -7.1130421e-14 0.16150765)
(0.15307978 4.8765485e-05 -4.3622078e-17 0.15284724 -7.1456184e-14 0.15284002)
(0.15158288 4.8283523e-05 1.630597e-14 0.15133983 -6.8629816e-14 0.15133228)
(0.14529811 4.7679421e-05 3.2785727e-14 0.14500545 -6.8998508e-14 0.14499648)
(0.15381686 4.6590575e-05 -1.6093857e-14 0.15343224 -6.9285904e-14 0.15342076)
(0.15536511 4.6647807e-05 1.1459304e-16 0.15477791 -6.9310145e-14 0.15476103)
(0.14306902 4.4215906e-05 9.4678775e-17 0.14241357 -5.7793687e-14 0.14239589)
(0.12427653 4.5934904e-05 1.2858871e-16 0.12353018 -4.8799514e-14 0.12351158)
(0.10710182 0.00015733089 1.1169334e-16 0.10631516 -4.1761965e-14 0.10629393)
(0.083321126 0.00026322463 6.2083006e-17 0.082704277 -4.161547e-14 0.082681019)
(0.050277765 8.0241019e-05 7.0333278e-18 0.049860922 -2.7719898e-14 0.049848)
(0.025342774 1.1041604e-05 4.737361e-17 0.025230216 -7.105641e-15 0.025231686)
(0.0091744447 2.2200878e-06 -8.015908e-16 0.0091523718 -2.7538572e-15 0.009153789)
(0.0050044772 1.4636232e-06 -1.7671341e-19 0.0049814583 -1.3899007e-15 0.0049831926)
(2.8997172e-06 3.7484535e-10 5.1237491e-21 2.8822914e-06 1.1423126e-19 2.8886669e-06)
(6.6923226e-16 7.0918496e-20 1.3057479e-30 6.6326318e-16 -7.7555791e-29 6.6543037e-16)
(6.712247e-16 6.3708441e-20 -2.7914868e-30 6.6243383e-16 -3.2145385e-29 6.6566032e-16)
(2.0513013e-15 7.8584888e-20 5.927922e-29 2.0045309e-15 1.5125633e-27 2.0220971e-15)
(3.8589735e-15 1.0271366e-18 7.6186132e-30 3.6242914e-15 3.6890376e-27 3.7138066e-15)
(3.9319141e-15 -9.2124982e-18 4.7354241e-29 3.296397e-15 5.098734e-27 3.5437398e-15)
(2.1584754e-15 3.1201264e-18 3.4654275e-30 2.0542308e-15 4.4318407e-28 2.0935722e-15)
(2.3274062e-15 -9.8069806e-18 -2.577986e-29 2.2276806e-15 7.7828208e-28 2.2636926e-15)
(6.5175865e-15 -6.4909642e-16 1.2460021e-28 2.2267012e-15 8.4464128e-26 6.1762388e-15)
(0.0063350078 6.3434648e-05 1.1048164e-15 0.0063041857 -2.4159319e-14 0.0063064325)
(0.006328354 7.8162591e-05 6.1784987e-17 0.0063346022 -2.6740195e-14 0.0063343918)
(0.0062887371 7.8944501e-05 -1.074313e-16 0.0062585767 -3.1754212e-14 0.0062591011)
(0.0068460512 5.7365829e-05 -1.2145673e-17 0.006847803 -1.020906e-14 0.0068479805)
(0.014881203 4.8001721e-05 2.5328232e-17 0.014884486 -1.0028511e-14 0.014884158)
(0.030895279 5.8575733e-05 -5.1297519e-15 0.030886702 -1.6105761e-14 0.030885903)
(0.058964553 6.1276784e-05 8.376393e-15 0.058911503 -2.4549424e-14 0.058910119)
(0.11203444 8.3681433e-05 1.2886765e-14 0.11186132 -3.8631666e-14 0.11185849)
(0.17034003 9.80697e-05 5.0134913e-17 0.17005401 -4.9421042e-14 0.17004953)
(0.19180591 9.4018415e-05 -9.9340047e-18 0.1915002 -5.4203609e-14 0.19149545)
(0.1946538 8.794326e-05 -3.5038588e-17 0.1943608 -5.5828653e-14 0.19435632)
(0.19127358 8.379585e-05 2.5631109e-17 0.19099577 -5.537497e-14 0.19099159)
(0.18559723 8.1605783e-05 1.6072304e-17 0.18533161 -5.5068318e-14 0.18532765)
(0.17909943 8.0611681e-05 1.300273e-17 0.17884458 -5.5302587e-14 0.17884079)
(0.17223687 8.0208162e-05 -2.1760394e-17 0.17199271 -5.696683e-14 0.17198909)
(0.1663494 7.9955296e-05 -7.054033e-17 0.16611475 -5.5393887e-14 0.16611126)
(0.15770615 8.0012934e-05 -4.983268e-17 0.157471 -5.5788018e-14 0.1574675)
(0.15603708 7.9531558e-05 -8.3384493e-18 0.15579089 -5.3671085e-14 0.15578721)
(0.1498016 7.8989077e-05 5.4829707e-17 0.14950564 -5.3933571e-14 0.14950121)
(0.15782839 7.7972778e-05 -1.9718105e-14 0.15743873 -5.5659988e-14 0.15743294)
(0.15942243 7.9154865e-05 1.6665523e-16 0.15882439 -5.5587076e-14 0.15881581)
(0.1474047 7.6531918e-05 -1.6388569e-14 0.14672778 -4.7580853e-14 0.14671857)
(0.12915214 7.9680142e-05 1.4282294e-14 0.12837391 -3.966146e-14 0.12836614)
(0.11228234 0.0002622261 1.8370377e-16 0.11145219 -3.4673414e-14 0.11144471)
(0.088669369 0.00044099552 5.9097127e-15 0.088033407 -3.2828249e-14 0.088021428)
(0.053827454 0.00014208763 -3.9627694e-15 0.053404421 -2.3725437e-14 0.053396217)
(0.026828088 2.1428649e-05 1.0126986e-15 0.026708454 -5.0817484e-15 0.026707647)
(0.009749776 4.4323546e-06 2.725502e-18 0.0097276697 -2.1556912e-15 0.0097275638)
(0.0052738726 3.1161462e-06 4.3064188e-16 0.0052528578 -5.7770176e-16 0.005253102)
(4.728554e-06 1.5158739e-09 -2.0360076e-19 4.7095103e-06 -9.5386698e-19 4.7101354e-06)
(6.6912702e-16 1.7226432e-19 1.6622947e-30 6.6550387e-16 -8.7194778e-29 6.6555905e-16)
(6.7085725e-16 1.4112984e-19 -2.5061456e-29 6.6583417e-16 -2.0802444e-28 6.6592528e-16)
(1.5427598e-15 1.9611972e-19 2.046418e-29 1.5237501e-15 2.568407e-28 1.5241483e-15)
(3.950559e-15 1.4794346e-18 7.401742e-30 3.8391569e-15 1.0575976e-27 3.8416407e-15)
(4.7661546e-15 -1.2302708e-17 -2.0460889e-28 4.3057993e-15 -3.61104e-28 4.3179415e-15)
(4.0624576e-15 2.0844625e-17 3.1018526e-29 3.7061791e-15 -3.7923056e-28 3.7138097e-15)
(4.1603553e-15 -5.5238336e-17 -3.6230054e-29 3.7653685e-15 -6.6592552e-28 3.77295e-15)
(7.1608395e-15 -1.0371198e-15 -2.8034263e-29 2.6696068e-15 4.6870728e-26 5.429262e-15)
(0.0063377926 9.0507191e-05 1.049419e-15 0.0063040156 -1.7776064e-14 0.0063063848)
(0.0063254849 0.00010818545 1.0509825e-16 0.0063323112 -1.9847281e-14 0.0063316023)
(0.0063014981 0.00011003524 -1.2642853e-16 0.0062679745 -2.3271872e-14 0.0062694952)
(0.0067337156 8.1017578e-05 -2.0436818e-17 0.0067346386 -7.4122073e-15 0.0067349398)
(0.013997507 6.5903682e-05 -2.0884833e-15 0.014001464 -7.6171711e-15 0.01400089)
(0.029550298 8.0811202e-05 6.7400967e-17 0.029543568 -1.1594439e-14 0.029542443)
(0.05764589 8.4735478e-05 6.9242725e-17 0.057595046 -1.7993007e-14 0.0575939)
(0.11285049 0.00011618563 1.9178312e-18 0.11267677 -2.866746e-14 0.11267579)
(0.1746137 0.00013618005 5.4957984e-17 0.17432296 -3.8047574e-14 0.17432156)
(0.19706342 0.00013057322 -1.8719507e-17 0.19675178 -4.1213421e-14 0.19675035)
(0.20021994 0.00012215885 -3.9616818e-17 0.19992049 -4.2390139e-14 0.19991925)
(0.19705146 0.0001164046 5.7115234e-17 0.19676694 -4.2098481e-14 0.19676588)
(0.19157478 0.00011337303 3.4501399e-17 0.19130218 -4.2030232e-14 0.19130125)
(0.18523745 0.00011201604 -7.1344966e-15 0.18497537 -4.2810952e-14 0.18497453)
(0.17847929 0.00011149517 -2.7098758e-17 0.17822771 -4.3095493e-14 0.17822694)
(0.17262111 0.00011119954 -1.4628574e-14 0.1723789 -4.2764764e-14 0.17237816)
(0.16404724 0.00011134977 -6.4702367e-17 0.16380434 -4.2508711e-14 0.16380362)
(0.16214687 0.00011078894 -7.3169368e-15 0.16189193 -4.1815426e-14 0.16189117)
(0.1560057 0.00011012282 4.7260388e-17 0.1556996 -4.1503364e-14 0.15569867)
(0.16336797 0.0001088329 1.7414648e-16 0.16296388 -4.3308768e-14 0.16296265)
(0.16499558 0.00011058266 1.507093e-14 0.16437114 -4.2760746e-14 0.16436957)
(0.15330447 0.00010747167 1.8898475e-16 0.15258426 -3.7703248e-14 0.15258287)
(0.13576812 0.00011134164 2.7965318e-16 0.13492846 -3.1499597e-14 0.13493187)
(0.11929737 0.00036706952 4.7583599e-15 0.11838809 -2.7603884e-14 0.11839425)
(0.09595923 0.00062016256 2.0388961e-16 0.095284138 -2.5839949e-14 0.095279283)
(0.058686785 0.00020168368 5.9466225e-15 0.058251701 -1.8516518e-14 0.058245731)
(0.028804746 3.1770777e-05 1.6049274e-15 0.028671331 -3.3244552e-15 0.028670715)
(0.010464117 6.6701926e-06 1.3222425e-17 0.01043961 -1.4608513e-15 0.010439433)
(0.005601513 4.7027041e-06 -1.222015e-16 0.0055805157 -7.6116143e-16 0.0055806193)
(6.5612034e-06 3.3257337e-09 -9.0005346e-20 6.5344531e-06 -2.5173729e-18 6.5351413e-06)
(6.6895544e-16 2.5735823e-19 7.8514909e-31 6.6548466e-16 -1.4033183e-28 6.6558715e-16)
(6.7011807e-16 2.0136322e-19 2.9345792e-32 6.6555128e-16 -2.0008601e-28 6.6569702e-16)
(1.0527801e-15 2.1271946e-19 -2.5120691e-30 1.0413367e-15 -1.0410363e-28 1.0417071e-15)
(3.9348315e-15 1.7619079e-18 5.9612584e-29 3.8376503e-15 8.0190945e-28 3.8407042e-15)
(5.5672397e-15 -2.0681202e-17 5.3942718e-29 4.8087099e-15 -1.9371318e-27 4.8345744e-15)
(7.9444396e-15 2.4771185e-16 3.4660732e-28 3.6440671e-15 -2.1317459e-27 3.7565739e-15)
(6.5760742e-15 -2.7323685e-16 2.8345654e-29 4.4454395e-15 -5.8850896e-27 4.4859845e-15)
(1.9444716e-14 -7.1293318e-15 -1.1758917e-27 -1.0988931e-14 6.3181461e-26 5.3473571e-15)
(0.006340494 0.00011827371 9.905603e-16 0.0063046382 -1.3231016e-14 0.0063066295)
(0.0063220821 0.00013823491 -4.6491212e-15 0.0063294912 -1.6192788e-14 0.0063283679)
(0.0063117919 0.00014131502 -1.2560085e-16 0.0062749024 -1.88798e-14 0.0062771151)
(0.0066049238 0.00010578086 -4.4877413e-17 0.006604496 -6.0643118e-15 0.0066050715)
(0.012893724 8.3210177e-05 3.2874206e-17 0.012898422 -6.2084753e-15 0.012897573)
(0.027785263 0.00010240595 -2.5495984e-15 0.027781025 -9.0580254e-15 0.027779292)
(0.055811363 0.00010780076 8.0976271e-17 0.055764249 -1.4180609e-14 0.055762566)
(0.11358877 0.00014878901 -5.3117655e-18 0.11341689 -2.3245902e-14 0.11341577)
(0.17932532 0.0001744451 9.5453348e-15 0.17903292 -3.0462506e-14 0.17903146)
(0.20308946 0.00016735537 -2.4336663e-17 0.20277454 -3.3335133e-14 0.20277313)
(0.20669944 0.00015663322 -4.162321e-17 0.20639578 -3.4306576e-14 0.20639465)
(0.20382788 0.00014929093 8.9003913e-17 0.20353855 -3.3999429e-14 0.20353767)
(0.19862659 0.00014543254 -1.1130857e-14 0.1983487 -3.4733797e-14 0.19834799)
(0.19251904 0.00014372133 5.6899233e-15 0.19225124 -3.4438089e-14 0.19225064)
(0.18592661 0.0001430969 -1.1550147e-14 0.18566895 -3.5347305e-14 0.18566843)
(0.18013739 0.00014277134 -1.088709e-16 0.1798888 -3.5138366e-14 0.17988832)
(0.17171143 0.00014300388 -7.7922716e-17 0.17146191 -3.4496669e-14 0.17146146)
(0.16953894 0.00014239709 -9.1783561e-18 0.16927626 -3.4376982e-14 0.16927578)
(0.16354496 0.00014158717 5.9229246e-15 0.16322992 -3.3499975e-14 0.16322929)
(0.17009858 0.00014005317 1.7868861e-14 0.16968147 -3.4219257e-14 0.1696806)
(0.1717584 0.00014241275 -1.1759762e-14 0.17110908 -3.5638083e-14 0.17110816)
(0.16042145 0.00013889768 2.3997182e-16 0.15965567 -3.1719399e-14 0.15965514)
(0.14372847 0.00014328473 3.7575957e-16 0.14281934 -2.7270426e-14 0.14282694)
(0.12773069 0.00047469481 3.8220474e-16 0.12672796 -2.3775612e-14 0.12674069)
(0.10480193 0.00080359289 3.8853141e-15 0.1040835 -2.1631289e-14 0.10407774)
(0.064677284 0.00026037685 1.3750044e-16 0.064235069 -1.5077389e-14 0.064226923)
(0.031200079 4.2423367e-05 4.879162e-17 0.031052163 -2.7647513e-15 0.031050983)
(0.011252666 9.1107601e-06 9.3808905e-18 0.011225045 -1.0471603e-15 0.011224602)
(0.0059098114 6.5386988e-06 3.1759951e-18 0.0058880747 -7.9685037e-16 0.0058880559)
(8.3395849e-06 5.8406382e-09 1.7711488e-20 8.3063729e-06 -2.0990174e-18 8.3061649e-06)
(6.6879182e-16 3.3355884e-19 -5.3862824e-30 6.6567922e-16 -1.5657555e-28 6.6564724e-16)
(6.6933642e-16 2.5102229e-19 2.5250102e-31 6.6541303e-16 -1.4140288e-28 6.6537986e-16)
(6.708178e-16 1.7606468e-19 4.945568e-31 6.6472285e-16 -9.3489011e-29 6.6467805e-16)
(3.3322783e-15 1.6724937e-18 -3.4273613e-29 3.2610754e-15 -2.1858998e-29 3.2604737e-15)
(5.7535256e-15 -5.2869762e-17 7.9491004e-29 3.907567e-15 -2.7432948e-27 3.8984011e-15)
(1.6104547e-14 9.8811929e-16 -1.7516264e-27 -1.3411005e-15 -3.4770274e-26 -1.5569516e-15)
(1.7638499e-14 -2.5350038e-15 1.004292e-28 -1.0497229e-15 -5.2500979e-26 -1.4260442e-15)
(7.510871e-15 -1.0885188e-15 1.8586091e-29 1.5530308e-15 -4.9793913e-27 4.7089244e-15)
(0.0063438021 0.00015501866 -3.6563496e-15 0.0063059383 -1.0323884e-14 0.0063073787)
(0.006317525 0.00017695074 -4.6450778e-15 0.0063257134 -1.3501689e-14 0.0063240516)
(0.0063201815 0.00018185199 2.7047526e-15 0.0062799398 -1.4316504e-14 0.0062823806)
(0.0064426291 0.00014043769 -8.080195e-17 0.0064391244 -5.2444742e-15 0.0064405204)
(0.011325433 0.00010442801 8.1779618e-16 0.011330856 -3.9485138e-15 0.011329807)
(0.025069828 0.00012904446 1.4617067e-16 0.02506929 -6.7868914e-15 0.025066533)
(0.052761261 0.00013693489 -2.0083699e-15 0.052720324 -1.1652915e-14 0.05271739)
(0.11407805 0.00019105011 -4.4718809e-18 0.11390993 -1.8662745e-14 0.11390785)
(0.18500053 0.00022388469 9.2073593e-17 0.18470736 -2.4427882e-14 0.18470484)
(0.21070152 0.00021485974 -3.8088749e-17 0.21038293 -2.7009663e-14 0.21038059)
(0.21511235 0.00020122364 1.6571814e-14 0.21480334 -2.6628465e-14 0.21480147)
(0.21273999 0.00019185602 1.2036239e-16 0.21244434 -2.7376759e-14 0.21244288)
(0.20798684 0.00018694954 6.7559321e-17 0.20770186 -2.8199907e-14 0.20770069)
(0.20226305 0.00018481027 -1.1835805e-14 0.20198754 -2.8335418e-14 0.20198655)
(0.1959683 0.00018407917 -5.2694497e-17 0.19570243 -2.8719447e-14 0.19570157)
(0.19033274 0.00018376578 -1.2370644e-16 0.19007549 -2.8351567e-14 0.19007468)
(0.18228149 0.0001842124 -9.4682183e-17 0.18202283 -2.8088294e-14 0.18202207)
(0.17971352 0.0001836646 6.1879642e-15 0.17944022 -2.7405252e-14 0.17943941)
(0.17409054 0.00018287623 7.2764699e-17 0.17376286 -2.7372111e-14 0.17376179)
(0.17937386 0.00018125854 1.2763321e-14 0.17893883 -2.6681602e-14 0.17893735)
(0.18109151 0.00018489928 -1.2554838e-14 0.180408 -3.0739677e-14 0.18040628)
(0.17021994 0.0001816121 3.1665375e-16 0.16938919 -2.7364697e-14 0.16938801)
(0.15466018 0.00018674564 5.1278919e-16 0.15364668 -2.4150976e-14 0.15365922)
(0.13930863 0.000619836 -7.9351754e-15 0.13816117 -2.2045375e-14 0.13818307)
(0.11706341 0.0010489799 4.1741061e-16 0.11627935 -1.8822338e-14 0.11626967)
(0.073219134 0.00033758591 2.7620602e-15 0.07277117 -1.2065177e-14 0.072758681)
(0.034599007 5.7951274e-05 -1.4712584e-15 0.03443446 -3.5296025e-15 0.034432355)
(0.012290454 1.312145e-05 -2.0770475e-16 0.012258175 -1.3829208e-15 0.012257282)
(0.0061642143 9.8166723e-06 -4.0980064e-18 0.0061405401 -7.1977422e-16 0.0061406879)
(1.1684085e-05 1.1955453e-08 -8.3127327e-22 1.1636296e-05 -9.7805887e-19 1.1636876e-05)
(6.6868452e-16 4.6418368e-19 3.8126839e-31 6.6570725e-16 -8.127964e-29 6.6571923e-16)
(6.6906631e-16 3.3310839e-19 6.6658282e-31 6.6553289e-16 -7.0746959e-29 6.6553178e-16)
(6.7263338e-16 2.3401599e-19 -3.4499315e-30 6.6759493e-16 -6.2887864e-29 6.6758143e-16)
(1.9913512e-15 1.0260309e-18 -1.4091587e-29 1.9595034e-15 -3.415299e-28 1.9593194e-15)
(3.7380694e-15 -2.6297438e-17 -3.1718866e-28 2.6292916e-15 -6.5730178e-27 2.6266354e-15)
(4.6050871e-15 1.2197498e-16 4.4465421e-29 2.2422291e-15 -7.2048712e-27 2.2082058e-15)
(5.4641173e-15 -3.3934799e-16 -1.3928343e-29 2.6699667e-15 -5.3782066e-27 2.6035152e-15)
(5.347733e-15 -6.781466e-16 8.158229e-29 1.5477288e-15 -1.8589266e-27 3.5034293e-15)
(0.0063493763 0.00020360333 7.8631968e-16 0.0063080083 -7.6825472e-15 0.006309009)
(0.0063133592 0.00022615412 3.4827972e-15 0.0063229609 -1.0122046e-14 0.0063201701)
(0.0063251395 0.00023291148 3.6843015e-15 0.0062832047 -1.0197199e-14 0.0062846483)
(0.0063344069 0.00019170582 -1.1278178e-16 0.0063239225 -4.6274933e-15 0.0063269041)
(0.0096809299 0.00013225723 1.974639e-17 0.0096865075 -2.6283374e-15 0.0096855147)
(0.021547115 0.00015998008 1.4048617e-16 0.02155146 -4.833445e-15 0.021547447)
(0.048153987 0.00017154417 1.3376255e-16 0.048122531 -9.1595112e-15 0.048117744)
(0.11297592 0.00024450912 3.3947963e-17 0.11281517 -1.4907172e-14 0.11281178)
(0.18877255 0.00028628536 -3.2352558e-15 0.18848196 -2.0417611e-14 0.18847842)
(0.21706214 0.00027514714 -1.8056052e-17 0.21674134 -2.1970004e-14 0.21673828)
(0.22274817 0.00025796418 7.7717689e-15 0.2224342 -1.9925458e-14 0.22243192)
(0.22112867 0.00024611178 1.4017215e-16 0.22082643 -2.2088009e-14 0.2208248)
(0.21700304 0.00023991752 7.5501805e-17 0.21671032 -2.2836806e-14 0.21670913)
(0.21181989 0.00023724968 2.6166225e-17 0.21153575 -2.358737e-14 0.21153483)
(0.20596744 0.0002364052 -4.7932882e-17 0.20569226 -2.325227e-14 0.20569152)
(0.20059822 0.00023612464 -1.5243214e-16 0.2003311 -2.3146495e-14 0.20033044)
(0.19306837 0.00023681289 -1.0454449e-16 0.19279933 -2.3164344e-14 0.19279874)
(0.19014096 0.00023638494 2.3340303e-18 0.18985566 -2.2157768e-14 0.18985508)
(0.18501321 0.00023564831 1.0481003e-16 0.18467111 -2.2652126e-14 0.18467029)
(0.18895017 0.00023390114 3.189327e-16 0.18849531 -2.2085738e-14 0.18849413)
(0.19077111 0.00023906274 3.893867e-16 0.19004988 -2.6280807e-14 0.19004892)
(0.18044489 0.00023630097 4.2822214e-16 0.1795403 -2.3648327e-14 0.17954058)
(0.16605596 0.00024218005 6.7651627e-16 0.16491035 -2.1428782e-14 0.16493376)
(0.15138018 0.00081092205 -2.4596505e-15 0.15003925 -2.078815e-14 0.15008)
(0.13002199 0.0013730544 6.5562341e-16 0.12915392 -1.6866826e-14 0.12914207)
(0.08272031 0.00043333796 2.9062882e-16 0.082276627 -1.0194576e-14 0.082257853)
(0.038391604 7.7518823e-05 7.1255054e-17 0.038217383 -3.6027403e-15 0.038214462)
(0.013415067 1.9133936e-05 1.3590969e-17 0.013377707 -1.5857101e-15 0.01337692)
(0.0061951198 1.5703038e-05 2.1316871e-18 0.0061701301 -6.9373167e-16 0.0061685064)
(1.4550563e-05 2.1887299e-08 -1.1671535e-21 1.4492629e-05 -5.1788092e-19 1.4490646e-05)
(6.6854877e-16 6.3106899e-19 1.8743311e-31 6.6578418e-16 -2.2683595e-29 6.6576142e-16)
(6.6866895e-16 3.99295e-19 3.1583627e-31 6.656915e-16 -2.2459921e-29 6.6570265e-16)
(6.6897617e-16 2.3197922e-19 1.8995577e-31 6.6554206e-16 -2.9661264e-29 6.6556577e-16)
(6.6996224e-16 1.9746478e-19 1.274188e-31 6.650706e-16 -2.8503562e-29 6.6509591e-16)
(1.1596825e-15 -4.902661e-19 2.1012639e-30 1.1306496e-15 -1.1393643e-28 1.1309476e-15)
(3.2846224e-15 6.5263314e-17 -1.1185574e-28 1.6062154e-15 -5.2854243e-27 1.6046289e-15)
(4.1163434e-15 -1.9725648e-16 1.2468729e-29 2.0035511e-15 -2.9827736e-27 1.9694394e-15)
(5.120801e-15 -9.4278708e-16 3.7075784e-29 5.9537069e-16 -1.7574284e-27 2.8007912e-15)
(0.0063555957 0.00026095371 -1.553596e-15 0.0063117027 -5.7106772e-15 0.0063115611)
(0.0063107996 0.00028165067 2.353251e-16 0.0063224803 -7.6958481e-15 0.0063179937)
(0.0063278737 0.00029085894 -2.5230675e-15 0.0062875011 -8.3801553e-15 0.0062862567)
(0.0062923649 0.00025519047 -1.6172277e-16 0.0062698695 -4.2978407e-15 0.0062750886)
(0.0083545338 0.00016775553 8.4633446e-16 0.0083587756 -1.891126e-15 0.0083583753)
(0.017794782 0.00019028624 1.3250879e-16 0.017804172 -3.2721999e-15 0.017798891)
(0.042266076 0.00020607093 -1.5857041e-15 0.042246856 -7.2207165e-15 0.042239561)
(0.10956616 0.00030424757 6.0533955e-17 0.10941772 -1.2206862e-14 0.10941207)
(0.18916778 0.00035607711 1.7218172e-16 0.18888501 -1.711964e-14 0.18887961)
(0.22067527 0.00034275254 -5.2639588e-15 0.22035609 -1.8743167e-14 0.22035176)
(0.22810773 0.00032182236 -1.3783536e-17 0.22779144 -1.6605545e-14 0.22778839)
(0.22748783 0.00030730586 1.273802e-16 0.22718087 -1.8331525e-14 0.22717883)
(0.22414088 0.00029974089 -2.9077297e-15 0.2238418 -1.9593741e-14 0.22384043)
(0.21962625 0.00029653104 4.1461795e-17 0.21933454 -1.9581844e-14 0.21933357)
(0.21433995 0.00029559431 -3.1864601e-15 0.21405624 -1.987514e-14 0.21405554)
(0.20935075 0.00029538008 -1.8862138e-16 0.20907437 -1.9560769e-14 0.20907379)
(0.20244449 0.00029636994 3.1447208e-15 0.20216547 -1.9167691e-14 0.202165)
(0.19929297 0.00029607826 1.2921713e-17 0.19899613 -1.8726694e-14 0.19899572)
(0.19466186 0.00029534414 1.3155536e-16 0.19430581 -1.9263583e-14 0.19430519)
(0.19748543 0.00029324038 3.6463175e-16 0.19701212 -1.914299e-14 0.19701116)
(0.19948377 0.00029980194 -3.050521e-15 0.1987276 -2.3022229e-14 0.19872733)
(0.18984503 0.00029763323 -2.7138642e-15 0.18886852 -2.1712873e-14 0.1888703)
(0.17659527 0.00030379703 8.4995539e-16 0.17530028 -1.9791201e-14 0.17533885)
(0.16263976 0.0010365668 3.7286033e-15 0.1610648 -1.9110657e-14 0.16113321)
(0.14223465 0.0017514099 9.5271491e-16 0.14127336 -1.5320861e-14 0.14125995)
(0.092143199 0.00053020962 1.6745599e-15 0.091723038 -8.5609324e-15 0.091695823)
(0.042266224 9.7301662e-05 6.5994691e-17 0.042093524 -2.9365385e-15 0.042089742)
(0.014487498 2.7120242e-05 1.9232897e-17 0.014446524 -1.0991042e-15 0.014445926)
(0.0060860479 2.8029198e-05 -7.3499592e-17 0.006048949 -8.0436527e-16 0.0060546561)
(1.7295268e-05 3.9064021e-08 4.4228736e-21 1.7215562e-05 -1.0025493e-18 1.7219955e-05)
(6.6848011e-16 7.8100264e-19 -4.7911808e-32 6.6577815e-16 -3.4282448e-29 6.6581313e-16)
(6.6837961e-16 4.0578044e-19 2.8700652e-34 6.6582816e-16 -1.6419095e-29 6.6584432e-16)
(6.6823306e-16 1.7670011e-19 2.1117904e-31 6.6590456e-16 -1.2087181e-29 6.6591837e-16)
(6.6811471e-16 8.450288e-20 -1.0084706e-30 6.6596693e-16 -8.5080256e-30 6.6597338e-16)
(6.6853538e-16 -4.3335592e-20 2.8072505e-33 6.6576901e-16 -6.3363229e-30 6.6579185e-16)
(9.3974518e-16 1.0673964e-18 9.1740654e-31 8.9116221e-16 -1.3987359e-28 8.9105249e-16)
(3.2490513e-15 -1.2633546e-16 1.5768612e-29 1.5441506e-15 -2.5206463e-27 1.4998027e-15)
(7.8225688e-15 -2.7143656e-15 1.570697e-28 -4.0598868e-15 -6.8488132e-27 1.3642696e-15)
(0.0063624908 0.00032811456 -1.0505826e-15 0.0063184836 -4.5065265e-15 0.0063153154)
(0.0063103445 0.00034441719 2.5213362e-16 0.0063249643 -6.3880811e-15 0.0063180832)
(0.0063288351 0.00035532176 1.1217128e-16 0.0062937938 -6.9342052e-15 0.0062881691)
(0.0062890646 0.00032815286 -1.523578e-16 0.006251633 -4.2054556e-15 0.0062585258)
(0.0074281377 0.00021716861 7.005291e-16 0.0074279188 -1.3648845e-15 0.0074291876)
(0.014145953 0.00021942647 -5.7201178e-16 0.014159809 -2.4522772e-15 0.014153459)
(0.03509508 0.00023668079 1.3412457e-16 0.035090096 -5.3502506e-15 0.035079995)
(0.10321835 0.00037004126 -2.1719136e-15 0.10308893 -1.0498215e-14 0.10307975)
(0.18562126 0.00043346258 2.1543399e-16 0.18535369 -1.3868658e-14 0.18534527)
(0.22104156 0.00041816204 1.3279283e-16 0.22072948 -1.5919274e-14 0.22072315)
(0.23082639 0.00039342864 4.1207181e-15 0.23051158 -1.4463788e-14 0.23050733)
(0.23153795 0.0003761381 1.2134523e-16 0.23122905 -1.5920236e-14 0.23122634)
(0.22916595 0.00036715124 9.8846196e-17 0.22886264 -1.6791803e-14 0.22886094)
(0.22547413 0.00036339292 6.3327042e-17 0.22517654 -1.6527555e-14 0.22517544)
(0.22089759 0.00036239003 -4.7981534e-17 0.22060674 -1.7162428e-14 0.22060603)
(0.21642183 0.00036228061 4.5485806e-15 0.2161373 -1.6493114e-14 0.21613678)
(0.21025122 0.00036359582 4.7385103e-15 0.2099632 -1.5810229e-14 0.20996285)
(0.20704271 0.0003634842 5.5296261e-18 0.20673526 -1.6095651e-14 0.20673504)
(0.20292802 0.00036271111 5.1345569e-15 0.20255904 -1.6460617e-14 0.2025586)
(0.20488674 0.00035999752 4.0370277e-16 0.20439692 -1.668933e-14 0.20439606)
(0.20715349 0.00036764711 4.9978092e-16 0.20636636 -2.0218105e-14 0.20636654)
(0.19842143 0.00036589305 5.7743591e-15 0.19737704 -1.9651507e-14 0.19738003)
(0.18634724 0.00037161617 1.0907691e-15 0.18488153 -1.8467117e-14 0.18494065)
(0.17322172 0.0013061001 1.5754176e-15 0.17135917 -1.7888352e-14 0.17146675)
(0.15386812 0.0021986883 1.3486334e-15 0.15280183 -1.3930865e-14 0.15278876)
(0.1016764 0.00062316836 4.2881144e-16 0.10130022 -7.275057e-15 0.10126422)
(0.046232997 0.00011530278 -5.0125474e-16 0.046070906 -2.891033e-15 0.046066581)
(0.015412937 3.996786e-05 -8.5697313e-17 0.015371029 -1.1835436e-15 0.015370291)
(0.0059272299 2.3975684e-05 -1.5974722e-16 0.0058812162 -5.578179e-16 0.0058805511)
(2.0059749e-05 2.3530113e-08 -2.0514563e-20 1.9894916e-05 -1.9315377e-18 1.9897708e-05)
(6.6896917e-16 2.2781557e-19 5.4373555e-30 6.6551332e-16 -2.3292665e-29 6.6554344e-16)
(6.6834042e-16 8.9139064e-20 -1.0169597e-30 6.6583318e-16 -9.6792383e-30 6.6585101e-16)
(6.6777826e-16 1.8575267e-20 3.6268949e-32 6.661195e-16 -3.1015022e-30 6.6613107e-16)
(6.6732915e-16 3.094937e-21 3.3889263e-32 6.6634313e-16 -3.5765391e-30 6.6634714e-16)
(6.6713367e-16 -2.1441726e-20 -1.0542923e-32 6.6643971e-16 -1.9824395e-30 6.6644695e-16)
(6.6716662e-16 -1.1754533e-21 4.8444136e-32 6.6642655e-16 -1.3255369e-30 6.6642863e-16)
(2.2003079e-15 -6.7415376e-17 5.584553e-30 1.1379078e-15 -1.1264055e-27 1.1065795e-15)
(2.7033249e-15 -3.9154613e-16 3.0360832e-29 1.0872762e-15 -8.1164076e-28 1.7883134e-15)
(0.0063685126 0.00040446656 4.2639522e-16 0.0063294008 -3.3806582e-15 0.0063210511)
(0.0063124062 0.00041596708 1.470363e-15 0.0063313288 -4.6288182e-15 0.0063210133)
(0.0063291924 0.00042680551 1.9516061e-16 0.0063027723 -5.4495666e-15 0.0062913171)
(0.0063032581 0.00040928791 -1.0108567e-16 0.0062545259 -4.223971e-15 0.0062600074)
(0.0068524754 0.00028868628 6.1759284e-16 0.0068416309 -1.1994958e-15 0.0068461842)
(0.011049678 0.00025042234 6.93606e-17 0.011066855 -1.7425292e-15 0.011059773)
(0.026899223 0.00025737203 -5.438524e-16 0.026908204 -3.9357975e-15 0.026895796)
(0.093381795 0.0004407424 1.6183906e-16 0.093279891 -8.8262066e-15 0.093265442)
(0.17743804 0.0005185698 2.9990724e-16 0.17719594 -1.1362741e-14 0.17718266)
(0.21749098 0.0005021735 2.0289024e-16 0.21719366 -1.3421047e-14 0.21718414)
(0.23039056 0.00047390325 5.8574029e-17 0.2300826 -1.2501708e-14 0.23007642)
(0.232879 0.00045389791 1.1806592e-16 0.2325721 -1.3887386e-14 0.23256826)
(0.23173883 0.00044354403 -3.1043446e-15 0.23143441 -1.462077e-14 0.23143204)
(0.22905647 0.00043930218 8.5272757e-17 0.2287556 -1.4254097e-14 0.22875409)
(0.22535515 0.0004383164 -3.9709377e-17 0.22505934 -1.4757082e-14 0.2250584)
(0.22154709 0.00043840733 -2.0050835e-16 0.22125629 -1.4167922e-14 0.22125565)