0.47777778 	0.052581844 	-0.014328688 	8.3798791e-08 	0.050911468 	-2.7040261e-07 	0.0042031471
0.48888889 	0.054264096 	-0.014573059 	1.5616335e-06 	0.052598736 	-6.0345295e-06 	0.017030129
0.5 	0.049855471 	-0.013473367 	3.1333702e-06 	0.048283301 	-1.1860421e-05 	0.015711837
0.51111111 	0.044769367 	-0.012233777 	6.6336174e-06 	0.043302497 	-2.5144725e-05 	0.014191006
0.52222222 	0.039601372 	-0.010801666 	-4.1823616e-08 	0.038277259 	2.4879372e-07 	0.0082055724
0.53333333 	0.034602008 	-0.0093661035 	1.3858221e-05 	0.033447227 	-4.5731774e-05 	0.010678783
0.54444444 	0.029958441 	-0.0079557875 	1.492022e-05 	0.028977542 	-4.6608305e-05 	0.0094603487
0.55555556 	0.025812922 	-0.0065825905 	9.340659e-06 	0.025016566 	-2.6643559e-05 	0.0082816591
0.56666667 	0.022285415 	-0.0052541113 	8.1216004e-06 	0.021681157 	-2.0479182e-05 	0.0071951412
0.57777778 	0.019447909 	-0.0040157569 	1.0602368e-05 	0.019027202 	-2.3220028e-05 	0.0062528878
0.58888889 	0.017302091 	-0.0029114796 	1.5377828e-05 	0.017039117 	-2.8668369e-05 	0.0054974939
0.6 	0.015788626 	-0.0019574299 	1.1800091e-05 	0.015648341 	-1.7332829e-05 	0.0049563889
0.61111111 	0.01481436 	-0.001126871 	1.7926284e-06 	0.014763525 	-1.7730093e-06 	0.0046423968
0.62222222 	0.014325016 	-0.0004075613 	-2.3709138e-07 	0.014323127 	2.1042518e-07 	0.0011216321
0.63333333 	0.014182705 	0.00020963992 	6.0966229e-06 	0.014217009 	-3.2042809e-06 	0.0045280511
0.64444444 	0.014249256 	0.00076190204 	6.5516067e-06 	0.014294673 	-8.0596142e-07 	0.0045626624
0.65555556 	0.014464725 	0.0012622076 	-1.4400902e-07 	0.0144985 	-5.3577228e-08 	0.00064141282
0.66666667 	0.0148009 	0.0016979129 	5.6583629e-06 	0.014828525 	1.2711429e-06 	0.0047015337
0.67777778 	0.015203044 	0.0021044746 	2.1016827e-06 	0.015208638 	1.1322126e-06 	0.0049141871
0.68888889 	0.015662875 	0.0024772178 	5.3899885e-07 	0.015640314 	2.9036795e-07 	0.00491501
0.7 	0.016175344 	0.0028222617 	4.9783289e-06 	0.016118951 	4.1779645e-06 	0.0051873219
0.71111111 	0.016716639 	0.003155025 	2.0222005e-08 	0.016618306 	-4.5492941e-08 	0.0029281063
0.72222222 	0.017292286 	0.0034655718 	5.7382072e-06 	0.017158984 	6.4755394e-06 	0.0055174709
0.73333333 	0.017889458 	0.0037696485 	5.461108e-08 	0.017707401 	-1.667733e-08 	0.0026498871
0.74444444 	0.018536047 	0.0040683966 	5.500842e-06 	0.018314722 	7.947817e-06 	0.0058988591
0.75555556 	0.019200768 	0.004361928 	8.8506332e-08 	0.018924626 	3.9181764e-08 	0.0025539326
0.76666667 	0.019940065 	0.004665435 	5.9134858e-06 	0.019619679 	1.0451141e-05 	0.006313421
0.77777778 	0.020703549 	0.004967212 	1.8947466e-07 	0.02031635 	1.7750645e-07 	0.00031682978
0.78888889 	0.021550695 	0.005286816 	4.6825449e-06 	0.021119303 	9.5660368e-06 	0.006751746
0.8 	0.022440146 	0.0056120301 	2.6192141e-07 	0.02194949 	5.9875635e-07 	0.0072161058
0.81111111 	0.023411263 	0.0059537983 	8.7956023e-07 	0.022857438 	2.0106881e-06 	0.0072178366
0.82222222 	0.02447341 	0.0063153959 	5.3375494e-06 	0.023854103 	1.3349377e-05 	0.0077123646
0.83333333 	0.025604868 	0.0066915371 	8.365457e-08 	0.02491318 	1.605816e-07 	0.0057698965
0.84444444 	0.026850462 	0.0070946418 	3.6429798e-07 	0.026093187 	9.81553e-07 	0.0082395911
0.85555556 	0.028214582 	0.0075227236 	5.2242811e-06 	0.027385922 	1.5005929e-05 	0.0087934926
0.86666667 	0.029682681 	0.0079726173 	3.8155636e-06 	0.02878195 	1.1599153e-05 	0.0093719195
0.87777778 	0.031267099 	0.0084459464 	4.0307315e-07 	0.03029413 	1.2900723e-06 	0.0099687491
0.88888889 	0.032976799 	0.0089405104 	1.7446808e-07 	0.031918756 	4.8661052e-07 	0.0038011118
0.9 	0.034811127 	0.0094573071 	2.3818685e-07 	0.033675878 	7.0701367e-07 	0.00063230872
0.91111111 	0.036762439 	0.0099923569 	2.167508e-07 	0.035559125 	6.7986011e-07 	0.00064145367
0.92222222 	0.038816606 	0.010540828 	1.1657557e-07 	0.037558118 	3.8400314e-07 	0.0053006807
0.93333333 	0.040948068 	0.011095311 	1.0725952e-06 	0.03964458 	4.1744177e-06 	0.012943551
0.94444444 	0.0431096 	0.011644373 	4.564139e-06 	0.041751055 	1.8016533e-05 	0.013477703
0.95555556 	0.045237326 	0.012191176 	1.8459633e-08 	0.043820835 	6.907899e-08 	0.011473513
0.96666667 	0.047106351 	0.012575792 	1.0355997e-06 	0.045672104 	7.2594701e-06 	0.014726064
0.97777778 	0.048520821 	0.012900716 	2.6227606e-08 	0.047064196 	2.005143e-07 	0.015197582
0.98888889 	0.047306974 	0.012648019 	-1.9511295e-06 	0.0458769 	-8.6262535e-06 	0.014744909
