0.26666667 	0.00064189279 	-2.301068e-05 	6.8057835e-07 	0.00067193481 	-9.2980753e-06 	1.4303118e-06
0.27777778 	0.035835153 	-0.0098298388 	1.6265895e-05 	0.045951766 	-1.6417827e-05 	0.005400678
0.28888889 	0.050152166 	-0.015065738 	-1.4919354e-05 	0.062576034 	9.3842583e-05 	0.016082196
0.3 	0.0549525 	-0.016934766 	-1.9538687e-06 	0.066334907 	8.8241209e-06 	0.053796071
0.31111111 	0.053803203 	-0.016504976 	-4.6254026e-05 	0.062768149 	0.00018220525 	0.028620966
0.32222222 	0.050527954 	-0.015397996 	-4.967764e-06 	0.057071515 	1.8079338e-05 	0.0519094
0.33333333 	0.046919366 	-0.014141998 	-1.0875452e-06 	0.051501337 	3.8852013e-06 	0.047544524
0.34444444 	0.043606816 	-0.01285735 	3.3777081e-06 	0.046507074 	-1.3147523e-05 	0.042104223
0.35555556 	0.040772522 	-0.01176995 	-4.6163063e-06 	0.042343135 	1.6546494e-05 	0.033703627
0.36666667 	0.038419475 	-0.010917091 	-1.8157701e-05 	0.038937724 	6.6825389e-05 	0.018372865
0.37777778 	0.036234134 	-0.01016583 	-2.9627894e-05 	0.035854629 	0.00011408754 	0.0020288583
0.38888889 	0.033953616 	-0.009416833 	-8.81558e-06 	0.032835426 	3.5705253e-05 	0.017027951
0.4 	0.031952559 	-0.0087982108 	8.4099672e-06 	0.030213452 	-3.3574897e-05 	0.023163162
0.41111111 	0.030121632 	-0.0082320812 	-7.1747032e-06 	0.027821456 	3.0072849e-05 	0.012357366
0.42222222 	0.028332396 	-0.0076666615 	-7.8922905e-06 	0.025547781 	3.3067063e-05 	0.0095265644
0.43333333 	0.026611783 	-0.0071343658 	1.0379416e-05 	0.023404211 	-3.6872213e-05 	0.016331714
0.44444444 	0.025026063 	-0.0065738708 	-8.4002269e-06 	0.021422389 	3.358972e-05 	0.0051310229
0.45555556 	0.023542483 	-0.0060358456 	3.6333964e-06 	0.019600889 	-1.1361362e-05 	0.013260936
0.46666667 	0.022175062 	-0.0054901488 	1.740558e-07 	0.017916741 	-4.6555669e-07 	0.011323835
0.47777778 	0.021075794 	-0.0049381658 	-7.7931523e-07 	0.016523848 	2.4917797e-06 	0.01000761
0.48888889 	0.020085775 	-0.004409993 	4.8525089e-06 	0.01525852 	-1.0722596e-05 	0.0093667993
0.5 	0.019369047 	-0.0038939553 	-1.420757e-06 	0.014254712 	3.959149e-06 	0.0075251672
0.51111111 	0.018778917 	-0.0034074897 	5.4803204e-06 	0.013391025 	-9.198276e-06 	0.0080172281
0.52222222 	0.01844342 	-0.0029349298 	5.100403e-07 	0.012762069 	-8.5606154e-07 	0.0077573357
0.53333333 	0.018219647 	-0.0024868571 	2.989119e-06 	0.012257266 	-3.3410574e-06 	0.0071983717
0.54444444 	0.018228776 	-0.0020556892 	4.9551905e-06 	0.011969806 	-5.5386138e-06 	0.0070246087
0.55555556 	0.018291152 	-0.0016361149 	-1.2793466e-06 	0.011749126 	2.4967291e-06 	0.0053441684
0.56666667 	0.018537657 	-0.0012379352 	1.1026511e-05 	0.01171974 	-6.1298557e-06 	0.0067000833
0.57777778 	0.018827508 	-0.00083587107 	-4.689367e-06 	0.011741991 	7.5664673e-06 	0.00060744509
0.58888889 	0.019201515 	-0.00046495994 	8.7264631e-06 	0.011880144 	-8.4103364e-08 	0.0066840867
0.6 	0.019639265 	-8.9398717e-05 	2.2682257e-06 	0.01209787 	-2.1860564e-08 	0.0066513289
0.61111111 	0.020101136 	0.00027558295 	-5.194797e-07 	0.012364311 	6.9240124e-07 	0.0061203934
0.62222222 	0.020628754 	0.00062632701 	1.1944759e-05 	0.012756456 	6.0742589e-06 	0.0069350989
0.63333333 	0.021159595 	0.00097781122 	-1.5537878e-06 	0.013161178 	1.6815178e-06 	0.0043784095
0.64444444 	0.021727015 	0.0013215689 	3.0861192e-06 	0.013635617 	3.0895922e-06 	0.0073958384
0.65555556 	0.022319073 	0.001659398 	7.0091014e-06 	0.014185483 	7.0169891e-06 	0.0074947428
0.66666667 	0.02289802 	0.0019942421 	-3.7934705e-06 	0.01473426 	3.2594114e-06 	0.0001636252
0.67777778 	0.023553588 	0.0023359748 	6.9453372e-06 	0.01539254 	9.9716989e-06 	0.0081583233
0.68888889 	0.024204757 	0.0026738092 	8.7693294e-07 	0.01607547 	1.2590477e-06 	0.0083172775
0.7 	0.024867773 	0.0030124692 	7.0866174e-08 	0.016777124 	1.2436359e-07 	0.008956449
0.71111111 	0.025574241 	0.0033565966 	5.5902975e-06 	0.017564859 	9.8104558e-06 	0.0091692953
0.72222222 	0.026269629 	0.0036993075 	-2.6669431e-06 	0.01833756 	1.3083784e-06 	0.0021843533
0.73333333 	0.027049247 	0.0040633283 	8.5982688e-06 	0.019218512 	1.6894308e-05 	0.010164346
0.74444444 	0.027813024 	0.004424998 	-2.4714477e-06 	0.020084122 	7.9876855e-07 	0.0025329734
0.75555556 	0.028664656 	0.0048136521 	6.3191925e-06 	0.021052938 	1.3328179e-05 	0.011317167
0.76666667 	0.029518073 	0.0052038248 	-1.9355638e-06 	0.022022947 	3.1660003e-07 	0.0044529438
0.77777778 	0.030459274 	0.0056222172 	5.900132e-06 	0.02309321 	1.3206891e-05 	0.012638946
0.78888889 	0.031409163 	0.006041616 	-2.3141032e-06 	0.024164535 	3.868321e-08 	0.0029261223
0.8 	0.03246853 	0.0064948899 	7.3898498e-06 	0.025367232 	1.7519814e-05 	0.014135691
0.81111111 	0.03353394 	0.0069460155 	-2.095916e-06 	0.026556165 	-2.2913712e-07 	0.0037611678
0.82222222 	0.034721828 	0.0074328476 	2.6541326e-06 	0.027899973 	6.6401903e-06 	0.01580869
0.83333333 	0.035944227 	0.0079281582 	1.8282631e-07 	0.029259824 	4.7916379e-07 	0.017187612
0.84444444 	0.037232904 	0.0084340354 	-1.2792388e-06 	0.030683184 	-3.0462614e-07 	0.0066216202
0.85555556 	0.038641208 	0.0089792572 	4.1837856e-06 	0.032253971 	1.1383796e-05 	0.019169367
0.86666667 	0.040108057 	0.0095384891 	-3.2622516e-08 	0.033866574 	-4.9628779e-09 	0.020350935
0.87777778 	0.041642709 	0.010108705 	-9.916962e-07 	0.035526471 	2.9050738e-07 	0.00019799333
0.88888889 	0.043341656 	0.010736939 	-8.5812783e-08 	0.037408775 	2.7939916e-07 	0.017349099
0.9 	0.045135275 	0.011391865 	2.7485428e-06 	0.039376834 	8.0481084e-06 	0.024896119
0.91111111 	0.047034639 	0.012076346 	4.2070087e-06 	0.041454145 	1.2614063e-05 	0.02681683
0.92222222 	0.049030497 	0.012786453 	1.7128617e-06 	0.043651096 	5.3047586e-06 	0.028801602
0.93333333 	0.051062753 	0.013500018 	8.886993e-07 	0.045925887 	2.8430647e-06 	0.030798744
0.94444444 	0.052960418 	0.014167583 	1.0975505e-06 	0.048131825 	4.3989054e-06 	0.032705776
0.95555556 	0.054318129 	0.014561159 	6.4326392e-07 	0.049933881 	1.9255874e-06 	0.024714735
0.96666667 	0.05449625 	0.014606155 	3.9466532e-08 	0.050754466 	1.5247504e-07 	0.034149838
0.97777778 	0.051662118 	0.013648198 	-4.211799e-07 	0.04881287 	-1.5381381e-07 	0.015491085
0.98888889 	0.040992901 	0.010597817 	-1.145838e-06 	0.039425131 	-2.6598345e-06 	0.01968583
