0.4742268 	1.4776671 	0.00013753479 	-1.4630918e-08
0.48453608 	2.381685 	0.0005985055 	-5.2638908e-08
0.49484536 	2.6748405 	0.0012593779 	2.6301681e-06
0.50515464 	2.8582364 	0.0020123032 	-1.2734003e-07
0.51546392 	2.9760303 	0.0027134023 	7.420247e-07
0.5257732 	3.0594278 	0.0033823449 	4.7992528e-06
0.53608247 	3.1125407 	0.0039069697 	1.022292e-06
0.54639175 	3.1392166 	0.0041885566 	-4.6505048e-08
0.55670103 	3.1481294 	0.0042547158 	-6.1959101e-08
0.56701031 	3.1482847 	0.0042034618 	-2.5194423e-07
0.57731959 	3.1444824 	0.0040956063 	-1.4764823e-06
0.58762887 	3.138874 	0.0039598939 	-2.7443369e-06
0.59793814 	3.1323067 	0.0038088678 	-3.2742099e-07
0.60824742 	3.1249862 	0.00364343 	-3.5794352e-07
0.6185567 	3.1174473 	0.0034781061 	-9.1106299e-07
0.62886598 	3.1095048 	0.0033042477 	-2.5431194e-06
0.63917526 	3.1012064 	0.0031229098 	-2.3927153e-07
0.64948454 	3.0928381 	0.0029432836 	-1.8841198e-06
0.65979381 	3.0841934 	0.0027578652 	-5.6257365e-07
0.67010309 	3.0752607 	0.002567231 	-5.6322791e-08
0.68041237 	3.066213 	0.0023760966 	-2.9116389e-06
0.69072165 	3.0568319 	0.0021784248 	-1.1766286e-07
0.70103093 	3.047445 	0.0019835605 	-3.9519676e-06
0.71134021 	3.0376521 	0.0017810169 	-9.580597e-08
0.72164948 	3.0279383 	0.0015835744 	-3.5525411e-06
0.73195876 	3.0179701 	0.0013826396 	-3.8809188e-08
0.74226804 	3.0076995 	0.0011797168 	-2.1386525e-06
0.75257732 	2.9973257 	0.00097775649 	-4.9563157e-09
0.7628866 	2.986485 	0.00077236665 	-1.0931965e-06
0.77319588 	2.9753784 	0.00056660837 	-2.5665038e-10
0.78350515 	2.9639173 	0.00036225989 	-1.3546222e-06
0.79381443 	2.9521469 	0.00015925134 	1.1234652e-08
0.80412371 	2.9398414 	-4.2085944e-05 	-2.7244775e-06
0.81443299 	2.9272442 	-0.00023804182 	7.9300811e-08
0.82474227 	2.9137737 	-0.0004333562 	-2.423891e-06
0.83505155 	2.8998065 	-0.00062071301 	2.2979032e-09
0.84536082 	2.8849367 	-0.00079881174 	9.1944382e-08
0.8556701 	2.8688468 	-0.00096736996 	-1.8563923e-06
0.86597938 	2.8515516 	-0.0011213271 	-5.8210693e-07
0.87628866 	2.8325888 	-0.0012554532 	2.3421304e-07
0.88659794 	2.8112359 	-0.0013679894 	1.7157127e-07
0.89690722 	2.7868612 	-0.001449847 	-1.2880537e-07
0.90721649 	2.7584069 	-0.0014912306 	-7.3210491e-08
0.91752577 	2.7245278 	-0.0014860524 	2.9636847e-07
0.92783505 	2.6831576 	-0.0014254187 	5.1009289e-07
0.93814433 	2.6314579 	-0.0013031704 	6.8936371e-08
0.94845361 	2.5646907 	-0.0011146932 	4.8946658e-07
0.95876289 	2.4761662 	-0.00087293426 	5.7819461e-07
0.96907216 	2.3540006 	-0.00059811534 	2.6013477e-07
0.97938144 	2.1703037 	-0.00032620998 	1.7038896e-07
0.98969072 	1.8250586 	-0.00010409066 	1.5984504e-07
