0.47191011 	1.947817 	-0.055032763 	-2.1250976e-05
0.48314607 	2.3982616 	-0.066220983 	-0.00023393778
0.49438202 	2.6071723 	-0.07014086 	-0.00032886332
0.50561798 	2.742843 	-0.071749436 	-0.00034448119
0.51685393 	2.8424273 	-0.071725945 	-9.0360301e-05
0.52808989 	2.9186478 	-0.071539936 	-6.8882065e-05
0.53932584 	2.9779083 	-0.071357794 	-0.00026467834
0.5505618 	3.0248946 	-0.070648031 	-0.00036212895
0.56179775 	3.061834 	-0.069523257 	-0.0003758149
0.57303371 	3.0903721 	-0.068074777 	-0.00032046102
0.58426966 	3.1117201 	-0.0663791 	-0.00021063155
0.59550562 	3.1268969 	-0.064504308 	-6.0591728e-05
0.60674157 	3.135477 	-0.062936572 	-0.00011152898
0.61797753 	3.1388689 	-0.061593423 	-0.00031776044
0.62921348 	3.1395465 	-0.059727538 	-0.00025865247
0.64044944 	3.1383507 	-0.057484461 	6.3358132e-07
0.65168539 	3.1329246 	-0.056177579 	-0.00025701144
0.66292135 	3.1272899 	-0.054268348 	-0.00018204988
0.6741573 	3.120566 	-0.052347891 	-9.5050376e-05
0.68539326 	3.1117778 	-0.050910554 	-0.00027811837
0.69662921 	3.1040729 	-0.048707936 	-1.3406797e-05
0.70786517 	3.0931686 	-0.047447817 	-0.00029194488
0.71910112 	3.0842996 	-0.045247382 	-2.137226e-06
0.73033708 	3.0721606 	-0.044022333 	-0.00026828684
0.74157303 	3.0615654 	-0.041843708 	-4.8980051e-06
0.75280899 	3.0482484 	-0.040632344 	-0.00024313923
0.76404494 	3.0355205 	-0.038495722 	-1.8915243e-05
0.7752809 	3.0205553 	-0.03714242 	-0.00018223033
0.78651685 	3.0054734 	-0.03521758 	-6.2556229e-05
0.79775281 	2.9886936 	-0.033606847 	-9.3988893e-05
0.80898876 	2.9704825 	-0.031988568 	-0.00013160912
0.82022472 	2.951518 	-0.030035614 	1.2734826e-06
0.83146067 	2.9295606 	-0.028536766 	-9.5052329e-05
0.84269663 	2.9059493 	-0.026855851 	-0.00011193318
0.85393258 	2.8804219 	-0.024967529 	-2.8660164e-05
0.86516854 	2.8518595 	-0.023217963 	-7.3569946e-06
0.87640449 	2.8194284 	-0.021548718 	-4.9663943e-05
0.88764045 	2.783265 	-0.019825235 	-7.2312306e-05
0.8988764 	2.7425057 	-0.018050449 	-7.7973326e-05
0.91011236 	2.6960543 	-0.016226665 	-6.9256089e-05
0.92134831 	2.6424824 	-0.014355438 	-4.8775395e-05
0.93258427 	2.5798594 	-0.012437389 	-1.9220456e-05
0.94382022 	2.504815 	-0.01047675 	3.2417288e-06
0.95505618 	2.4104553 	-0.0085837965 	-3.0135184e-05
0.96629213 	2.2881498 	-0.0064823297 	-9.891222e-07
0.97752809 	2.1095936 	-0.004340165 	-4.6630538e-06
0.98876404 	1.7774422 	-0.0019782899 	-1.1512831e-06
