0.47777778 	0.052638905 	-0.014330085 	-1.3392487e-06 	0.05117182 	7.873608e-06 	0.0078869679
0.48888889 	0.053690297 	-0.014398895 	6.125301e-08 	0.052275383 	-2.2662805e-07 	0.0088351877
0.5 	0.049381814 	-0.0132934 	6.6881724e-07 	0.04807622 	-2.486822e-06 	0.0089068917
0.51111111 	0.044499111 	-0.012084373 	4.3722556e-06 	0.043292179 	-1.6477615e-05 	0.0086871068
0.52222222 	0.039534475 	-0.010689005 	6.2070468e-06 	0.038458046 	-2.1238572e-05 	0.0078095692
0.53333333 	0.03473225 	-0.0092941739 	2.1098514e-05 	0.033790485 	-6.9914784e-05 	0.0074314552
0.54444444 	0.030258555 	-0.0079282475 	1.0782572e-05 	0.029456406 	-3.415538e-05 	0.0069327197
0.55555556 	0.026237079 	-0.0066034929 	5.1223465e-06 	0.025580497 	-1.507809e-05 	0.0063507007
0.56666667 	0.022776673 	-0.0053220336 	3.8971984e-06 	0.022270856 	-1.0289152e-05 	0.0057352838
0.57777778 	0.01994912 	-0.0041143206 	6.6163946e-06 	0.019588598 	-1.530882e-05 	0.0051430397
0.58888889 	0.017765275 	-0.0030208279 	1.211208e-05 	0.017529758 	-2.4141497e-05 	0.0046274041
0.6 	0.016181308 	-0.0020586099 	1.8224261e-05 	0.016041066 	-2.9551917e-05 	0.004232369
0.61111111 	0.015117396 	-0.001209606 	6.84888e-06 	0.015042248 	-7.9559761e-06 	0.0039919339
0.62222222 	0.014505019 	-0.00045528838 	4.4972454e-08 	0.014457787 	8.6993824e-08 	0.0012305202
0.63333333 	0.014285087 	0.00019568816 	4.4082081e-06 	0.014248774 	-3.0331303e-06 	0.003952581
0.64444444 	0.014314306 	0.00077876048 	1.0459361e-05 	0.014262776 	-2.7409857e-06 	0.0039866064
0.65555556 	0.014492095 	0.0013162291 	9.590202e-08 	0.014406913 	-1.0586189e-07 	0.0025430556
0.66666667 	0.014825587 	0.001789093 	4.8746813e-06 	0.014697912 	5.4069161e-07 	0.0041336549
0.67777778 	0.015240383 	0.0022248069 	4.5145162e-06 	0.015061138 	2.059191e-06 	0.0043237392
0.68888889 	0.015718793 	0.0026319984 	4.8481104e-08 	0.015477843 	-4.9336031e-08 	0.0038399824
0.7 	0.01626504 	0.0029992049 	7.2346844e-06 	0.015963886 	5.807162e-06 	0.0045570851
0.71111111 	0.016846565 	0.0033579446 	3.4942201e-07 	0.016470353 	-3.0998266e-07 	0.0013121562
0.72222222 	0.017463979 	0.0036834699 	7.6635722e-06 	0.017033236 	8.8505705e-06 	0.0048127932
0.73333333 	0.018110863 	0.0040058436 	3.9534923e-07 	0.017603734 	-2.877551e-07 	0.0011560546
0.74444444 	0.018808096 	0.0043156329 	7.1279698e-06 	0.018246727 	1.0976685e-05 	0.0050820233
0.75555556 	0.019527761 	0.0046216757 	4.1268625e-07 	0.018889954 	-2.2287662e-07 	0.0010830524
0.76666667 	0.020325533 	0.0049340159 	6.9102153e-06 	0.019633421 	1.328817e-05 	0.0053434933
0.77777778 	0.021148916 	0.0052456394 	3.2168364e-07 	0.020382417 	-1.0557083e-07 	0.0021011592
0.78888889 	0.022054738 	0.0055693311 	4.5213886e-06 	0.021232113 	1.0134376e-05 	0.0055841796
0.8 	0.023004399 	0.0058997715 	1.5969768e-06 	0.022117035 	4.0039507e-06 	0.0058970963
0.81111111 	0.024031006 	0.0062432194 	7.8172884e-07 	0.023078894 	1.9599557e-06 	0.0058044478
0.82222222 	0.025147734 	0.0066058224 	6.631766e-06 	0.024131442 	1.8101643e-05 	0.006110282
0.83333333 	0.026328512 	0.0069817541 	5.337823e-07 	0.025248261 	1.5589351e-06 	0.0064200957
0.84444444 	0.027615671 	0.0073790656 	4.1896353e-07 	0.026472466 	1.2236018e-06 	0.0063000948
0.85555556 	0.029013615 	0.0078004738 	5.1479014e-06 	0.027808604 	1.5911971e-05 	0.0065963555
0.86666667 	0.030505525 	0.0082407762 	5.1594242e-06 	0.029240236 	1.6761018e-05 	0.0068871774
0.87777778 	0.032101063 	0.0087011328 	1.9015193e-06 	0.030777664 	6.4622337e-06 	0.007166646
0.88888889 	0.033805822 	0.0091807863 	4.8377451e-08 	0.032424647 	6.233174e-08 	0.0061473554
0.9 	0.035617813 	0.0096766423 	1.8926022e-07 	0.034176009 	2.7875447e-07 	0.0017406832
0.91111111 	0.037529028 	0.010188303 	1.6392524e-07 	0.036040785 	2.684165e-07 	0.0017449186
0.92222222 	0.039525885 	0.010711712 	8.9933053e-09 	0.038008947 	1.6012715e-08 	0.0076504731
0.93333333 	0.041578478 	0.011235916 	2.2054108e-06 	0.040028434 	8.87948e-06 	0.0081980346
0.94444444 	0.043650447 	0.011757856 	4.8564945e-06 	0.042072641 	1.9708807e-05 	0.0083010073
0.95555556 	0.045682414 	0.012281273 	1.8917526e-07 	0.044081131 	7.2629868e-07 	0.0083618912
0.96666667 	0.047447981 	0.012644462 	1.0709405e-06 	0.045856354 	7.9814002e-06 	0.0085530742
0.97777778 	0.048765392 	0.01295171 	2.4757742e-08 	0.047191397 	2.9302665e-07 	0.0085633056
0.98888889 	0.047410236 	0.012673324 	-3.2492102e-06 	0.045916327 	-1.4195253e-05 	0.0080546877
