0.34020619 	0.058307308 	-0.014067085 	6.6135556e-06 	0.046462209 	-2.4883897e-05 	0.03598925
0.35051546 	0.020244215 	-0.0035116868 	-1.8163412e-05 	0.017884055 	2.1880565e-05 	0.0018369189
0.36082474 	0.013179748 	-5.7788987e-05 	-4.3521322e-06 	0.015059655 	-2.0363305e-05 	0.0027261611
0.37113402 	0.012904056 	0.00070368802 	-2.1428354e-10 	0.016976833 	-2.1655798e-09 	0.0070125637
0.3814433 	0.012586403 	0.0010809683 	8.4572482e-08 	0.017901494 	-1.3744148e-06 	0.0045340007
0.39175258 	0.012302459 	0.0012095712 	8.8414311e-07 	0.017690693 	-2.9847543e-06 	0.0011237074
0.40206186 	0.012066551 	0.00128697 	1.0409592e-06 	0.017417864 	-2.059694e-06 	0.00022118864
0.41237113 	0.011892885 	0.0013489109 	6.492502e-07 	0.01721985 	-9.7139331e-07 	0.00022269235
0.42268041 	0.011780328 	0.0014106059 	5.8405356e-08 	0.017105194 	-1.8505749e-06 	0.00056402186
0.43298969 	0.01171651 	0.0014795773 	2.8882206e-07 	0.017056215 	-5.1847739e-06 	0.00051322453
0.44329897 	0.011689813 	0.0015549277 	6.7612371e-07 	0.017060018 	-7.8489571e-06 	0.0014947837
0.45360825 	0.011692976 	0.0016349857 	4.123259e-07 	0.017102793 	-3.5427302e-06 	0.0024463336
0.46391753 	0.011720372 	0.0017172955 	1.3508522e-06 	0.017168451 	-1.3201661e-06 	0.00041557127
0.4742268 	0.01177366 	0.0018037991 	3.205549e-07 	0.017286743 	-2.1614701e-06 	0.0042189815
0.48453608 	0.011842436 	0.0018919425 	2.7583322e-07 	0.017413174 	-1.5095419e-06 	0.0051026488
0.49484536 	0.011924694 	0.0019793532 	1.9789524e-06 	0.017545049 	-1.6636051e-06 	0.001504234
0.50515464 	0.01202041 	0.002071695 	6.5650122e-07 	0.017718867 	-2.9441404e-06 	0.0067114612
0.51546392 	0.012127125 	0.0021618369 	2.5538477e-06 	0.017874622 	-2.0249057e-06 	0.0016755483
0.5257732 	0.012240958 	0.0022572996 	2.199004e-07 	0.018073834 	-8.1070795e-07 	0.0082258179
0.53608247 	0.012367226 	0.0023505017 	2.6272927e-06 	0.018249686 	-1.9903536e-06 	0.0027718973
0.54639175 	0.012495499 	0.0024490253 	3.9535497e-08 	0.018464192 	-1.2035425e-07 	0.0096608446
0.55670103 	0.012638059 	0.0025455093 	3.347695e-06 	0.01864947 	-2.4571038e-06 	0.0020428583
0.56701031 	0.0127785 	0.0026483514 	1.8574227e-07 	0.018878844 	-4.6495401e-07 	0.011032763
0.57731959 	0.012935564 	0.0027491236 	4.2020558e-06 	0.019067418 	-3.0378156e-06 	0.00047075599
0.58762887 	0.013087016 	0.0028561061 	6.3881177e-07 	0.01930504 	-4.6181976e-07 	0.010612495
0.59793814 	0.013253441 	0.0029633409 	2.7884907e-06 	0.019509768 	-2.0174979e-06 	0.0047453946
0.60824742 	0.013419927 	0.0030731573 	2.4822515e-06 	0.019730952 	-1.7959311e-06 	0.0062147907
0.6185567 	0.013589014 	0.0031856707 	9.2376611e-07 	0.019959046 	-6.7677914e-07 	0.010741685
0.62886598 	0.013773759 	0.0032999738 	4.0849409e-06 	0.020154637 	-2.9927519e-06 	0.0001813887
0.63917526 	0.013947841 	0.0034167063 	9.721466e-07 	0.020393307 	-7.1222416e-07 	0.010628843
0.64948454 	0.0141334 	0.0035337657 	1.564636e-06 	0.020597515 	-1.1580586e-06 	0.0078955916
0.65979381 	0.014325339 	0.0036534956 	2.8936143e-06 	0.020795847 	-2.1416962e-06 	0.0028872314
0.67010309 	0.014516969 	0.0037791834 	8.4695952e-08 	0.021035966 	-6.2687347e-08 	0.0138603
0.68041237 	0.014715209 	0.0038990874 	1.9200051e-06 	0.021213245 	-1.4172593e-06 	0.0055981413
0.69072165 	0.014919985 	0.004026162 	1.8322288e-06 	0.021417801 	-1.3524669e-06 	0.0062152235
0.70103093 	0.015131284 	0.0041580695 	2.2822028e-07 	0.021641616 	-1.6372699e-07 	0.013494038
0.71134021 	0.015343372 	0.004282227 	2.5860836e-06 	0.021796455 	-1.8552763e-06 	0.0010061624
0.72164948 	0.015566344 	0.0044196443 	4.7139142e-07 	0.02202468 	-3.3817984e-07 	0.012775645
0.73195876 	0.015792205 	0.0045503859 	1.3580627e-06 	0.022192639 	-8.9992133e-07 	0.0068197737
0.74226804 	0.01602441 	0.0046857267 	1.2395701e-06 	0.022377741 	-8.2140213e-07 	0.00795889
0.75257732 	0.016263574 	0.0048232436 	6.2818503e-07 	0.02256643 	-3.5479936e-07 	0.01146824
0.7628866 	0.016507395 	0.0049580433 	1.5714411e-06 	0.022717533 	-8.8755109e-07 	0.0045750574
0.77319588 	0.016760046 	0.0050998466 	2.9059711e-07 	0.022915613 	-1.2004138e-07 	0.014465414
0.78350515 	0.01701644 	0.0052344671 	1.5522247e-06 	0.023044961 	-6.412011e-07 	0.0031519249
0.79381443 	0.017282316 	0.0053777364 	2.4943587e-07 	0.023239457 	-4.8669949e-08 	0.015278763
0.80412371 	0.017551583 	0.0055128881 	1.2599391e-06 	0.023360421 	-2.4583943e-07 	0.0042628247
0.81443299 	0.017831091 	0.0056557711 	4.1671316e-07 	0.023533335 	3.0179712e-08 	0.013329438
0.82474227 	0.018117742 	0.0057954812 	7.8920008e-07 	0.023656108 	5.7156418e-08 	0.0085311873
0.83505155 	0.018425788 	0.0059045232 	4.8409854e-07 	0.023763932 	1.3671547e-07 	0.0079912044
0.84536082 	0.01875441 	0.0059893186 	1.2468732e-07 	0.023872574 	3.5213256e-08 	0.016643102
0.8556701 	0.019101202 	0.0060314541 	2.9908109e-07 	0.023890673 	2.2781189e-07 	0.0016379186
0.86597938 	0.019460494 	0.0060809314 	8.4426603e-08 	0.023975438 	1.3132872e-07 	0.012206335
0.87628866 	0.019827918 	0.0061180894 	2.8037384e-08 	0.024037246 	4.3613194e-08 	0.017115756
0.88659794 	0.020201904 	0.0061320701 	7.7412155e-08 	0.024048694 	2.673462e-07 	0.0055929882
0.89690722 	0.020585212 	0.0061460341 	-3.2505757e-08 	0.024085331 	2.4574888e-07 	0.0045631198
0.90721649 	0.020979428 	0.0061593379 	-7.849753e-08 	0.024141688 	6.0180005e-08 	0.012845591
0.91752577 	0.021383621 	0.0061675885 	-1.3868763e-08 	0.024187737 	-5.5318146e-08 	0.019160346
0.92783505 	0.021796877 	0.006170844 	-1.5548576e-07 	0.024210557 	-6.444875e-07 	0.019046128
0.93814433 	0.022220572 	0.006177294 	-7.950265e-08 	0.024226155 	-3.9525476e-07 	0.018895152
0.94845361 	0.022649116 	0.00619358 	-3.0046641e-07 	0.024227683 	-9.0800401e-07 	0.018706343
0.95876289 	0.023073679 	0.006137343 	-5.8874037e-07 	0.024174329 	-8.7040932e-07 	0.0067360823
0.96907216 	0.023556159 	0.0061906702 	-1.8355449e-07 	0.024178452 	-4.1829006e-07 	0.011081035
0.97938144 	0.024232474 	0.0063923938 	2.1994691e-07 	0.024309102 	3.4192193e-07 	0.012335941
0.98969072 	0.025044033 	0.0069262073 	2.1381875e-06 	0.024489229 	6.1002776e-06 	0.0079912999
