0.47916667 	0.057661509 	-0.015635717 	-2.1054877e-07 	0.055855384 	1.352215e-06 	0.028296311
0.48958333 	0.053818066 	-0.014643379 	-1.1072243e-07 	0.051991186 	7.1803474e-07 	0.0047533225
0.5 	0.045302713 	-0.01245023 	1.3520918e-06 	0.043685672 	-4.9331888e-06 	0.022696089
0.51041667 	0.036196988 	-0.0099949498 	1.2367441e-05 	0.034819984 	-4.2345225e-05 	0.01810962
0.52083333 	0.027774581 	-0.0073473004 	-1.6739383e-06 	0.026719531 	4.6678351e-06 	0.0035349423
0.53125 	0.021019137 	-0.0047949491 	-8.1927517e-07 	0.020367632 	1.9285559e-06 	0.0064442924
0.54166667 	0.016630382 	-0.0027728299 	3.1271259e-06 	0.016304611 	-5.507885e-06 	0.0079842843
0.55208333 	0.014461504 	-0.0013921464 	4.894536e-06 	0.014325651 	-5.419044e-06 	0.0071193675
0.5625 	0.013740042 	-0.00038299653 	3.205538e-06 	0.013704838 	-1.2945626e-06 	0.0068665116
0.57291667 	0.013740323 	0.00040811865 	2.8902176e-08 	0.01375309 	1.6769391e-09 	0.0069388684
0.58333333 	0.014051748 	0.0010351565 	-5.1868245e-07 	0.014074739 	-2.2553936e-07 	0.0034430231
0.59375 	0.014468394 	0.0015516248 	-6.3558003e-07 	0.014490068 	-4.9543147e-07 	0.0017562266
0.60416667 	0.014917035 	0.0019875393 	9.2705255e-07 	0.014943517 	4.599985e-07 	0.0074327086
0.61458333 	0.015375094 	0.0023663884 	3.6063175e-06 	0.015391428 	2.0836935e-06 	0.0077359417
0.625 	0.015826093 	0.0027051918 	-2.9057121e-07 	0.015823422 	-3.4176723e-07 	0.0045446099
0.63541667 	0.016255945 	0.0030059349 	-1.443178e-07 	0.016242654 	-1.8358445e-07 	0.0061662773
0.64583333 	0.016664453 	0.0032749409 	2.697157e-06 	0.016641396 	1.5475784e-06 	0.0083612141
0.65625 	0.017057628 	0.003519683 	-4.3614023e-07 	0.017008588 	-5.8170444e-07 	0.0020711174
0.66666667 	0.017419776 	0.0037369178 	1.2463263e-06 	0.017370372 	6.1523905e-07 	0.0086681781
0.67708333 	0.01776611 	0.0039338497 	-9.8407137e-08 	0.017701473 	-1.3582214e-07 	0.0072954609
0.6875 	0.018087558 	0.0041081222 	1.6157625e-08 	0.01801443 	5.2841865e-09 	0.0089645916
0.69791667 	0.018389401 	0.0042633971 	1.0907537e-07 	0.01830569 	-3.0423916e-09 	0.0092462607
0.70833333 	0.018670578 	0.0043996406 	-4.4517302e-08 	0.018574506 	-6.5748569e-08 	0.0082696365
0.71875 	0.018933781 	0.0045210532 	3.5402873e-08 	0.018829919 	-3.8797018e-08 	0.0095117338
0.72916667 	0.019174821 	0.0046243848 	4.7962577e-08 	0.019061219 	-5.2560845e-08 	0.0095121747
0.73958333 	0.019405116 	0.004716149 	-6.3013536e-08 	0.019278563 	-9.7247105e-08 	0.0080107911
0.75 	0.019618772 	0.0047953382 	6.9228937e-08 	0.01948539 	-4.3585458e-07 	0.0097520077
0.76041667 	0.019824175 	0.0048642877 	-9.7356676e-08 	0.019673416 	-1.5803606e-07 	0.0064352456
0.77083333 	0.020024635 	0.0049277728 	-3.8843614e-08 	0.019868481 	-5.667225e-07 	0.0099595113
0.78125 	0.020220598 	0.0049842402 	-4.8769121e-08 	0.020045991 	-8.3553809e-08 	0.0075211922
0.79166667 	0.020417921 	0.0050387252 	-2.099088e-08 	0.02023257 	-1.3762882e-07 	0.01014362
0.80208333 	0.020623599 	0.0050934501 	-2.7784886e-08 	0.020419747 	-2.0180105e-07 	0.010321028
0.8125 	0.02084194 	0.0051498753 	8.9101441e-09 	0.020606505 	1.5926621e-08 	0.0053502121
0.82291667 	0.021087712 	0.005218039 	8.3053172e-08 	0.020835349 	-5.6348298e-07 	0.010509776
0.83333333 	0.021365564 	0.005295791 	8.0062672e-08 	0.021070702 	1.5821803e-07 	0.0047676691
0.84375 	0.021693008 	0.0053946537 	3.2306593e-08 	0.021369366 	6.7405362e-08 	0.0095137079
0.85416667 	0.022099305 	0.0055235337 	1.0281696e-06 	0.021732199 	1.7552129e-06 	0.010993353
0.86458333 	0.022591789 	0.0056845554 	8.9224426e-08 	0.02216673 	1.9630864e-07 	0.0090322975
0.875 	0.023214393 	0.0058926003 	5.1685069e-07 	0.022710712 	1.2009704e-06 	0.0016220876
0.88541667 	0.024002398 	0.0061639499 	9.5856964e-08 	0.023438943 	2.3584164e-07 	0.010280564
0.89583333 	0.025020662 	0.0065123338 	1.5814661e-06 	0.024371989 	3.8197773e-06 	0.01228959
0.90625 	0.026321025 	0.0069505126 	3.5956683e-06 	0.025572191 	9.3066881e-06 	0.012956682
0.91666667 	0.027974649 	0.0074937518 	4.8768673e-06 	0.027114327 	1.3488668e-05 	0.013768833
0.92708333 	0.03005848 	0.0081546298 	4.4750726e-06 	0.029077824 	1.3195911e-05 	0.014730917
0.9375 	0.032630908 	0.0089368246 	1.5248759e-06 	0.031525593 	4.7764523e-06 	0.015834297
0.94791667 	0.035712351 	0.0098278389 	6.2361005e-07 	0.034465253 	2.2425905e-06 	0.0064145235
0.95833333 	0.039241235 	0.010826999 	4.7765658e-08 	0.037899378 	1.8339078e-07 	0.018544906
0.96875 	0.042853819 	0.011667646 	5.1335886e-07 	0.041414282 	2.2436974e-06 	0.00093188742
0.97916667 	0.046145357 	0.012458906 	5.7048039e-07 	0.044699028 	2.6035219e-06 	0.022663893
0.98958333 	0.046319693 	0.012482223 	-1.1501233e-06 	0.044904999 	-4.825923e-06 	0.022918146
