0 	0.060447368 	-4.1059434e-15 	-3.0564862e-20 	2.8003694e-17 	1.2226677e-18 	5.3382824e-20
0.010869565 	0.059967453 	-0.003771962 	6.2531618e-06 	0.062806225 	-0.00015292617 	0.027636957
0.02173913 	0.059255625 	-0.0047796432 	5.5142234e-06 	0.062010278 	-0.00012354397 	0.029989469
0.032608696 	0.058764873 	-0.0057808497 	1.5532269e-06 	0.061410882 	-3.5398375e-05 	0.032315778
0.043478261 	0.058504463 	-0.0068083478 	2.271407e-06 	0.061017465 	-5.2284053e-05 	0.034583249
0.054347826 	0.058450567 	-0.0078491488 	6.3543929e-07 	0.060775243 	-2.4921465e-06 	0.020658811
0.065217391 	0.058597965 	-0.0089486633 	1.6507389e-06 	0.060693368 	-5.6495997e-06 	0.0050371244
0.076086957 	0.058855467 	-0.0098555658 	1.24723e-06 	0.06079505 	-3.80629e-06 	0.020391796
0.086956522 	0.059242254 	-0.010815653 	1.3206392e-06 	0.061013675 	-2.4471112e-05 	0.043887292
0.097826087 	0.0597345 	-0.011759139 	5.9021503e-07 	0.061258935 	-1.6571092e-06 	0.037827811
0.10869565 	0.06027168 	-0.012660284 	3.7853343e-06 	0.061471996 	-1.0048791e-05 	0.00075575449
0.11956522 	0.060780307 	-0.013484563 	5.3259795e-07 	0.061817236 	-1.3589586e-06 	0.044708134
0.13043478 	0.061290895 	-0.014260481 	1.6717817e-06 	0.062040799 	-4.2656606e-06 	0.033871654
0.14130435 	0.061725696 	-0.014959446 	3.6506426e-06 	0.0621717 	-9.0314082e-06 	0.015994119
0.15217391 	0.06209989 	-0.015597936 	2.0051878e-07 	0.062359061 	-4.9606799e-07 	0.054938845
0.16304348 	0.062309202 	-0.016125949 	5.6652157e-06 	0.062190017 	-1.3629588e-05 	0.0006281343
0.17391304 	0.062464932 	-0.016611389 	1.8122341e-07 	0.062208206 	-1.2025653e-06 	0.060465069
0.18478261 	0.062332748 	-0.01694207 	5.5452443e-06 	0.061711078 	-1.2949932e-05 	0.0055072355
0.19565217 	0.062190478 	-0.017259182 	1.8272329e-07 	0.061434251 	-4.1128614e-07 	0.05963946
0.20652174 	0.06163165 	-0.017376402 	5.5203565e-06 	0.060532394 	-1.2425598e-05 	0.0019249252
0.2173913 	0.061126423 	-0.017510293 	1.2816401e-07 	0.059917366 	-2.8848037e-07 	0.055829582
0.22826087 	0.060092675 	-0.017406182 	3.9935585e-06 	0.058604347 	-8.5314972e-06 	0.0098400653
0.23913043 	0.05909889 	-0.017312855 	1.1174103e-06 	0.057491763 	-2.3871399e-06 	0.039764863
0.25 	0.057676129 	-0.017030639 	1.7044712e-06 	0.055900756 	-3.3328915e-06 	0.027077316
0.26086957 	0.056069132 	-0.01666306 	2.0875058e-06 	0.054156736 	-4.0818702e-06 	0.019103456
0.27173913 	0.054391699 	-0.016260475 	1.7542201e-06 	0.052426337 	-6.1802958e-06 	0.045074236
0.2826087 	0.052088791 	-0.015581418 	1.883092e-06 	0.050000401 	-2.9386123e-06 	0.0036575169
0.29347826 	0.049981892 	-0.014978657 	3.5260154e-07 	0.047905379 	-5.5024354e-07 	0.031678733
0.30434783 	0.047450975 	-0.014180246 	7.423585e-08 	0.045381792 	1.7623364e-07 	0.028857671
0.31521739 	0.044629027 	-0.013242596 	2.5945752e-07 	0.042570231 	6.1594422e-07 	0.0052553016
0.32608696 	0.042009502 	-0.012383144 	4.4775077e-06 	0.040051172 	-1.3052115e-05 	0.030359138
0.33695652 	0.039009877 	-0.011325527 	-3.8268903e-07 	0.037154305 	1.2275495e-06 	0.020427329
0.34782609 	0.035931483 	-0.010214157 	-9.158934e-07 	0.034195658 	2.9379061e-06 	0.0053573806
0.35869565 	0.033067688 	-0.0091853645 	8.0312711e-06 	0.031504758 	-2.1920411e-05 	0.022406557
0.36956522 	0.030191334 	-0.0081120704 	-3.7206823e-07 	0.028792858 	1.00277e-06 	0.0175679
0.38043478 	0.027360518 	-0.0070305609 	-1.5989356e-06 	0.026122968 	4.3093299e-06 	0.0018669112
0.39130435 	0.024753492 	-0.0060418537 	-3.518305e-08 	0.02371578 	9.4822686e-08 	0.015233988
0.40217391 	0.022498381 	-0.0051473121 	5.1100445e-06 	0.021622111 	-1.3247467e-05 	0.01529325
0.41304348 	0.020546416 	-0.0043330093 	-1.1055499e-06 	0.01979599 	2.8198402e-06 	0.0031154413
0.42391304 	0.018762114 	-0.00358684 	-4.7345441e-07 	0.018156219 	1.2076033e-06 	0.0071615398
0.43478261 	0.017303657 	-0.0029259146 	1.9163914e-05 	0.016817871 	-4.4356078e-05 	0.010769927
0.44565217 	0.016173404 	-0.0023418182 	-1.7324464e-07 	0.015771811 	3.8535278e-07 	0.0078162136
0.45652174 	0.015363119 	-0.0018362237 	-5.5218249e-07 	0.015015722 	1.2282345e-06 	0.0012865843
0.4673913 	0.014607766 	-0.001367727 	-1.6020607e-08 	0.014335615 	3.5635071e-08 	0.0084178517
0.47826087 	0.014195621 	-0.00095216747 	9.6263887e-06 	0.013958305 	-1.5337591e-05 	0.0085349744
0.48913043 	0.013948898 	-0.00055941597 	-5.8659535e-08 	0.013726471 	9.8891094e-08 	0.0050348347
0.5 	0.013877071 	-0.0001938846 	-1.0432177e-07 	0.013656966 	1.758707e-07 	0.0022519494
0.51086957 	0.013838288 	0.00016264039 	2.5127595e-06 	0.013633862 	-1.2586778e-06 	0.008109865
0.52173913 	0.013972867 	0.00050893017 	6.0812646e-06 	0.013758016 	-3.046194e-06 	0.0080350692
0.5326087 	0.014223037 	0.00085167225 	7.601356e-08 	0.01398016 	2.2566298e-08 	0.0039217444
0.54347826 	0.014565699 	0.0011975481 	8.3321869e-08 	0.014294263 	2.473593e-08 	0.0037714844
0.55434783 	0.014963681 	0.0015502667 	6.054317e-06 	0.014668014 	2.6074473e-06 	0.0085283761
0.56521739 	0.015432316 	0.0019029057 	1.8557033e-06 	0.01509705 	7.9920635e-07 	0.0084664492
0.57608696 	0.016012099 	0.0022595967 	3.0263932e-07 	0.015613885 	2.8663829e-07 	0.0012531042
0.58695652 	0.016628157 	0.0026308679 	3.5759109e-08 	0.016191018 	3.3868468e-08 	0.0085080238
0.59782609 	0.017320763 	0.0030048674 	7.964379e-06 	0.016827899 	8.3562402e-06 	0.0094125955
0.60869565 	0.018059647 	0.0033806215 	2.2122906e-07 	0.017498602 	3.4424529e-07 	0.0052230962
0.61956522 	0.018869745 	0.0037687663 	2.1842457e-07 	0.018245092 	3.3988134e-07 	0.0059868891
0.63043478 	0.019733654 	0.0041668133 	9.0649705e-06 	0.01905057 	1.3631001e-05 	0.010621051
0.64130435 	0.020634612 	0.0045648521 	1.3210061e-07 	0.019879045 	2.7207355e-07 	0.0081714467
0.65217391 	0.02160904 	0.0049727014 	3.2862424e-07 	0.020777748 	6.7683234e-07 	0.0052054086
0.66304348 	0.022636811 	0.0053951802 	8.109949e-06 	0.02174683 	1.5132769e-05 	0.012010054
0.67391304 	0.023696117 	0.0058159217 	1.477955e-07 	0.022729992 	3.6825823e-07 	0.0090027726
0.68478261 	0.024821697 	0.0062469534 	2.6392152e-07 	0.02378237 	6.5760645e-07 	0.0075358316
0.69565217 	0.025998598 	0.0066881268 	8.559548e-06 	0.024901013 	1.8729372e-05 	0.013527745
0.70652174 	0.02719751 	0.0071207296 	2.8891646e-07 	0.026020199 	8.6050094e-07 	0.00613183
0.7173913 	0.028458453 	0.007568238 	1.1851058e-08 	0.027232813 	3.5296868e-08 	0.014807624
0.72826087 	0.02974364 	0.0080081273 	2.9036341e-06 	0.028459294 	7.2677851e-06 	0.015120834
0.73913043 	0.031034265 	0.008432942 	3.1137113e-07 	0.029674338 	1.1646895e-06 	0.003018233
0.75 	0.032374306 	0.0088719462 	6.250378e-06 	0.030990623 	1.7565449e-05 	0.016735144
0.76086957 	0.033682985 	0.0092831815 	9.1301932e-08 	0.032240127 	5.6261779e-07 	0.0073414153
0.77173913 	0.035008231 	0.0096940199 	1.4590849e-06 	0.033551225 	4.6057227e-06 	0.018255874
0.7826087 	0.036291111 	0.010077041 	-1.5027778e-08 	0.034803521 	4.9339057e-08 	0.015709141
0.79347826 	0.037526032 	0.010433277 	-1.1183757e-08 	0.036027157 	3.6718405e-08 	0.017577319
0.80434783 	0.038704443 	0.010761849 	3.1040076e-07 	0.037204022 	1.1455104e-06 	0.019591065
0.81521739 	0.039773818 	0.011042421 	-7.989496e-08 	0.038275694 	-8.8620154e-08 	0.016640723
0.82608696 	0.040759065 	0.011289035 	8.0023332e-08 	0.03928654 	4.1206744e-07 	0.020699687
0.83695652 	0.041586692 	0.01147382 	-1.5064066e-08 	0.04014661 	-2.8410329e-08 	0.02106014
0.84782609 	0.042259859 	0.011599258 	-2.641994e-07 	0.040852646 	-5.9421973e-07 	0.01560631
0.85869565 	0.042747393 	0.011659948 	-1.2025722e-06 	0.041407841 	-8.8003825e-07 	0.02201773
0.86956522 	0.043028465 	0.011643047 	-1.0538345e-06 	0.041715401 	-2.6202888e-06 	0.0020129972
0.88043478 	0.043101549 	0.011563435 	-2.2569224e-06 	0.041901357 	-3.9874346e-06 	0.022191671
0.89130435 	0.04292733 	0.011399185 	-3.5634098e-08 	0.041805494 	-9.5486589e-08 	0.021446248
0.90217391 	0.042474248 	0.01114687 	-9.7428372e-07 	0.041404873 	-2.7938447e-06 	0.005630019
0.91304348 	0.041754073 	0.010826732 	-2.3566841e-06 	0.040798241 	-6.01683e-06 	0.021646307
0.92391304 	0.040746473 	0.010431564 	-4.5461148e-06 	0.039865335 	-1.2278494e-05 	0.020980725
0.93478261 	0.039436526 	0.0099196743 	-3.6476598e-07 	0.038630803 	-1.0432291e-06 	0.020210417
0.94565217 	0.037689771 	0.0093397479 	-5.1091794e-06 	0.036944104 	-1.6776832e-05 	0.0195057
0.95652174 	0.035645723 	0.008744309 	-5.5652621e-07 	0.034908739 	-2.3233055e-06 	0.0040419023
0.9673913 	0.033099799 	0.0081107519 	-4.2832372e-07 	0.032405556 	-1.8072592e-06 	0.017284261
0.97826087 	0.029848358 	0.0074367291 	-1.7209168e-07 	0.029125686 	-1.1327728e-06 	0.0034030401
0.98913043 	0.0239185 	0.0062847931 	-1.353888e-08 	0.023228152 	-2.9712698e-07 	0.0024014097
