0.47826087 	2.0136207 	0.00020680349 	-1.2543616e-08
0.48913043 	2.5051121 	0.00073013899 	-8.6161516e-08
0.5 	2.7401509 	0.0013405181 	1.0495574e-07
0.51086957 	2.8930121 	0.0019961038 	1.2993166e-06
0.52173913 	2.9985209 	0.0026327064 	-8.1657804e-07
0.5326087 	3.0716155 	0.0032097705 	7.5488757e-07
0.54347826 	3.1168331 	0.0036454258 	2.1414943e-06
0.55434783 	3.1393552 	0.0038704668 	3.724237e-07
0.56521739 	3.1467571 	0.0039166093 	-5.6986312e-07
0.57608696 	3.1463735 	0.0038600079 	-1.6074526e-06
0.58695652 	3.1423243 	0.0037504603 	-1.3901346e-06
0.59782609 	3.1364393 	0.0036121562 	-5.0045322e-08
0.60869565 	3.1294281 	0.0034540217 	-3.5962019e-07
0.61956522 	3.1219929 	0.003292022 	-6.8586147e-08
0.63043478 	3.1140596 	0.0031206466 	-3.1934248e-06
0.64130435 	3.1057288 	0.002941578 	-1.2260136e-07
0.65217391 	3.0971304 	0.0027590568 	-9.9541382e-08
0.66304348 	3.0883336 	0.0025742769 	-2.8192204e-06
0.67391304 	3.0790852 	0.0023803469 	-2.2090936e-07
0.68478261 	3.0698832 	0.0021910505 	-2.1918738e-06
0.69565217 	3.0602359 	0.0019933664 	-8.943841e-08
0.70652174 	3.0504817 	0.0017965793 	-8.0578541e-07
0.7173913 	3.0403725 	0.001595008 	-4.4375724e-08
0.72826087 	3.03024 	0.0013965136 	-7.1628607e-07
0.73913043 	3.0196511 	0.0011929793 	-3.7873425e-08
0.75 	3.008929 	0.00099150586 	-9.7283318e-07
0.76086957 	2.9977973 	0.00078832048 	-2.1820195e-08
0.77173913 	2.9862068 	0.00058293696 	-3.1912407e-07
0.7826087 	2.9742761 	0.00038048149 	-6.6805842e-10
0.79347826 	2.9618879 	0.00018032279 	1.4832317e-08
0.80434783 	2.9488936 	-1.7691556e-05 	-2.0611722e-06
0.81521739 	2.9354589 	-0.0002077568 	9.4543129e-08
0.82608696 	2.9210239 	-0.0003966877 	-7.0893427e-07
0.83695652 	2.9057694 	-0.00057337711 	-7.4517474e-07
0.84782609 	2.8894732 	-0.0007365529 	2.0044313e-07
0.85869565 	2.8715695 	-0.00088938805 	6.1599131e-08
0.86956522 	2.8517918 	-0.0010203045 	-9.8474526e-07
0.88043478 	2.829697 	-0.001126733 	-4.6110566e-07
0.89130435 	2.8045329 	-0.0012033013 	1.7577128e-08
0.90217391 	2.7750742 	-0.0012410499 	1.5826234e-07
0.91304348 	2.7399847 	-0.0012352362 	1.9150283e-07
0.92391304 	2.6972524 	-0.0011793148 	6.036608e-08
0.93478261 	2.6437938 	-0.001068093 	6.8507494e-07
0.94565217 	2.5758347 	-0.00090500619 	6.091731e-07
0.95652174 	2.4870272 	-0.00070047716 	4.3675777e-07
0.9673913 	2.3651022 	-0.00047439276 	1.0121008e-07
0.97826087 	2.184111 	-0.00025728849 	3.587157e-07
0.98913043 	1.84607 	-8.351279e-05 	2.2296486e-07
