0 	1.6393798 	-1.113384e-13 	-4.3475758e-20
0.010869565 	1.6433372 	-0.00080047638 	1.3985593e-07
0.02173913 	1.6501133 	-0.0015846477 	3.6954784e-08
0.032608696 	1.6585229 	-0.0023645635 	2.4712237e-08
0.043478261 	1.6685901 	-0.0031318221 	9.7427144e-08
0.054347826 	1.6804102 	-0.0038838671 	6.8626002e-07
0.065217391 	1.6950232 	-0.0046685956 	1.6668148e-06
0.076086957 	1.7087854 	-0.0053043223 	1.1924043e-06
0.086956522 	1.7248763 	-0.0059606471 	3.2500149e-07
0.097826087 	1.7429012 	-0.0065923183 	5.4255247e-07
0.10869565 	1.7628067 	-0.007188703 	3.3942109e-06
0.11956522 	1.782614 	-0.0077282358 	4.7057633e-07
0.13043478 	1.8047331 	-0.0082355501 	1.4771008e-06
0.14130435 	1.8281237 	-0.0086943284 	3.2049725e-06
0.15217391 	1.8512517 	-0.0091124456 	1.7603948e-07
0.16304348 	1.8776652 	-0.0094700075 	4.9850613e-06
0.17391304 	1.9020749 	-0.0097958401 	9.3588152e-08
0.18478261 	1.9304987 	-0.01004148 	4.9465831e-06
0.19565217 	1.9565328 	-0.010272493 	1.6820189e-07
0.20652174 	1.9866421 	-0.010402782 	5.081642e-06
0.2173913 	2.0138721 	-0.010534301 	1.1797856e-07
0.22826087 	2.044992 	-0.010549122 	3.9177381e-06
0.23913043 	2.0739129 	-0.010564081 	1.0961955e-06
0.25 	2.1048339 	-0.010487849 	1.9080899e-06
0.26086957 	2.1357277 	-0.010368596 	2.3368824e-06
0.27173913 	2.1656809 	-0.010230825 	9.0698913e-07
0.2826087 	2.1982271 	-0.0099645302 	2.9040875e-06
0.29347826 	2.2279734 	-0.0097306426 	5.4377891e-07
0.30434783 	2.2589091 	-0.0094066848 	5.1817556e-07
0.31521739 	2.2902223 	-0.0090189269 	1.811046e-06
0.32608696 	2.3191592 	-0.0086648265 	2.2646933e-06
0.33695652 	2.3486257 	-0.008213616 	3.9729255e-07
0.34782609 	2.377407 	-0.0077357111 	9.5084414e-07
0.35869565 	2.4040702 	-0.0072923274 	4.1891746e-06
0.36956522 	2.4295284 	-0.0068061033 	1.2537276e-07
0.38043478 	2.4537021 	-0.00630404 	5.3878011e-07
0.39130435 	2.4759849 	-0.0058471685 	1.1855344e-08
0.40217391 	2.495423 	-0.0054132224 	2.8723227e-06
0.41304348 	2.5122821 	-0.0050018784 	3.8837027e-07
0.42391304 	2.5276903 	-0.0046243291 	1.663205e-07
0.43478261 	2.5405671 	-0.0042849092 	1.1897729e-05
0.44565217 	2.5508796 	-0.0039789856 	1.6731496e-07
0.45652174 	2.5585944 	-0.0037094542 	5.3328279e-07
0.4673913 	2.5657674 	-0.0034612731 	1.5472266e-08
0.47826087 	2.5698565 	-0.0032368665 	6.575871e-06
0.48913043 	2.5723936 	-0.0030240013 	2.7323351e-07
0.5 	2.5732768 	-0.0028258079 	4.8592615e-07
0.51086957 	2.5737939 	-0.0026338526 	1.7836991e-06
0.52173913 	2.572482 	-0.0024469752 	4.3168264e-06
0.5326087 	2.5699236 	-0.0022639088 	3.1369834e-07
0.54347826 	2.5663612 	-0.002081745 	3.438588e-07
0.55434783 	2.5621533 	-0.001897515 	4.1586678e-06
0.56521739 	2.5571252 	-0.0017137057 	1.2746695e-06
0.57608696 	2.5508416 	-0.0015314736 	4.6657284e-07
0.58695652 	2.5441422 	-0.0013446279 	5.5129087e-08
0.59782609 	2.5364608 	-0.0011560036 	5.2337947e-06
0.60869565 	2.5282226 	-0.00096732264 	2.1637967e-07
0.61956522 	2.5191433 	-0.00077515528 	2.1363665e-07
0.63043478 	2.5093022 	-0.00057871424 	5.7528189e-06
0.64130435 	2.4989181 	-0.00038203266 	9.7410461e-08
0.65217391 	2.4875609 	-0.00018265921 	2.423262e-07
0.66304348 	2.4753857 	2.2217705e-05 	4.9774346e-06
0.67391304 	2.4626217 	0.00022624563 	8.7599579e-08
0.68478261 	2.4488242 	0.00043248618 	1.5642841e-07
0.69565217 	2.4340468 	0.0006428068 	5.1165452e-06
0.70652174 	2.4186106 	0.00084952666 	1.3915008e-07
0.7173913 	2.4020636 	0.0010606645 	5.7077942e-09
0.72826087 	2.3843826 	0.0012690669 	1.717136e-06
0.73913043 	2.3658685 	0.0014701626 	1.0709609e-07
0.75 	2.3458703 	0.0016754266 	3.7005509e-06
0.76086957 	2.3251322 	0.0018688493 	-1.0513033e-08
0.77173913 	2.3028884 	0.0020593822 	8.7913663e-07
0.7826087 	2.2795672 	0.0022376078 	-2.6065182e-08
0.79347826 	2.2548982 	0.002401361 	-1.9397856e-08
0.80434783 	2.2288576 	0.0025515931 	1.9699074e-07
0.81521739 	2.2015753 	0.0026776284 	-7.1769691e-08
0.82608696 	2.172794 	0.0027860593 	5.9973929e-08
0.83695652 	2.1427307 	0.0028629608 	-1.1530536e-08
0.84782609 	2.111188 	0.002909964 	-1.8885516e-07
0.85869565 	2.0780755 	0.0029220195 	-4.3735187e-07
0.86956522 	2.0439128 	0.0028956538 	-7.2920653e-07
0.88043478 	2.0074231 	0.0028318657 	-1.011806e-06
0.89130435 	1.969768 	0.00272407 	-2.433422e-08
0.90217391 	1.9301554 	0.0025689433 	-6.6517247e-07
0.91304348 	1.8878117 	0.0023703569 	-1.198776e-06
0.92391304 	1.8435218 	0.0021289577 	-2.2274218e-06
0.93478261 	1.7961612 	0.0018522937 	-1.8053977e-07
0.94565217 	1.7397755 	0.0015188994 	-2.671299e-06
0.95652174 	1.6769189 	0.0011706067 	-4.2771003e-07
0.9673913 	1.5971034 	0.00080202241 	-2.1977994e-07
0.97826087 	1.4823787 	0.00044594044 	-1.8181723e-07
0.98913043 	1.2500807 	0.0001543584 	-6.4084004e-08
