0.17894737 	0.058199564 	-0.0094810419 	-2.2003617e-05 	0.035318789 	7.0070257e-05 	0.026370804
0.18947368 	0.015428206 	9.2657944e-05 	1.3110638e-06 	0.022346179 	1.7743052e-06 	0.0085276821
0.2 	0.013219891 	-0.00036391654 	-9.6858024e-07 	0.019655988 	-6.4670969e-06 	0.0051032377
0.21052632 	0.011928504 	-0.00066245842 	-1.7907123e-06 	0.017313675 	-1.8445181e-05 	0.0030281805
0.22105263 	0.011121169 	-0.0007747479 	-2.7336476e-07 	0.015946235 	-5.3967238e-06 	0.0014706437
0.23157895 	0.010586193 	-0.00081968404 	-5.5758146e-07 	0.01509296 	-1.6892365e-05 	0.00021734504
0.24210526 	0.010217356 	-0.00082981625 	-1.1040245e-07 	0.014548681 	-1.3872595e-05 	0.0010194455
0.25263158 	0.0099471318 	-0.00082423959 	6.3205512e-08 	0.014177343 	-1.4461022e-05 	0.0020971182
0.26315789 	0.00975117 	-0.00081478323 	7.1078349e-08 	0.013926549 	-7.8497281e-06 	0.0031000139
0.27368421 	0.0096209255 	-0.00080544455 	1.8895147e-06 	0.01376386 	-1.5393481e-06 	0.0029695525
0.28421053 	0.0095509732 	-0.00079448527 	6.7141952e-06 	0.013665343 	-4.3876816e-06 	0.001196231
0.29473684 	0.0094956835 	-0.00077522663 	7.4842151e-09 	0.013698564 	-2.6301047e-07 	0.0059218455
0.30526316 	0.0094795183 	-0.0007570836 	2.9558336e-06 	0.013715625 	-1.5157694e-06 	0.0051630209
0.31578947 	0.0095054542 	-0.00073639707 	1.2950438e-05 	0.013728771 	-5.0680525e-06 	0.00057261933
0.32631579 	0.0095057464 	-0.00071003304 	1.5276932e-06 	0.013895976 	-4.4255831e-07 	0.0070539346
0.33684211 	0.0095650322 	-0.00068103217 	7.1616682e-06 	0.013975344 	-2.0746677e-06 	0.0028743514
0.34736842 	0.009610956 	-0.00064623666 	3.50536e-06 	0.014137574 	-7.2990142e-07 	0.0043754425
0.35789474 	0.0096748098 	-0.00061063958 	1.6338893e-06 	0.014309485 	-3.4021558e-07 	0.0048070184
0.36842105 	0.0097526701 	-0.00056351983 	3.272315e-06 	0.014475128 	-4.8574831e-07 	0.003146146
0.37894737 	0.0098290667 	-0.0005181011 	2.1850897e-07 	0.014690238 	-1.0479516e-06 	0.0044608436
0.38947368 	0.0099184043 	-0.00045958143 	9.3401059e-07 	0.014888067 	-1.0524257e-07 	0.0032399547
0.4 	0.010013019 	-0.00040059488 	5.1263284e-07 	0.015116211 	-1.5828379e-06 	0.0032294924
0.41052632 	0.010111579 	-0.00033038942 	5.1644986e-07 	0.015343419 	-1.5946236e-06 	0.0026071415
0.42105263 	0.010216061 	-0.00025732559 	5.3233445e-07 	0.015584495 	-1.0748637e-06 	0.0020788949
0.43157895 	0.010324767 	-0.00017274507 	1.9112385e-06 	0.015832043 	-3.8590795e-06 	0.0015148252
0.44210526 	0.010434737 	-8.7090969e-05 	7.4319465e-08 	0.016083818 	-9.644061e-09 	0.00094724548
0.45263158 	0.010551763 	1.4619101e-05 	3.8713275e-06 	0.016347087 	-5.2363371e-06 	0.00049166492
0.46315789 	0.010669018 	0.00011634194 	1.258709e-06 	0.016610163 	-1.7025231e-06 	7.5734283e-05
0.47368421 	0.010791706 	0.00023055931 	2.6051377e-06 	0.016881875 	-2.4053695e-06 	0.00057054304
0.48421053 	0.010917503 	0.0003528724 	3.8596806e-06 	0.017158126 	-3.5637111e-06 	0.0010296527
0.49473684 	0.011049291 	0.00047372509 	1.7078196e-06 	0.01742619 	-7.3865791e-07 	0.00010907097
0.50526316 	0.011180679 	0.0006215605 	4.2515431e-06 	0.017708841 	-2.880221e-06 	0.0019456997
0.51578947 	0.011316886 	0.00077116789 	2.9905182e-06 	0.017988126 	-2.0259358e-06 	0.002330347
0.52631579 	0.011463128 	0.00092039191 	1.5809382e-06 	0.018254635 	-9.0193667e-07 	0.0012557691
0.53684211 	0.01160886 	0.0010960207 	5.1670415e-06 	0.018529188 	-3.0261095e-06 	0.0031534829
0.54736842 	0.011759345 	0.0012757498 	2.848559e-06 	0.018800106 	-1.668276e-06 	0.0034591525
0.55789474 	0.011924689 	0.0014529427 	2.226694e-06 	0.019052664 	-1.8056342e-06 	0.0010001758
0.56842105 	0.012084536 	0.0016442958 	4.3958036e-06 	0.019306534 	-2.900953e-06 	0.004206532
0.57894737 	0.012252019 	0.0018461624 	3.9691101e-06 	0.019550699 	-2.6193622e-06 	0.0044289579
0.58947368 	0.012431951 	0.0020459452 	1.8482817e-06 	0.019776806 	-2.334576e-06 	0.0009608312
0.6 	0.01261719 	0.0022397542 	1.8834459e-06 	0.020004582 	-1.8896059e-06 	0.0051074442
0.61052632 	0.012819142 	0.0024408732 	4.960232e-06 	0.020193348 	-4.9764551e-06 	0.0052458044
0.62105263 	0.013026068 	0.0026397805 	7.3984391e-07 	0.020369942 	-1.0275995e-06 	0.0030151998
0.63157895 	0.013230081 	0.0028444196 	1.5936323e-07 	0.020579882 	-2.4200166e-07 	0.0058204083
0.64210526 	0.013470932 	0.0030280881 	4.3745122e-06 	0.020715304 	-6.6429325e-06 	0.0058803643
0.65263158 	0.013717533 	0.0032059537 	6.4667905e-07 	0.020834173 	-2.7614983e-07 	0.003618949
0.66315789 	0.013937954 	0.0034151733 	1.7644344e-07 	0.021023819 	-3.5096982e-07 	0.0063094623
0.67368421 	0.014198783 	0.0035789511 	2.871417e-06 	0.02113527 	-5.711636e-06 	0.0062997439
0.68421053 	0.014478579 	0.0037180176 	1.270562e-06 	0.021200223 	4.7862535e-07 	0.0021161849
0.69473684 	0.014722238 	0.0039068717 	9.4641003e-07 	0.021362211 	-2.7068876e-06 	0.0065770691
0.70526316 	0.015000677 	0.0040436822 	9.9249089e-07 	0.021453562 	-2.8386864e-06 	0.0065060788
0.71578947 	0.015305325 	0.0041404556 	1.3739198e-06 	0.021488751 	1.0198997e-06 	0.0024971446
0.72631579 	0.015582772 	0.0042763065 	1.7709931e-06 	0.021603229 	-7.0506644e-06 	0.0066323402
0.73684211 	0.015880449 	0.0043845149 	1.0136651e-06 	0.021668276 	8.9260917e-07 	0.0038017893
0.74736842 	0.016174517 	0.0044979039 	6.6220433e-07 	0.021761095 	-2.8014153e-06 	0.0066380984
0.75789474 	0.01647073 	0.004609475 	3.1916056e-07 	0.02184937 	-1.3501894e-06 	0.0064676382
0.76842105 	0.016776218 	0.0047104285 	1.0959962e-07 	0.021930022 	-4.9434112e-07 	0.0065285783
0.77894737 	0.017079098 	0.0048177233 	6.5051973e-07 	0.022023482 	-2.934122e-06 	0.0063192859
0.78947368 	0.017390771 	0.00491689 	1.9161073e-07 	0.022108667 	1.9844124e-07 	0.0056427787
0.8 	0.017701317 	0.0050210057 	6.6874829e-07 	0.022208999 	-3.1755785e-06 	0.0060703206
0.81052632 	0.018020518 	0.0051186012 	1.9138876e-08 	0.022302511 	-9.6783394e-08 	0.0060011305
0.82105263 	0.018340563 	0.0052194433 	4.6327259e-07 	0.022405961 	-2.3427235e-06 	0.0057316224
0.83157895 	0.018670144 	0.0053143726 	2.6070104e-07 	0.022506364 	-1.4337857e-06 	0.0056063583
0.84210526 	0.019000855 	0.005411666 	1.1819191e-07 	0.022614552 	-6.5002377e-07 	0.0053140094
0.85263158 	0.019344117 	0.0055029108 	5.7520506e-07 	0.022721627 	-3.5139593e-06 	0.0051392799
0.86315789 	0.019691202 	0.0055929493 	3.9361613e-07 	0.022823422 	6.6316095e-07 	0.0015391313
0.87368421 	0.020046956 	0.0056837456 	3.0309805e-07 	0.022947187 	-2.0912742e-06 	0.0046098755
0.88421053 	0.020412665 	0.0057700281 	3.2996135e-07 	0.02306171 	-2.6147397e-06 	0.0043679862
0.89473684 	0.020785101 	0.0058549332 	3.5289973e-08 	0.023176453 	8.5413938e-08 	0.0035479956
0.90526316 	0.021165242 	0.005939502 	7.8822163e-08 	0.023295542 	-7.4028119e-07 	0.0037505174
0.91578947 	0.02155414 	0.006020344 	2.1053273e-07 	0.023407852 	-2.4929829e-06 	0.0034538277
0.92631579 	0.021947686 	0.0060985248 	1.4867443e-07 	0.02351515 	-3.1949795e-06 	0.0031384412
0.93684211 	0.022338192 	0.0061625563 	-4.2116175e-07 	0.023614781 	-2.2962477e-06 	0.0028066828
0.94736842 	0.022742868 	0.0061989393 	-2.1324632e-07 	0.023716722 	-1.4434153e-06 	0.00245788
0.95789474 	0.023242055 	0.0062869672 	8.5392202e-08 	0.023872156 	-1.58018e-07 	0.0020963282
0.96842105 	0.023888187 	0.0064416555 	5.4880936e-07 	0.024156465 	4.4045706e-07 	0.001747134
0.97894737 	0.024673686 	0.0066361009 	7.3697142e-08 	0.024562003 	-6.1203696e-08 	0.0013875337
0.98947368 	0.023786745 	0.0064506728 	-7.0527691e-06 	0.023304964 	-2.7048773e-05 	0.00093068989
