0.29896907 	1.3347508 	0.29131501 	8.0228508e-06
0.30927835 	2.7578012 	0.58565329 	-0.00038720457
0.31958763 	2.820387 	0.57712721 	-0.0012791272
0.32989691 	2.8152152 	0.5526324 	-6.6149182e-05
0.34020619 	2.8070637 	0.52891402 	-0.00026645819
0.35051546 	2.8006931 	0.50825011 	-0.00015163472
0.36082474 	2.7938639 	0.48790085 	-0.00028968256
0.37113402 	2.7871162 	0.46863851 	-0.00027072158
0.3814433 	2.7802969 	0.45033482 	-7.9728246e-05
0.39175258 	2.7730442 	0.43265163 	-0.00029739549
0.40206186 	2.7664371 	0.41617339 	-4.8121417e-05
0.41237113 	2.759213 	0.40057957 	-0.00034256198
0.42268041 	2.751702 	0.38560334 	-8.1604057e-05
0.43298969 	2.7438099 	0.37066732 	-0.00039790907
0.44329897 	2.7367885 	0.3574792 	-0.00013962607
0.45360825 	2.7283855 	0.34386715 	-0.00037060032
0.46391753 	2.7207704 	0.33140548 	-0.00022081617
0.4742268 	2.7126907 	0.31938511 	-0.00024488071
0.48453608 	2.7043525 	0.30743539 	-0.00034134317
0.49484536 	2.6964051 	0.29662881 	-0.00014930933
0.50515464 	2.6877729 	0.28548461 	-0.0002431683
0.51546392 	2.6796324 	0.2754173 	-0.00010795754
0.5257732 	2.671014 	0.26538836 	-0.00011338091
0.53608247 	2.6624628 	0.2555894 	-0.00012993184
0.54639175 	2.653979 	0.24680689 	-3.1501279e-05
0.55670103 	2.6449208 	0.236965 	-0.00017787678
0.56701031 	2.6365347 	0.22905692 	-0.00017885922
0.57731959 	2.627389 	0.22029414 	-7.5587811e-05
0.58762887 	2.6186529 	0.21230214 	-3.291956e-05
0.59793814 	2.6095463 	0.2046873 	-0.00016513426
0.60824742 	2.6001465 	0.19639001 	-9.5599105e-05
0.6185567 	2.5912603 	0.18958272 	-6.6745338e-05
0.62886598 	2.5818857 	0.18258102 	-0.00011553151
0.63917526 	2.572461 	0.17512365 	-7.8773436e-05
0.64948454 	2.5629346 	0.16883071 	-0.00012093657
0.65979381 	2.5531938 	0.16236032 	-8.4578162e-05
0.67010309 	2.5435523 	0.15569441 	-5.0284667e-05
0.68041237 	2.533219 	0.14968109 	-0.00017229096
0.69072165 	2.5228422 	0.14355172 	-5.8797111e-07
0.70103093 	2.5125088 	0.1374959 	-1.6335127e-05
0.71134021 	2.5015712 	0.13178452 	-0.00018577637
0.72164948 	2.4908137 	0.12589771 	-2.8637656e-05
0.73195876 	2.4793698 	0.12050347 	-9.0944497e-05
0.74226804 	2.467794 	0.11501994 	-2.7298009e-06
0.75257732 	2.4560377 	0.10967072 	-3.4519769e-06
0.7628866 	2.4436927 	0.10445984 	-5.2136462e-05
0.77319588 	2.431344 	0.099220762 	-1.350284e-05
0.78350515 	2.4181345 	0.094271077 	-7.0664708e-05
0.79381443 	2.4049662 	0.089195408 	-1.4651499e-05
0.80412371 	2.3907798 	0.084425454 	-5.1694516e-05
0.81443299 	2.3765088 	0.079543017 	-9.6621761e-06
0.82474227 	2.3611917 	0.074873745 	-2.8985662e-06
0.83505155 	2.3453847 	0.070194752 	-4.3163404e-07
0.84536082 	2.3287881 	0.065468255 	-1.0376864e-05
0.8556701 	2.3108142 	0.060974281 	-6.8230945e-05
0.86597938 	2.2921995 	0.056362191 	-8.2644869e-06
0.87628866 	2.2720011 	0.051871847 	-7.0576012e-06
0.88659794 	2.2501328 	0.047475015 	-3.6050189e-05
0.89690722 	2.226745 	0.043040801 	-1.6029441e-06
0.90721649 	2.2012196 	0.03857605 	-9.696719e-06
0.91752577 	2.1726173 	0.034201581 	-9.2538983e-06
0.92783505 	2.1401932 	0.029859648 	-5.2631181e-06
0.93814433 	2.1029268 	0.025497596 	-3.4572663e-06
0.94845361 	2.0603915 	0.021256896 	-3.5960261e-06
0.95876289 	2.0037185 	0.016684484 	-4.5628011e-06
0.96907216 	1.9302609 	0.012182381 	-6.8865303e-06
0.97938144 	1.816943 	0.0075888687 	-3.5740065e-06
0.98969072 	1.5707567 	0.0029934915 	-3.4141552e-06
