0.47916667 	0.057558835 	-0.015603803 	-1.4307094e-07 	0.055760266 	9.0963398e-07 	0.029256379
0.48958333 	0.053889305 	-0.014654495 	-9.8312498e-08 	0.052066204 	6.7396537e-07 	0.0047572545
0.5 	0.045584739 	-0.012520899 	8.9371515e-07 	0.043967349 	-3.2691757e-06 	0.023643692
0.51041667 	0.036669437 	-0.010126936 	1.1399984e-05 	0.035282633 	-3.9313885e-05 	0.018990901
0.52083333 	0.028351714 	-0.0075418459 	-1.6539122e-06 	0.027271608 	4.7043824e-06 	0.0035986109
0.53125 	0.021570209 	-0.0050196448 	-8.7927634e-07 	0.020885089 	2.0965274e-06 	0.0066110769
0.54166667 	0.017018826 	-0.0029677361 	2.6008167e-06 	0.016665519 	-4.743256e-06 	0.0084513719
0.55208333 	0.014664987 	-0.0015440439 	4.5853577e-06 	0.014511848 	-5.5167993e-06 	0.007466361
0.5625 	0.013808169 	-0.0005082452 	2.9215495e-06 	0.01376365 	-1.4373894e-06 	0.0071378991
0.57291667 	0.013736003 	0.00030237999 	-3.9678252e-08 	0.013744133 	5.0612152e-09 	0.0069534925
0.58333333 	0.014011187 	0.00094543565 	-5.6268439e-07 	0.014032639 	-2.117984e-07 	0.0034309786
0.59375 	0.014409414 	0.0014736449 	-6.7369467e-07 	0.01443142 	-4.9918994e-07 	0.0017500608
0.60416667 	0.014848493 	0.0019179979 	7.4412781e-07 	0.014876902 	3.5098687e-07 	0.0076670008
0.61458333 	0.015302406 	0.0023022996 	3.4910673e-06 	0.015321299 	1.9712331e-06 	0.0079783331
0.625 	0.015751688 	0.0026448798 	-3.1471897e-07 	0.015751437 	-3.6926375e-07 	0.0045247104
0.63541667 	0.016181239 	0.0029487545 	-1.660073e-07 	0.01617057 	-2.1272336e-07 	0.0061392822
0.64583333 	0.016590483 	0.0032205947 	2.6100459e-06 	0.01657069 	1.5022913e-06 	0.0086259467
0.65625 	0.016985004 	0.0034675753 	-4.544992e-07 	0.016938676 	-6.1425739e-07 	0.0020631185
0.66666667 	0.017349042 	0.0036873669 	1.1663133e-06 	0.017302787 	5.8575457e-07 	0.0089452659
0.67708333 	0.017697516 	0.0038864256 	-1.1669653e-07 	0.01763526 	-1.6380852e-07 	0.0072697626
0.6875 	0.018021559 	0.0040632002 	-1.3650161e-08 	0.017950667 	-1.9817626e-08 	0.0089979266
0.69791667 	0.018326416 	0.0042212519 	5.305381e-08 	0.018245137 	1.1276598e-09 	0.0095486409
0.70833333 	0.018610645 	0.0043599103 	-5.910571e-08 	0.018515999 	-8.8993162e-08 	0.0082436033
0.71875 	0.018877589 	0.0044844584 	3.4982825e-09 	0.018775385 	-3.1652107e-09 	0.0098269508
0.72916667 	0.019122404 	0.0045907113 	1.8603001e-08 	0.019009996 	-1.6831808e-08 	0.0098273981
0.73958333 	0.019356862 	0.0046853614 	-7.4669427e-08 	0.019230329 	-1.1729332e-07 	0.0079928468
0.75 	0.019575556 	0.0047682042 	8.0715992e-08 	0.019442295 	-3.5251828e-07 	0.010080108
0.76041667 	0.019786248 	0.0048404904 	-1.0476359e-07 	0.019634311 	-1.72399e-07 	0.0064244908
0.77083333 	0.019993205 	0.004908158 	-8.6632395e-09 	0.019835853 	-4.656626e-07 	0.01030047
0.78125 	0.020196405 	0.0049687421 	-5.3029369e-08 	0.020019118 	-9.1378332e-08 	0.0075137257
0.79166667 	0.020402274 	0.0050281133 	-7.2083371e-09 	0.020214083 	-6.8774206e-08 	0.010498013
0.80208333 	0.020618165 	0.0050881533 	-8.4585776e-09 	0.020410504 	-1.2978499e-07 	0.010690486
0.8125 	0.020848706 	0.0051504916 	1.6750154e-08 	0.02060761 	3.4352052e-08 	0.0053493566
0.82291667 	0.021108643 	0.0052253967 	1.8924294e-07 	0.020850167 	-3.2167333e-07 	0.010897018
0.83333333 	0.021403743 	0.0053107121 	9.4713912e-08 	0.02110066 	1.9406779e-07 	0.0047774783
0.84375 	0.021751419 	0.0054181557 	4.5106857e-08 	0.021418105 	9.6506564e-08 	0.009533342
0.85416667 	0.022181059 	0.0055564635 	1.1123715e-06 	0.021803597 	1.9891141e-06 	0.01142817
0.86458333 	0.022701893 	0.0057281354 	1.0891007e-07 	0.02226414 	2.4459363e-07 	0.0090775365
0.875 	0.023356649 	0.0059475436 	5.5004674e-07 	0.022838743 	1.3013527e-06 	0.0016302438
0.88541667 	0.024181346 	0.0062310136 	1.2448488e-07 	0.023602487 	3.1133926e-07 	0.010348658
0.89583333 	0.025238284 	0.0065910319 	1.5015923e-06 	0.0245743 	3.6827825e-06 	0.01283559
0.90625 	0.026580113 	0.0070401515 	3.5073692e-06 	0.025815807 	9.2061858e-06 	0.013550073
0.91666667 	0.028273211 	0.0075919923 	4.7316621e-06 	0.027398111 	1.3257111e-05 	0.014412652
0.92708333 	0.030388661 	0.0082573555 	4.25492e-06 	0.029394957 	1.2695189e-05 	0.015425682
0.9375 	0.032976749 	0.0090379842 	1.2678135e-06 	0.031861183 	4.0131778e-06 	0.016577521
0.94791667 	0.036047872 	0.0099192408 	6.2979105e-07 	0.034792841 	2.2859234e-06 	0.0064773187
0.95833333 	0.039532558 	0.010900458 	7.4439561e-08 	0.038186738 	2.8818239e-07 	0.018674102
0.96875 	0.043067009 	0.011716154 	5.0075308e-07 	0.041626582 	2.2057479e-06 	0.00093699573
0.97916667 	0.046258094 	0.012480843 	4.8000451e-07 	0.044814464 	2.2052056e-06 	0.023538739
0.98958333 	0.046336297 	0.012482924 	-1.0677492e-06 	0.04492442 	-4.4931762e-06 	0.023750569
