4.1667976e-36 	0.34900598 	-2.3702709e-14 	-8.6153074e-21
0.010869565 	0.35594062 	-0.009440426 	4.4935087e-07
0.02173913 	0.36825813 	-0.01927898 	2.219697e-08
0.032608696 	0.38590741 	-0.030892706 	9.0375275e-05
0.043478261 	0.41012894 	-0.039988603 	2.7344694e-07
0.054347826 	0.43852139 	-0.054860455 	0.00024812113
0.065217391 	0.47705043 	-0.064422809 	0.00011634299
0.076086957 	0.51683474 	-0.076867308 	0.00021783821
0.086956522 	0.56737303 	-0.084922937 	7.3959048e-06
0.097826087 	0.62408206 	-0.095428461 	4.0306182e-05
0.10869565 	0.68656804 	-0.1057395 	5.011457e-06
0.11956522 	0.75879233 	-0.11525906 	2.3156326e-05
0.13043478 	0.83647564 	-0.1236305 	0.00010663633
0.14130435 	0.91852994 	-0.13211802 	5.9226546e-05
0.15217391 	1.0086349 	-0.13762692 	0.00015741314
0.16304348 	1.1002655 	-0.14322253 	6.99757e-05
0.17391304 	1.1953793 	-0.14738381 	0.00015900452
0.18478261 	1.2919216 	-0.15072626 	7.7726163e-05
0.19565217 	1.3881164 	-0.15297348 	0.00016722731
0.20652174 	1.4852804 	-0.15426232 	2.6805589e-05
0.2173913 	1.5773457 	-0.15484947 	0.00021295974
0.22826087 	1.6675856 	-0.15299399 	0.00011855097
0.23913043 	1.7546646 	-0.15380329 	0.0002675681
0.25 	1.8366092 	-0.15219373 	7.0605929e-05
0.26086957 	1.915206 	-0.1506734 	8.3882479e-05
0.27173913 	1.986041 	-0.14908921 	9.3907532e-05
0.2826087 	2.0522372 	-0.14555455 	0.00018379391
0.29347826 	2.1149552 	-0.14406246 	0.00018087315
0.30434783 	2.1714123 	-0.14168904 	6.5164191e-05
0.31521739 	2.2234998 	-0.13851033 	0.00013151668
0.32608696 	2.2715633 	-0.1361038 	0.00018830656
0.33695652 	2.3141894 	-0.13363321 	0.00015146133
0.34782609 	2.3541548 	-0.13061926 	0.00015675754
0.35869565 	2.3910749 	-0.12771404 	0.00015016417
0.36956522 	2.4227779 	-0.12549412 	0.00014580218
0.38043478 	2.4520095 	-0.12289317 	0.00024220367
0.39130435 	2.4804367 	-0.11936379 	5.0161702e-05
0.40217391 	2.5034504 	-0.11709853 	6.9019094e-05
0.41304348 	2.5236035 	-0.11557799 	0.0003683197
0.42391304 	2.5436292 	-0.11174037 	0.0001004865
0.43478261 	2.5607476 	-0.10877462 	4.5298435e-05
0.44565217 	2.573695 	-0.10718609 	0.00021665115
0.45652174 	2.5858401 	-0.10486748 	0.00028011425
0.4673913 	2.5977318 	-0.10119678 	4.6126969e-05
0.47826087 	2.6063363 	-0.098722886 	2.728324e-05
0.48913043 	2.6119662 	-0.097374049 	0.00025908029
0.5 	2.6175089 	-0.094853004 	0.0002499049
0.51086957 	2.6229768 	-0.091327514 	3.4244217e-05
0.52173913 	2.6255132 	-0.08918493 	6.7313921e-05
0.5326087 	2.6263479 	-0.087850888 	0.00027553682
0.54347826 	2.6269213 	-0.085150791 	0.00020669166
0.55434783 	2.627329 	-0.081774642 	2.9065714e-06
0.56521739 	2.6252496 	-0.080135124 	0.00012970435
0.57608696 	2.6227578 	-0.078698129 	0.00031231337
0.58695652 	2.6194748 	-0.075509112 	0.00010861061
0.59782609 	2.6155694 	-0.072976452 	3.87153e-05
0.60869565 	2.6106598 	-0.071566783 	0.0002288222
0.61956522 	2.6049708 	-0.06911261 	0.0001641376
0.63043478 	2.598764 	-0.066280905 	3.8491855e-06
0.64130435 	2.5917782 	-0.064797732 	0.0001763487
0.65217391 	2.5840306 	-0.062648212 	0.00017210719
0.66304348 	2.5754866 	-0.059898368 	6.9906985e-06
0.67391304 	2.5664443 	-0.058342781 	0.0001638844
0.68478261 	2.5563858 	-0.056171562 	0.00014100061
0.69565217 	2.5454155 	-0.053689386 	1.8370308e-05
0.70652174 	2.5341321 	-0.052088265 	0.00018470993
0.7173913 	2.5211032 	-0.049710922 	7.8128835e-05
0.72826087 	2.5074254 	-0.047610825 	7.3547114e-05
0.73913043 	2.4929888 	-0.045749637 	0.00015770943
0.75 	2.4765464 	-0.043312306 	1.582806e-06
0.76086957 	2.4597109 	-0.041542473 	0.00015064436
0.77173913 	2.4403761 	-0.0392642 	4.2556183e-05
0.7826087 	2.4201634 	-0.037255933 	9.8541196e-05
0.79347826 	2.397746 	-0.035130859 	6.7230065e-05
0.80434783 	2.3735402 	-0.033010191 	7.1855814e-05
0.81521739 	2.3470277 	-0.030903174 	6.8330635e-05
0.82608696 	2.3180456 	-0.028742016 	6.6404516e-05
0.83695652 	2.2861106 	-0.026600351 	4.9872944e-05
0.84782609 	2.2513808 	-0.024386896 	7.8454876e-05
0.85869565 	2.2123071 	-0.022241088 	1.5435665e-05
0.86956522 	2.1705141 	-0.019892287 	9.9783326e-05
0.88043478 	2.1219093 	-0.017747125 	2.3661664e-05
0.89130435 	2.0689766 	-0.015451723 	3.7086554e-05
0.90217391 	2.0106967 	-0.013010205 	7.3294148e-05
0.91304348 	1.943221 	-0.010895289 	2.3590187e-05
0.92391304 	1.8683771 	-0.00874225 	7.9089459e-06
0.93478261 	1.7868776 	-0.0065553924 	2.1072699e-05
0.94565217 	1.6881936 	-0.0045498461 	2.5049388e-06
0.95652174 	1.5833014 	-0.0025038936 	3.5319358e-05
0.9673913 	1.4558531 	-0.0012188261 	1.2736437e-05
0.97826087 	1.3026143 	-0.00024748349 	1.827524e-05
0.98913043 	1.0602443 	5.4198107e-05 	8.9387792e-06
