1.4326613e-19 	0.05995237 	-4.0717843e-15 	-1.4799406e-21 	6.9311572e-18 	-1.0504747e-33 	7.0027257e-18
0.010869565 	0.059448492 	-0.0038591733 	4.3921391e-06 	0.062163352 	-0.00010175303 	0.033442157
0.02173913 	0.058676258 	-0.0047788904 	5.2901397e-06 	0.061302227 	-0.0001120713 	0.030501882
0.032608696 	0.058113045 	-0.0056973778 	2.4937913e-06 	0.060627694 	-5.3846132e-05 	0.027827278
0.043478261 	0.057765341 	-0.0066436889 	3.7046615e-06 	0.060146583 	-8.1238322e-05 	0.025304751
0.054347826 	0.057616168 	-0.0076074163 	4.4585968e-08 	0.059840243 	-1.9305444e-07 	0.021743281
0.065217391 	0.057649135 	-0.008631543 	7.4816192e-07 	0.059653296 	-2.7599372e-06 	0.0039899395
0.076086957 	0.057817011 	-0.0094825425 	4.9877526e-07 	0.059675844 	-8.6093884e-06 	0.018730187
0.086956522 	0.058121378 	-0.010388042 	6.2082939e-06 	0.059772107 	-0.00011364162 	0.016771662
0.097826087 	0.058496182 	-0.011269125 	4.7700049e-06 	0.059925674 	-7.6384188e-05 	0.01489753
0.10869565 	0.058926331 	-0.012122547 	9.3379653e-07 	0.060096884 	-2.5509392e-06 	0.00067286645
0.11956522 	0.059361022 	-0.012901725 	6.9512882e-06 	0.06031241 	-9.2167406e-05 	0.0112461
0.13043478 	0.059777453 	-0.013636623 	6.4994411e-06 	0.060479874 	-6.9178966e-05 	0.0095238668
0.14130435 	0.060159031 	-0.014314842 	2.2078799e-06 	0.060607656 	-2.3500305e-05 	0.0077894448
0.15217391 	0.060434956 	-0.014898209 	1.6264986e-05 	0.060630107 	-0.00013794326 	0.0061597297
0.16304348 	0.0606718 	-0.015449666 	3.49657e-07 	0.060605671 	-8.5421477e-07 	0.00084455228
0.17391304 	0.060695914 	-0.015861518 	2.141764e-05 	0.060391996 	-0.00014620629 	0.0029940807
0.18478261 	0.060688903 	-0.016255801 	1.5287578e-06 	0.060141072 	-8.5780981e-06 	0.0014651284
0.19565217 	0.060385992 	-0.016488228 	2.7931267e-05 	0.059612013 	-0.00015672669 	0.00016035523
0.20652174 	0.060084864 	-0.016721476 	6.8883057e-08 	0.059088666 	-1.5693853e-07 	0.0008282741
0.2173913 	0.059391446 	-0.016760829 	3.5648259e-05 	0.058205582 	-0.00016872065 	0.0027998152
0.22826087 	0.058694768 	-0.016798668 	4.0627327e-06 	0.057318044 	-1.9228623e-05 	0.0040640607
0.23913043 	0.057612471 	-0.016656894 	3.0149384e-05 	0.05607937 	-0.00012351648 	0.0050208077
0.25 	0.056432891 	-0.016469883 	1.7024617e-05 	0.054753542 	-6.9746723e-05 	0.0061213844
0.26086957 	0.055019294 	-0.016176489 	1.3644143e-05 	0.053217627 	-4.9481135e-05 	0.0066934151
0.27173913 	0.053300339 	-0.015742886 	4.1347186e-05 	0.051413682 	-0.00014994754 	0.0076151289
0.2826087 	0.051542008 	-0.015292141 	2.146946e-07 	0.049565958 	-3.6536184e-07 	0.0045097422
0.29347826 	0.049369119 	-0.01464602 	3.6396589e-05 	0.047378314 	-0.00011886235 	0.0084055497
0.30434783 	0.04710982 	-0.013958029 	2.8932154e-05 	0.045111973 	-9.4485335e-05 	0.009138206
0.31521739 	0.044704349 	-0.013201517 	8.3097676e-08 	0.042710157 	-2.4280918e-08 	0.004722232
0.32608696 	0.04205674 	-0.012307195 	5.083737e-05 	0.040143304 	-0.00015138064 	0.0089226457
0.33695652 	0.039375291 	-0.011394945 	2.2732519e-05 	0.037541736 	-6.7691606e-05 	0.0094656273
0.34782609 	0.036562527 	-0.010409361 	-9.7995428e-08 	0.034828671 	3.6265916e-07 	0.0050518133
0.35869565 	0.033796024 	-0.0093984591 	4.9578952e-05 	0.032212435 	-0.00013691715 	0.0082820427
0.36956522 	0.031024813 	-0.0083804982 	2.5204044e-05 	0.029590188 	-6.9603446e-05 	0.0086501181
0.38043478 	0.028242568 	-0.0073373042 	-4.899362e-07 	0.02696075 	1.3658075e-06 	0.0016466003
0.39130435 	0.025829158 	-0.0064006029 	3.0388223e-05 	0.024719206 	-7.9195234e-05 	0.0068775401
0.40217391 	0.023518742 	-0.0054896173 	3.3315485e-05 	0.022568149 	-8.6824019e-05 	0.0071053414
0.41304348 	0.021290902 	-0.0045993557 	-3.4151489e-07 	0.020490389 	9.0571749e-07 	0.003478959
0.42391304 	0.019496768 	-0.0038418366 	5.8521236e-06 	0.018835844 	-1.3721617e-05 	0.0055145507
0.43478261 	0.018099002 	-0.0031842569 	3.8794296e-05 	0.01754601 	-9.0961929e-05 	0.0056517649
0.44565217 	0.016701237 	-0.0025266773 	7.5799504e-06 	0.016256175 	-1.7772894e-05 	0.0057889792
0.45652174 	0.015690246 	-0.0019656335 	-2.9115961e-07 	0.01531729 	7.2416294e-07 	0.0011666138
0.4673913 	0.015025632 	-0.0014962005 	1.0161873e-05 	0.01471412 	-1.6729141e-05 	0.0049580511
0.47826087 	0.014539477 	-0.0010518894 	2.0096908e-05 	0.014268325 	-3.3084847e-05 	0.0050489732
0.48913043 	0.014053322 	-0.00060757831 	1.6189562e-07 	0.013822529 	-2.6652319e-07 	0.0051398953
0.5 	0.013951766 	-0.00022692454 	-6.3805229e-08 	0.013725197 	1.6854351e-07 	0.0021356186
0.51086957 	0.013976272 	0.00014143888 	9.2455233e-06 	0.013754332 	-4.7737161e-06 	0.0051596905
0.52173913 	0.014091773 	0.00050663152 	1.2517335e-05 	0.013861032 	-6.4630417e-06 	0.0052295193
0.5326087 	0.014247091 	0.00086932581 	2.2021534e-08 	0.014001753 	3.2118044e-08 	0.0040385979
0.54347826 	0.014596491 	0.0012259453 	3.5096669e-08 	0.014321392 	5.1187914e-08 	0.0036529327
0.55434783 	0.015048192 	0.0015924958 	1.096015e-05 	0.014739347 	5.1046927e-06 	0.0059026186
0.56521739 	0.01553556 	0.001960002 	6.3815334e-06 	0.015185724 	2.9722008e-06 	0.0059617808
0.57608696 	0.016094915 	0.0023266753 	1.9714127e-07 	0.015689045 	2.519857e-07 	0.0013770686
0.58695652 	0.016746139 	0.0027071258 	2.2576983e-06 	0.016295636 	2.5018006e-06 	0.0068995185
0.59782609 	0.017479427 	0.0030923155 	1.1831656e-05 	0.01696921 	1.3110895e-05 	0.0069514814
0.60869565 	0.018226021 	0.0034773123 	8.5127463e-08 	0.017652295 	1.4714692e-07 	0.0053905608
0.61956522 	0.019059904 	0.0038711417 	1.017966e-07 	0.018421142 	1.7596033e-07 	0.0058810109
0.63043478 	0.01996695 	0.0042755022 	1.2086277e-05 	0.019264474 	1.8966945e-05 	0.0081437684
0.64130435 	0.020886216 	0.0046797778 	2.3442663e-07 	0.02011573 	3.6788474e-07 	0.0081896293
0.65217391 	0.0218785 	0.0050899766 	1.9925161e-07 	0.02103239 	4.3311457e-07 	0.0050802609
0.66304348 	0.022935219 	0.0055135147 	1.0513873e-05 	0.022027258 	2.0269194e-05 	0.0094686028
0.67391304 	0.024006207 	0.0059356349 	1.091968e-08 	0.023028536 	2.8438114e-08 	0.0092691495
0.68478261 	0.025140552 	0.0063648651 	1.3738402e-07 	0.024090702 	3.5778911e-07 	0.0074154945
0.69565217 	0.026325654 	0.0067988148 	1.054921e-05 	0.025216757 	2.3731707e-05 	0.010875551
0.70652174 	0.027520226 	0.007226515 	1.5292058e-07 	0.026339751 	4.817194e-07 	0.0063834933
0.7173913 	0.028772729 	0.0076630189 	1.4957702e-06 	0.027543022 	3.8369269e-06 	0.012282781
0.72826087 	0.030034372 	0.008087297 	4.5842514e-06 	0.028751069 	1.1759452e-05 	0.01231217
0.73913043 	0.03129996 	0.0085014479 	1.9039812e-07 	0.029949381 	7.8705897e-07 	0.0028017536
0.75 	0.032594253 	0.0089179765 	7.0718133e-06 	0.03122117 	2.0325576e-05 	0.013685577
0.76086957 	0.033856998 	0.0093115342 	2.6475314e-08 	0.032435785 	2.7374761e-07 	0.0076045754
0.77173913 	0.035120015 	0.0096964292 	2.2566834e-06 	0.033684203 	7.3317323e-06 	0.01495962
0.7826087 	0.036327957 	0.010052588 	3.0355645e-07 	0.034872315 	9.8622367e-07 	0.014979337
0.79347826 	0.037495491 	0.010384691 	2.2800066e-07 	0.036031741 	8.899572e-07 	0.016069263
0.80434783 	0.038563165 	0.010674262 	9.0955364e-07 	0.037100851 	3.5502696e-06 	0.016084709
0.81521739 	0.039565914 	0.010934329 	-1.5034058e-08 	0.038114554 	-2.2056642e-08 	0.016309963
0.82608696 	0.040423495 	0.011138315 	2.8561732e-07 	0.038996508 	1.8440543e-06 	0.016973882
0.83695652 	0.041169916 	0.011298241 	-1.3861874e-07 	0.039777625 	3.3036163e-07 	0.017604346
0.84782609 	0.041744434 	0.011395591 	-8.6787049e-08 	0.04039255 	-2.030959e-07 	0.015711106
0.85869565 	0.04213669 	0.011427518 	-1.9326735e-06 	0.040844637 	-2.3770114e-06 	0.017981277
0.86956522 	0.042346291 	0.01139347 	-8.2635634e-07 	0.041086468 	-2.1113558e-06 	0.0022076507
0.88043478 	0.042335568 	0.011292232 	-3.2553052e-06 	0.041176823 	-6.343355e-06 	0.018096527
0.89130435 	0.042116261 	0.011120519 	-8.6821471e-07 	0.041032226 	-2.0191739e-06 	0.017965396
0.90217391 	0.041636891 	0.010870008 	-6.9744022e-07 	0.040605129 	-2.0412212e-06 	0.0057309543
0.91304348 	0.040896439 	0.010554621 	-3.5841738e-06 	0.039961964 	-9.4866333e-06 	0.017615901
0.92391304 	0.039908163 	0.010175198 	-5.6518441e-06 	0.039041014 	-1.5688869e-05 	0.017070553
0.93478261 	0.038643283 	0.0096924016 	-1.4488913e-06 	0.037843292 	-4.2501869e-06 	0.016449981
0.94565217 	0.036966041 	0.0091472472 	-5.7250249e-06 	0.036218613 	-1.9385049e-05 	0.015886139
0.95652174 	0.035023868 	0.0085963915 	-3.8830846e-07 	0.034286185 	-1.6590499e-06 	0.0041360945
0.9673913 	0.032620839 	0.0080143588 	-1.1267375e-06 	0.031915587 	-4.8851289e-06 	0.01412363
0.97826087 	0.029552473 	0.0073912241 	-1.1795992e-07 	0.028824235 	-7.932098e-07 	0.0034754243
0.98913043 	0.023852816 	0.0062832913 	-8.2525158e-09 	0.023158813 	-2.0580343e-07 	0.0023152756
