0.47777778 	0.053092738 	-0.014472254 	1.8056121e-08 	0.05139597 	-6.1568501e-08 	0.0042448406
0.48888889 	0.05442416 	-0.014631193 	3.012765e-06 	0.052706212 	-1.1706744e-05 	0.0074016006
0.5 	0.049583659 	-0.013421037 	5.9138635e-06 	0.047960843 	-2.238138e-05 	0.0067739594
0.51111111 	0.044011895 	-0.012038959 	1.1357927e-05 	0.042505686 	-4.2683048e-05 	0.006055747
0.52222222 	0.038439828 	-0.010491067 	2.4667631e-06 	0.037095204 	-8.33391e-06 	0.0049818109
0.53333333 	0.033066467 	-0.0089216287 	2.0507564e-05 	0.031905287 	-6.6360894e-05 	0.0044150564
0.54444444 	0.028159686 	-0.0073856378 	2.1769423e-05 	0.027196417 	-6.5195919e-05 	0.0038559988
0.55555556 	0.023903454 	-0.0058867403 	1.5884692e-05 	0.023153253 	-4.225142e-05 	0.003329434
0.56666667 	0.020441661 	-0.0044719848 	1.4231034e-05 	0.019904392 	-3.2924146e-05 	0.0028633441
0.57777778 	0.017829773 	-0.0032130015 	1.5804134e-05 	0.01747994 	-3.1355047e-05 	0.0024817212
0.58888889 	0.016022736 	-0.0021442877 	1.9126405e-05 	0.015818569 	-3.0843441e-05 	0.0022011348
0.6 	0.014895237 	-0.0012447109 	1.4932797e-05 	0.014794516 	-1.7031741e-05 	0.0020283705
0.61111111 	0.014289252 	-0.00047614844 	5.1370035e-06 	0.01425684 	-3.352137e-06 	0.0019534018
0.62222222 	0.014079482 	0.00018351653 	-8.2950213e-08 	0.014084611 	1.1564372e-08 	0.0010897918
0.63333333 	0.01416865 	0.00073311107 	8.2884673e-06 	0.014189362 	-2.0021292e-06 	0.0019502119
0.64444444 	0.014379646 	0.0012240072 	8.2401812e-06 	0.014402837 	7.3628168e-07 	0.001993707
0.65555556 	0.014680874 	0.001667362 	-9.1237735e-08 	0.014695084 	-6.1598857e-08 	0.00065112002
0.66666667 	0.015068298 	0.0020438839 	6.9448586e-06 	0.015069333 	2.528526e-06 	0.0020677277
0.67777778 	0.015484336 	0.0023964866 	3.7199568e-06 	0.015466385 	2.2530087e-06 	0.0021617126
0.68888889 	0.015932075 	0.0027184391 	2.3418477e-06 	0.015891164 	1.4183507e-06 	0.0021625224
0.7 	0.016406852 	0.0030157554 	5.900417e-06 	0.01633966 	4.9243556e-06 	0.0022731651
0.71111111 	0.016893292 	0.0033020915 	3.9648196e-07 	0.016798058 	3.3089494e-07 	0.0022740389
0.72222222 	0.017405369 	0.0035673373 	6.3470147e-06 	0.017278672 	6.7211048e-06 	0.0024013299
0.73333333 	0.017921202 	0.0038277723 	1.3106809e-07 	0.017762171 	1.3879319e-07 	0.0024022516
0.74444444 	0.018480795 	0.0040814845 	6.0066195e-06 	0.018285163 	8.0150548e-06 	0.0025449064
0.75555556 	0.019045274 	0.0043328581 	-3.5969415e-12 	0.018812201 	2.2070415e-11 	0.002543588
0.76666667 	0.019678803 	0.0045916047 	6.2919995e-06 	0.01940273 	1.0336566e-05 	0.002698799
0.77777778 	0.020325358 	0.0048508884 	1.9858601e-08 	0.020000342 	7.6111842e-08 	0.00031021471
0.78888889 	0.021055342 	0.0051274609 	5.2930294e-06 	0.020684643 	1.0140681e-05 	0.0028615106
0.8 	0.021820531 	0.0054111022 	1.6922474e-06 	0.021397404 	3.658318e-06 	0.0030348163
0.81111111 	0.022666019 	0.0057132718 	2.1806585e-06 	0.022185313 	4.7141703e-06 	0.0030363183
0.82222222 	0.023602648 	0.0060382404 	6.2954062e-06 	0.023060232 	1.497994e-05 	0.0032241336
0.83333333 	0.024609069 	0.0063806814 	7.6791453e-07 	0.024001872 	1.9768601e-06 	0.0034278746
0.84444444 	0.02574492 	0.0067555104 	1.9247601e-06 	0.025067773 	4.9549543e-06 	0.0034299065
0.85555556 	0.027010044 	0.0071621407 	6.6740943e-06 	0.026259845 	1.8376356e-05 	0.0036504066
0.86666667 	0.028396273 	0.0075974859 	5.5521253e-06 	0.027570596 	1.6226546e-05 	0.0038866741
0.87777778 	0.029921972 	0.0080647261 	2.2225333e-06 	0.029018865 	6.8583599e-06 	0.0041367816
0.88888889 	0.031602794 	0.0085652088 	2.0586961e-08 	0.030619873 	7.2458721e-08 	0.0036496763
0.9 	0.033447975 	0.0090973893 	1.0133171e-07 	0.032380884 	3.7064738e-07 	0.00060721449
0.91111111 	0.0354506 	0.0096585094 	9.5664103e-08 	0.034306866 	3.6390846e-07 	0.00061792309
0.92222222 	0.037598291 	0.010242944 	1.1204691e-09 	0.036389643 	4.4341815e-09 	0.0051459064
0.93333333 	0.039860823 	0.01083833 	2.7247365e-06 	0.038584034 	1.0404346e-05 	0.0054655821
0.94444444 	0.042189549 	0.011436303 	6.5507505e-06 	0.040849106 	2.5532245e-05 	0.0057155282
0.95555556 	0.044510383 	0.01203528 	8.8704228e-07 	0.043108942 	3.3489108e-06 	0.005948952
0.96666667 	0.046572776 	0.012470716 	1.7508728e-06 	0.045140744 	1.1202573e-05 	0.0063089093
0.97777778 	0.04819411 	0.012834042 	1.4129832e-07 	0.04673483 	8.4844749e-07 	0.0065423492
0.98888889 	0.047128924 	0.01260737 	-3.119112e-06 	0.045691627 	-1.3737269e-05 	0.0063681794
