4.0776948e-36 	0.061366299 	-4.1676866e-15 	-1.5148438e-21 	2.8304805e-28 	1.0288048e-34 	3.739433e-41
0.010869565 	0.060947972 	-0.0036508496 	6.8762725e-06 	0.064066044 	-0.00019129229 	0.024946525
0.02173913 	0.060374927 	-0.0048410416 	5.9410775e-06 	0.063398599 	-0.00015209922 	0.027803796
0.032608696 	0.060057622 	-0.0060213248 	1.3415693e-06 	0.062958184 	-3.4698041e-05 	0.030619956
0.043478261 	0.059999236 	-0.0072171669 	2.8185637e-06 	0.062748386 	-7.2375339e-05 	0.033404724
0.054347826 	0.060168964 	-0.008416738 	8.1273787e-07 	0.062703986 	-2.778598e-06 	0.018205595
0.065217391 	0.060569481 	-0.0096665577 	1.7271778e-06 	0.062856091 	-5.3408618e-06 	0.0072238568
0.076086957 	0.06104931 	-0.010701196 	1.4961526e-06 	0.063144173 	-4.2551907e-06 	0.018767075
0.086956522 	0.061667026 	-0.011782416 	1.0818666e-06 	0.06356715 	-2.0290809e-05 	0.04472694
0.097826087 	0.062385555 	-0.012836217 	4.3139056e-07 	0.064011143 	-1.1550342e-06 	0.041961248
0.10869565 	0.063134591 	-0.013834205 	3.9782979e-06 	0.064396074 	-1.0228017e-05 	0.0032157949
0.11956522 	0.063827357 	-0.014742652 	8.1744293e-07 	0.064883307 	-2.0397414e-06 	0.044240497
0.13043478 	0.064495778 	-0.015588147 	1.619854e-06 	0.065237479 	-4.0419743e-06 	0.038199216
0.14130435 	0.065051461 	-0.01634 	4.2944745e-06 	0.065438828 	-1.0443548e-05 	0.014051745
0.15217391 	0.065521944 	-0.017022912 	2.1058617e-08 	0.065702156 	-5.1211545e-08 	0.060507407
0.16304348 	0.065758026 	-0.017564999 	5.9457438e-06 	0.065518102 	-1.4077672e-05 	0.0031561227
0.17391304 	0.065922794 	-0.01806044 	3.0980643e-07 	0.065509366 	-7.0997059e-07 	0.061580295
0.18478261 	0.06572141 	-0.018370858 	5.6874532e-06 	0.064915845 	-1.3033701e-05 	0.0082054375
0.19565217 	0.065490005 	-0.018660747 	2.9465932e-07 	0.064517728 	-6.4544326e-07 	0.060178308
0.20652174 	0.064751602 	-0.01871642 	5.2842783e-06 	0.063417973 	-1.1575068e-05 	0.0042765079
0.2173913 	0.064066244 	-0.018789439 	2.2023587e-06 	0.062602522 	-9.4312917e-06 	0.058081384
0.22826087 	0.062723891 	-0.018573127 	3.8723457e-06 	0.060963301 	-7.8952304e-06 	0.0078922656
0.23913043 	0.061457058 	-0.018382909 	7.3512761e-07 	0.059579971 	-1.4988336e-06 	0.043284124
0.25 	0.059623914 	-0.017945942 	1.4208599e-06 	0.057575576 	-2.4925051e-06 	0.025922828
0.26086957 	0.057620402 	-0.017429371 	1.4958507e-06 	0.055451064 	-2.6240557e-06 	0.021287775
0.27173913 	0.055487855 	-0.016851075 	2.4819946e-06 	0.053277381 	-8.3145773e-06 	0.04387129
0.2826087 	0.052680684 	-0.015971925 	9.1916764e-07 	0.050378548 	-5.4036455e-07 	0.0018888008
0.29347826 	0.050126052 	-0.015192071 	8.2599241e-08 	0.047871275 	-4.8558826e-08 	0.033082253
0.30434783 	0.047078707 	-0.014179087 	-2.1625773e-07 	0.044873618 	7.9919377e-07 	0.027332019
0.31521739 	0.043792288 	-0.013044989 	-7.2415514e-07 	0.041652618 	2.6761599e-06 	0.0061817753
0.32608696 	0.040714395 	-0.011988137 	1.3075978e-05 	0.038720815 	-3.6912934e-05 	0.027478749
0.33695652 	0.037395725 	-0.010792716 	-6.550075e-07 	0.035552476 	1.7469813e-06 	0.018668957
0.34782609 	0.034063469 	-0.0095684439 	-1.4913055e-06 	0.032388532 	3.9774856e-06 	0.0057771541
0.35869565 	0.030996927 	-0.0084435113 	1.5966918e-05 	0.029529645 	-4.2942944e-05 	0.019403308
0.36956522 	0.028090776 	-0.0073510852 	-3.5900137e-07 	0.026809848 	8.8578369e-07 	0.015701105
0.38043478 	0.025367321 	-0.0063059989 	-1.6964611e-06 	0.024258589 	4.1857711e-06 	0.0022265117
0.39130435 	0.022901415 	-0.0053608407 	5.1617306e-06 	0.021992128 	-1.3257307e-05 	0.013171196
0.40217391 	0.020860296 	-0.0045352954 	7.1514676e-06 	0.020104399 	-1.8367717e-05 	0.012914754
0.41304348 	0.019166159 	-0.0038054395 	-9.5887089e-07 	0.01852356 	2.1143407e-06 	0.0023984625
0.42391304 	0.017659494 	-0.0031493813 	-2.7854181e-07 	0.017145229 	6.1419351e-07 	0.0071843136
0.43478261 	0.016513947 	-0.0025835718 	1.9379821e-05 	0.016095129 	-4.3605791e-05 	0.0092855333
0.44565217 	0.015571508 	-0.0020641133 	-9.5612964e-08 	0.01522459 	1.1808979e-07 	0.0071461498
0.45652174 	0.014950703 	-0.0016220601 	-3.4794226e-07 	0.014644414 	4.2973702e-07 	0.001535286
0.4673913 	0.014407749 	-0.001216403 	2.430779e-06 	0.014157728 	-3.6891764e-06 	0.0076613302
0.47826087 	0.014115695 	-0.00084634661 	1.0138146e-05 	0.013890112 	-1.5386594e-05 	0.0075513387
0.48913043 	0.013924386 	-0.0004885826 	-1.8836514e-08 	0.013710181 	-1.0388693e-07 	0.0047550482
0.5 	0.013901302 	-0.00015472788 	-3.3790195e-08 	0.013686119 	-1.8635931e-07 	0.0025051552
0.51086957 	0.013932766 	0.00017061085 	4.7345787e-06 	0.013724951 	-2.4369842e-06 	0.0072084023
0.52173913 	0.014078009 	0.00049100533 	6.9572635e-06 	0.013858742 	-3.5810455e-06 	0.0071239354
0.5326087 	0.014301779 	0.00081010268 	6.7878379e-08 	0.014058084 	-1.4069032e-07 	0.0037202752
0.54347826 	0.014620616 	0.001133483 	6.6245934e-08 	0.014351348 	-1.3730678e-07 	0.0040280416
0.55434783 	0.015004121 	0.0014639041 	7.8879545e-06 	0.014709241 	2.6317883e-06 	0.0074627745
0.56521739 	0.015432063 	0.0017950755 	3.0068591e-06 	0.015100865 	1.003228e-06 	0.0073931139
0.57608696 	0.015946573 	0.0021305916 	2.4743967e-07 	0.015559269 	1.5226544e-08 	0.0010124365
0.58695652 	0.016509532 	0.0024810503 	7.7367122e-07 	0.01608727 	7.1075069e-07 	0.008143489
0.59782609 	0.017146007 	0.0028355911 	8.7932693e-06 	0.016669873 	8.0781371e-06 	0.0080843091
0.60869565 	0.017810509 	0.0031921427 	1.6249924e-07 	0.017272605 	1.7538941e-07 	0.0049019994
0.61956522 	0.018551415 	0.0035629546 	1.313459e-07 	0.01795442 	1.4176484e-07 	0.0061779434
0.63043478 	0.019354158 	0.0039446008 	1.0773548e-05 	0.018697952 	1.4730373e-05 	0.0089915491
0.64130435 	0.0201798 	0.0043272971 	7.213774e-08 	0.019455801 	1.2444793e-07 	0.0077098525
0.65217391 	0.02109044 	0.0047237781 	2.4187423e-07 	0.020292826 	4.1726767e-07 	0.0054161172
0.66304348 	0.022063135 	0.005135673 	9.9776705e-06 	0.021202983 	1.7368902e-05 	0.010067889
0.67391304 	0.02306076 	0.0055481615 	9.3548624e-08 	0.022126228 	2.050895e-07 	0.0084374086
0.68478261 	0.024142026 	0.0059759753 	1.8783666e-07 	0.023133121 	4.1180003e-07 	0.0077055539
0.69565217 	0.025287235 	0.006416915 	9.9444296e-06 	0.024212001 	2.0567954e-05 	0.011285408
0.70652174 	0.026458319 	0.0068559804 	2.9911481e-07 	0.025300825 	7.8084862e-07 	0.0055982218
0.7173913 	0.027712167 	0.0073146529 	1.5693513e-06 	0.026496494 	3.7330448e-06 	0.01264098
0.72826087 	0.029007574 	0.0077726599 	4.2671229e-06 	0.027723937 	1.0150284e-05 	0.012611717
0.73913043 	0.030331254 	0.0082248749 	3.9281972e-07 	0.028966836 	1.2211207e-06 	0.0034112904
0.75 	0.031723859 	0.0086931703 	8.6752462e-06 	0.030319241 	2.3271102e-05 	0.014019348
0.76086957 	0.033110595 	0.0091446161 	1.8783342e-07 	0.031637974 	7.3473471e-07 	0.0067623414
0.77173913 	0.034537437 	0.0095986866 	3.1374951e-06 	0.033034058 	9.4057805e-06 	0.015404603
0.7826087 	0.035953162 	0.010037185 	3.0175336e-09 	0.034408833 	2.1323697e-08 	0.015046383
0.79347826 	0.037344569 	0.010452352 	4.0915223e-07 	0.035775149 	1.392868e-06 	0.016691823
0.80434783 	0.038698057 	0.010843797 	1.1291416e-06 	0.037110359 	3.8439121e-06 	0.016678202
0.81521739 	0.039979334 	0.011199359 	-4.4161794e-09 	0.038387293 	8.6472482e-09 	0.017258113
0.82608696 	0.041172645 	0.011514679 	5.8683758e-07 	0.039589296 	2.4425593e-06 	0.017796284
0.83695652 	0.042230189 	0.01177427 	1.7738442e-07 	0.040671433 	1.3772015e-06 	0.018684149
0.84782609 	0.043147176 	0.011977401 	-1.3087414e-07 	0.041618564 	-2.5262322e-07 	0.015388845
0.85869565 	0.043849892 	0.012101674 	-8.9764057e-07 	0.042382298 	1.4100323e-06 	0.0192812
0.86956522 	0.04435485 	0.012150188 	-9.1200048e-07 	0.04291875 	-2.0735837e-06 	0.0016146186
0.88043478 	0.044608574 	0.012117312 	-2.3828234e-06 	0.043286763 	-3.0710254e-06 	0.019575503
0.89130435 	0.044592499 	0.011990015 	-8.4436871e-07 	0.0433598 	-1.6693771e-06 	0.019569548
0.90217391 	0.044259922 	0.011758081 	-9.1489145e-07 	0.04309657 	-2.4754185e-06 	0.0054577498
0.91304348 	0.043592082 	0.011432222 	-3.4370126e-06 	0.042555062 	-8.1717627e-06 	0.01927227
0.92391304 	0.042590952 	0.011011364 	-6.3483485e-06 	0.041648094 	-1.6285208e-05 	0.018713245
0.93478261 	0.041227701 	0.010457888 	-1.728475e-06 	0.040379585 	-4.7159689e-06 	0.018023959
0.94565217 	0.039340708 	0.0097980048 	-6.6685255e-06 	0.03857377 	-2.0711273e-05 	0.017376649
0.95652174 	0.037087986 	0.0091040317 	-6.0298896e-07 	0.036350276 	-2.3560893e-06 	0.0038853634
0.9673913 	0.034236471 	0.0083518177 	-1.1827502e-06 	0.033549007 	-4.7365465e-06 	0.015277217
0.97826087 	0.03056678 	0.0075527845 	-1.9750392e-07 	0.02985775 	-1.2164834e-06 	0.003279929
0.98913043 	0.024092091 	0.006291547 	-2.0595847e-08 	0.023410676 	-3.3965435e-07 	0.0025798145
