1.4270237e-19 	0.060918617 	-4.1373931e-15 	-1.5037926e-21 	7.066726e-18 	3.9817934e-32 	7.1451235e-18
0.010869565 	0.060470002 	-0.0037027825 	3.5227015e-06 	0.063467173 	-9.3230633e-05 	0.037358006
0.02173913 	0.059821824 	-0.004798042 	4.6047788e-06 	0.06271863 	-0.00011195391 	0.034041251
0.032608696 	0.059415505 	-0.0058911528 	1.4789651e-06 	0.06218543 	-3.6437779e-05 	0.03101937
0.043478261 	0.059250433 	-0.0070016997 	3.4435448e-06 	0.061867759 	-8.4856183e-05 	0.028187715
0.054347826 	0.059304832 	-0.0081212259 	2.569933e-07 	0.061732384 	-9.4919378e-07 	0.019390227
0.065217391 	0.05956941 	-0.0092926757 	8.6423447e-07 	0.061758858 	-2.827741e-06 	0.0060858266
0.076086957 	0.059938967 	-0.010265838 	7.1676315e-08 	0.061954241 	-2.118528e-07 	0.019520516
0.086956522 	0.060460039 	-0.011291422 	5.5990827e-06 	0.062238169 	-0.000104843 	0.018449435
0.097826087 	0.061044064 	-0.012280061 	5.3036145e-06 	0.06256805 	-8.3735929e-05 	0.01629338
0.10869565 	0.061672187 	-0.013230292 	9.8979977e-07 	0.062903426 	-2.5864358e-06 	0.0019458845
0.11956522 	0.062278012 	-0.01409034 	6.8551046e-06 	0.063254736 	-8.6996431e-05 	0.012001957
0.13043478 	0.062843196 	-0.014892784 	7.9285329e-06 	0.063535709 	-7.926043e-05 	0.009977565
0.14130435 	0.06335157 	-0.015630014 	1.8124912e-06 	0.063755089 	-1.811922e-05 	0.0079104929
0.15217391 	0.06370336 	-0.016248467 	1.9413105e-05 	0.06381926 	-0.00015327835 	0.0059782859
0.16304348 	0.064003773 	-0.01683115 	2.147738e-07 	0.063827818 	-5.124217e-07 	0.0018495409
0.17391304 	0.064018091 	-0.017245527 	2.3746787e-05 	0.063570511 	-0.00015076149 	0.0022075276
0.18478261 	0.063983006 	-0.017634506 	3.8680766e-06 	0.063262047 	-2.0267088e-05 	0.00040012415
0.19565217 	0.063597796 	-0.01784405 	3.0188564e-05 	0.062630422 	-0.00015817533 	0.0015188045
0.20652174 	0.063190819 	-0.018043146 	1.7762985e-09 	0.061979177 	-3.9294635e-09 	0.0030895107
0.2173913 	0.062306051 	-0.018016871 	4.1419564e-05 	0.060887912 	-0.00018425798 	0.0046073823
0.22826087 	0.061421183 	-0.01799055 	1.8948228e-06 	0.059796518 	-8.4292589e-06 	0.0061068688
0.23913043 	0.06004298 	-0.017740599 	3.5285717e-05 	0.058257909 	-0.00013682868 	0.0071249857
0.25 	0.05857084 	-0.017447885 	1.6146514e-05 	0.056636645 	-6.2611911e-05 	0.0084195913
0.26086957 	0.056793471 	-0.017018043 	1.5551955e-05 	0.054743328 	-5.371394e-05 	0.0088876535
0.27173913 	0.054688164 	-0.016437987 	4.3448828e-05 	0.052567097 	-0.00015006523 	0.0099574891
0.2826087 	0.052490153 	-0.015817384 	2.7659058e-07 	0.050291289 	-3.2702822e-07 	0.0027924827
0.29347826 	0.049901779 	-0.015006906 	4.0786579e-05 	0.047724096 	-0.0001275472 	0.010541189
0.30434783 	0.047209548 	-0.014145561 	2.7363673e-05 	0.045057105 	-8.5571282e-05 	0.011374479
0.31521739 	0.044327672 	-0.01319235 	-5.8931435e-08 	0.042219415 	3.4285645e-07 	0.0057251937
0.32608696 	0.041306949 	-0.012141561 	5.4608064e-05 	0.039321569 	-0.00015705442 	0.010671986
0.33695652 	0.03825335 	-0.011071859 	1.8362776e-05 	0.036390359 	-5.2811892e-05 	0.011272276
0.34782609 	0.035089137 	-0.0099308222 	-2.9436647e-07 	0.033373216 	8.3287757e-07 	0.0055557636
0.35869565 	0.032143325 	-0.0088416928 	4.8819631e-05 	0.030609905 	-0.00013236623 	0.0094752315
0.36956522 	0.029216322 	-0.007754082 	1.9155317e-05 	0.027861774 	-5.1936422e-05 	0.0098691021
0.38043478 	0.026390889 	-0.0066838714 	-7.4584171e-07 	0.025211471 	1.9120269e-06 	0.0020398774
0.39130435 	0.024029312 	-0.0057629947 	2.6115202e-05 	0.02303008 	-6.7448974e-05 	0.0076693299
0.40217391 	0.021832455 	-0.0048872662 	2.5847706e-05 	0.020994394 	-6.6758099e-05 	0.0079090902
0.41304348 	0.019818427 	-0.0040625255 	-5.1394652e-07 	0.019121828 	1.2193206e-06 	0.0027248458
0.42391304 	0.018232405 	-0.003376705 	2.9431466e-06 	0.017666977 	-6.7402132e-06 	0.0062546035
0.43478261 	0.01704451 	-0.0027880375 	3.0576285e-05 	0.016573726 	-7.0023926e-05 	0.0064025739
0.44565217 	0.015856616 	-0.0021993701 	2.617914e-06 	0.015480474 	-5.9953855e-06 	0.0065505444
0.45652174 	0.01511769 	-0.0017220707 	-2.7544868e-07 	0.014792495 	4.723322e-07 	0.0014070856
0.4673913 	0.014578732 	-0.0013028596 	7.2596507e-06 	0.014306495 	-1.1325259e-05 	0.0058120128
0.47826087 	0.014215315 	-0.00090616719 	1.5076752e-05 	0.013973978 	-2.3520155e-05 	0.0059137551
0.48913043 	0.013901723 	-0.00051681172 	-1.2693418e-08 	0.01368517 	-1.380309e-08 	0.0048797233
0.5 	0.013862497 	-0.00017118987 	-4.1445492e-08 	0.013646047 	-4.5068702e-08 	0.0023760801
0.51086957 	0.013905742 	0.00016610277 	6.9429311e-06 	0.013693997 	-3.4709938e-06 	0.0061239345
0.52173913 	0.014042608 	0.0005013186 	9.1953473e-06 	0.013820595 	-4.5970489e-06 	0.0062030626
0.5326087 	0.014243091 	0.00083333661 	4.9538468e-08 	0.014000684 	-5.8658103e-08 	0.0038180513
0.54347826 	0.014572452 	0.0011648567 	5.5490434e-08 	0.014303181 	-6.5705779e-08 	0.0038953946
0.55434783 	0.014980425 	0.0015062583 	8.8196247e-06 	0.014682818 	3.5043341e-06 	0.0069564596
0.56521739 	0.015431671 	0.0018497077 	3.8766492e-06 	0.015096169 	1.5403233e-06 	0.0070229933
0.57608696 	0.015963098 	0.0021941267 	2.4344926e-07 	0.01557116 	1.0558408e-07 	0.001131523
0.58695652 	0.016550211 	0.0025528529 	7.8520948e-07 	0.016121016 	7.8624209e-07 	0.0080397267
0.59782609 	0.01722489 	0.0029191405 	9.2762324e-06 	0.016739499 	9.2884313e-06 	0.0080974689
0.60869565 	0.017924039 	0.0032860529 	1.6481961e-07 	0.017374921 	2.1155167e-07 	0.0050517633
0.61956522 	0.018693804 	0.0036642223 	1.5279546e-07 	0.018083484 	1.9611826e-07 	0.0060677615
0.63043478 	0.019533692 	0.0040552492 	1.0447269e-05 	0.01886347 	1.5177495e-05 	0.0093965463
0.64130435 	0.020402098 	0.0044475677 	8.8056994e-08 	0.01966202 	1.6456782e-07 	0.0079178378
0.65217391 	0.021340803 	0.0048495053 	2.7891958e-07 	0.02052585 	5.2126678e-07 	0.005297802
0.66304348 	0.022345304 	0.0052677228 	9.2240506e-06 	0.021469229 	1.6781388e-05 	0.010866262
0.67391304 	0.023381201 	0.0056863242 	1.2329597e-07 	0.022429764 	2.8540255e-07 	0.0086926154
0.68478261 	0.02448395 	0.0061166646 	2.3625372e-07 	0.023458165 	5.4687442e-07 	0.0076031906
0.69565217 	0.025649626 	0.0065586493 	9.1787161e-06 	0.024561678 	1.9669239e-05 	0.012466496
0.70652174 	0.026841487 	0.0069963345 	3.1648184e-07 	0.025672118 	8.7030305e-07 	0.0058467682
0.7173913 	0.028101845 	0.0074521906 	4.5933135e-07 	0.026878979 	1.1281772e-06 	0.014118823
0.72826087 	0.029395982 	0.0079005111 	3.342188e-06 	0.028110325 	8.2088456e-06 	0.014151065
0.73913043 	0.03071148 	0.0083416465 	3.904367e-07 	0.029346552 	1.2982295e-06 	0.0032134298
0.75 	0.032080764 	0.0087961172 	7.0860137e-06 	0.03068468 	1.9574665e-05 	0.01582512
0.76086957 	0.033431445 	0.009226873 	1.6742852e-07 	0.031971554 	7.4463264e-07 	0.0070408668
0.77173913 	0.034817877 	0.0096633768 	1.9489027e-06 	0.033335829 	6.0303223e-06 	0.017441523
0.7826087 	0.036157836 	0.010069014 	4.9054705e-09 	0.034640596 	9.2675325e-08 	0.015371971
0.79347826 	0.037489622 	0.010461345 	2.3976556e-09 	0.035954301 	4.5297084e-08 	0.017806164
0.80434783 	0.038738599 	0.010814643 	4.5352955e-07 	0.037195309 	1.6183547e-06 	0.018929917
0.81521739 	0.039928105 	0.011136582 	-4.2225671e-08 	0.038382158 	-1.8883415e-09 	0.016975311
0.82608696 	0.040998319 	0.011411037 	1.5248859e-07 	0.039472491 	7.101599e-07 	0.020170238
0.83695652 	0.04195764 	0.011638171 	4.9241296e-09 	0.04046084 	1.2427145e-07 	0.021111157
0.84782609 	0.042723263 	0.01179207 	-2.3623309e-07 	0.041257233 	-4.911114e-07 	0.015535129
0.85869565 	0.043327326 	0.011887234 	-1.0982378e-06 	0.041927792 	-2.0330151e-07 	0.021736101
0.86956522 	0.043701373 	0.011896258 	-1.0450063e-06 	0.042329674 	-2.4743395e-06 	0.0018215684
0.88043478 	0.043858459 	0.011838304 	-2.2164918e-06 	0.042602528 	-3.5715153e-06 	0.022017943
0.89130435 	0.04376201 	0.01169105 	-5.4024049e-08 	0.042591348 	-1.1502065e-07 	0.021963216
0.90217391 	0.043348785 	0.011442845 	-1.0283884e-06 	0.04223578 	-2.8520005e-06 	0.0055668092
0.91304348 	0.04265194 	0.01111952 	-2.5378404e-06 	0.041660552 	-6.3101468e-06 	0.021600944
0.92391304 	0.041640064 	0.010708812 	-4.9851299e-06 	0.040733317 	-1.3202737e-05 	0.020957551
0.93478261 	0.040294271 	0.010172678 	-6.5280398e-07 	0.039472256 	-1.8336078e-06 	0.020185555
0.94565217 	0.038479249 	0.0095555143 	-5.4867292e-06 	0.037726309 	-1.7632419e-05 	0.019468461
0.95652174 	0.036331931 	0.0089127372 	-6.3396647e-07 	0.035595049 	-2.5474418e-06 	0.0039787239
0.9673913 	0.033640446 	0.0082237948 	-5.431921e-07 	0.032951136 	-2.2470438e-06 	0.017169377
0.97826087 	0.030185316 	0.0074902688 	-2.0264618e-07 	0.029469036 	-1.2850008e-06 	0.0033486211
0.98913043 	0.023996218 	0.0062872464 	-1.9089048e-08 	0.023310019 	-3.5144874e-07 	0.0024909143
