0.36082474 	0.047465667 	-0.011666401 	9.1909351e-07 	0.038741413 	-2.7380781e-06 	0.038698538
0.37113402 	0.014817705 	-0.0017458099 	-1.8279312e-06 	0.01423398 	-1.8090249e-06 	0.011098763
0.3814433 	0.012880978 	0.0002017586 	-1.6349019e-06 	0.015207447 	-8.4976599e-06 	0.0065645598
0.39175258 	0.012751634 	0.00085613563 	-9.1624744e-07 	0.016953024 	-9.2373827e-06 	0.0044298391
0.40206186 	0.012537724 	0.0012413886 	1.7030905e-06 	0.017753597 	4.3484712e-07 	0.0061471443
0.41237113 	0.012347376 	0.0014328818 	1.0282377e-06 	0.017740546 	-3.6048603e-06 	0.0049293733
0.42268041 	0.012181085 	0.0015460771 	5.2409827e-07 	0.017572886 	-4.9540772e-06 	0.0037602948
0.43298969 	0.012061022 	0.0016270519 	4.2792727e-07 	0.017435385 	-6.8574336e-06 	0.0026660409
0.44329897 	0.0119875 	0.0017024278 	5.4153766e-07 	0.017360051 	-8.8508523e-06 	0.0016471892
0.45360825 	0.011954047 	0.0017804302 	4.8879456e-07 	0.01733851 	-5.6848795e-06 	0.00068821366
0.46391753 	0.01195215 	0.0018625262 	1.9144071e-07 	0.017360436 	-1.6518736e-06 	0.00030462954
0.4742268 	0.011980734 	0.0019485861 	2.2320207e-07 	0.017426795 	-1.925931e-06 	0.0011981928
0.48453608 	0.012033756 	0.0020372 	9.0157353e-07 	0.017524224 	-6.1733092e-06 	0.0020599618
0.49484536 	0.01210173 	0.0021271488 	2.1881935e-07 	0.017640196 	-1.2367709e-06 	0.0029154006
0.50515464 	0.012185359 	0.0022178953 	2.7706405e-08 	0.017778088 	-1.5659711e-07 	0.0036784763
0.51546392 	0.012285561 	0.0023103906 	7.4866535e-07 	0.017934001 	-3.5251435e-06 	0.0044777018
0.5257732 	0.012394726 	0.002402532 	1.8957949e-06 	0.018086209 	-1.5527684e-06 	0.00031093465
0.53608247 	0.012513417 	0.0024978697 	7.0362247e-07 	0.018280197 	-2.7651857e-06 	0.005927778
0.54639175 	0.012642519 	0.002592473 	1.668506e-06 	0.01845591 	-1.299506e-06 	0.0021462979
0.55670103 	0.012776204 	0.002690085 	5.0109801e-07 	0.0186641 	-1.6490221e-06 	0.0072782964
0.56701031 	0.012921717 	0.0027875429 	2.0868619e-06 	0.018851601 	-1.5615771e-06 	0.0020232634
0.57731959 	0.013067996 	0.0028886598 	6.0393445e-07 	0.019073868 	-1.6534094e-06 	0.0085428377
0.58762887 	0.013228252 	0.0029898508 	2.9791212e-06 	0.019264199 	-2.168915e-06 	0.00010235191
0.59793814 	0.013384476 	0.0030946497 	3.8909096e-07 	0.019499638 	-9.051494e-07 	0.0097357833
0.60824742 	0.013555028 	0.0032008938 	1.9423371e-06 	0.01970212 	-1.3918673e-06 	0.0038159441
0.6185567 	0.013724802 	0.0033087431 	9.3763776e-07 	0.019927163 	-6.7190568e-07 	0.0077003082
0.62886598 	0.013899764 	0.0034194781 	4.7346421e-07 	0.020148296 	-3.3634588e-07 	0.0094593906
0.63917526 	0.014087715 	0.0035319562 	2.6575284e-06 	0.020348578 	-1.8878908e-06 	0.0019830133
0.64948454 	0.01426567 	0.0036451064 	1.9100131e-07 	0.020586231 	-3.8380044e-07 	0.012160177
0.65979381 	0.014457352 	0.0037600276 	1.6262844e-06 	0.02078036 	-1.1379788e-06 	0.0057574466
0.67010309 	0.014653186 	0.0038780619 	1.75037e-06 	0.020991561 	-1.2248067e-06 	0.0056640762
0.68041237 	0.014848774 	0.0039991711 	2.0533417e-07 	0.021220851 	-3.9725908e-07 	0.013213067
0.69072165 	0.015051212 	0.0041154997 	2.3296648e-06 	0.021390627 	-1.5827777e-06 	0.0024513201
0.70103093 	0.015262851 	0.0042427523 	7.5241708e-07 	0.021619321 	-5.1119328e-07 	0.010301519
0.71134021 	0.01547702 	0.0043682754 	8.2874176e-07 	0.021816415 	-5.3457724e-07 	0.0095204411
0.72164948 	0.01569589 	0.0044923311 	1.8777217e-06 	0.021994539 	-1.2112184e-06 	0.0040226353
0.73195876 	0.015922741 	0.0046258023 	2.4133059e-07 	0.022220302 	-4.454071e-07 	0.014540885
0.74226804 	0.016151984 	0.0047503388 	2.1312515e-06 	0.022365865 	-1.2531884e-06 	0.0011664972
0.75257732 	0.016391993 	0.0048876136 	1.0113475e-08 	0.022591921 	-5.9467828e-09 	0.014881678
0.7628866 	0.01663413 	0.0050169354 	1.4237793e-06 	0.022738396 	-7.1809052e-07 	0.0044999415
0.77319588 	0.016885734 	0.0051542687 	2.9647109e-07 	0.022938386 	-1.4952674e-07 	0.01298314
0.78350515 	0.017140023 	0.0052862263 	1.068867e-06 	0.023087393 	-4.1391346e-07 	0.0059282503
0.79381443 	0.017403046 	0.0054235771 	2.2966287e-07 	0.023275405 	-8.8935815e-08 	0.013316133
0.80412371 	0.017667947 	0.0055551614 	1.0039996e-06 	0.023411412 	-2.4138147e-07 	0.0048979188
0.81443299 	0.017942398 	0.0056935209 	1.5439805e-07 	0.023597781 	-3.4903008e-07 	0.015338505
0.82474227 	0.018222572 	0.0058207952 	9.7442119e-07 	0.023696381 	-2.2062779e-07 	0.00080746058
0.83505155 	0.018519232 	0.005956969 	1.0049149e-07 	0.023867672 	-6.125799e-07 	0.015222474
0.84536082 	0.018849936 	0.0060016066 	1.7398598e-07 	0.023917329 	-1.6607064e-07 	0.0077203188
0.8556701 	0.01919221 	0.0060511646 	-1.7643148e-08 	0.023980407 	-1.8819383e-07 	0.0071650243
0.86597938 	0.019548169 	0.0060976296 	-3.0765369e-07 	0.024055799 	-2.1281637e-06 	0.015043434
0.87628866 	0.019908557 	0.006124878 	-5.4671482e-08 	0.024083573 	-1.1889563e-07 	0.0085423193
0.88659794 	0.020275946 	0.0061426225 	-1.7757848e-07 	0.024109041 	-1.9516767e-07 	0.0029614684
0.89690722 	0.020654545 	0.0061584216 	-4.2682953e-08 	0.024168453 	-3.7104761e-08 	0.012616567
0.90721649 	0.021037377 	0.0061604313 	-4.9916859e-07 	0.02419788 	-1.8238776e-06 	0.014473825
0.91752577 	0.021426337 	0.0061558527 	-2.8731473e-07 	0.024213496 	-1.0227984e-06 	0.014312005
0.92783505 	0.02182239 	0.0061488054 	-3.8652389e-08 	0.024219731 	-1.4331373e-07 	0.014116287
0.93814433 	0.022225079 	0.0061438716 	-1.0640888e-08 	0.024213874 	-4.7859037e-08 	0.013888977
0.94845361 	0.022630917 	0.0061510976 	-2.5772302e-07 	0.024190171 	-7.8930506e-07 	0.013631498
0.95876289 	0.023038279 	0.0060938367 	-3.7176356e-08 	0.02414109 	-1.1010267e-07 	0.013333621
0.96907216 	0.023530747 	0.0061621755 	8.6801849e-08 	0.024137716 	-4.6158224e-07 	0.013095542
0.97938144 	0.024367844 	0.0064347136 	5.6435217e-07 	0.024401092 	1.1490497e-06 	0.0057021015
0.98969072 	0.025727458 	0.0071298572 	3.2480754e-08 	0.025143522 	9.7659361e-08 	0.013110277
