0 	0.065220572 	-4.429686e-15 	-1.1950612e-20 	1.5734698e-17 	6.8699174e-19 	2.9994707e-20
0.010869565 	0.065219883 	-0.0037186791 	7.8256771e-06 	0.071273071 	-0.00031540023 	0.013390727
0.02173913 	0.065552134 	-0.0056249338 	4.638946e-06 	0.071515577 	-0.00017744595 	0.018580855
0.032608696 	0.066377296 	-0.0075245774 	8.1605378e-07 	0.072206472 	-3.1080755e-05 	0.023737091
0.043478261 	0.067651318 	-0.0094254154 	3.5853008e-06 	0.073295903 	-0.00013007028 	0.029068655
0.054347826 	0.069300552 	-0.011323441 	1.2219572e-06 	0.074666852 	-1.2299099e-05 	0.0066717846
0.065217391 	0.07130315 	-0.013252614 	1.1887347e-06 	0.076360806 	-9.8501645e-06 	0.018798494
0.076086957 	0.073228511 	-0.014904391 	2.397704e-06 	0.077931821 	-1.6497472e-05 	0.011130031
0.086956522 	0.075253894 	-0.016561573 	5.828491e-08 	0.079613868 	-1.1326885e-06 	0.05118357
0.097826087 	0.077303449 	-0.01814731 	1.885928e-06 	0.081206256 	-2.6790917e-05 	0.057297358
0.10869565 	0.079193165 	-0.019600317 	4.3895492e-06 	0.082509577 	-2.2793543e-05 	0.01676342
0.11956522 	0.080753905 	-0.020873073 	2.5657153e-06 	0.083567967 	-1.2035601e-05 	0.043064642
0.13043478 	0.082018208 	-0.021988713 	1.0481965e-06 	0.084284541 	-4.9170206e-06 	0.062806083
0.14130435 	0.08270643 	-0.022838843 	7.637397e-06 	0.084262941 	-3.3217125e-05 	0.0036686209
0.15217391 	0.083089496 	-0.0235486 	1.3673255e-07 	0.084185419 	-5.7564549e-07 	0.079634369
0.16304348 	0.082481228 	-0.023832308 	6.1869144e-06 	0.08287104 	-2.6046975e-05 	0.016581675
0.17391304 	0.081586944 	-0.023987586 	9.7805764e-07 	0.081503394 	-4.5120377e-06 	0.064012899
0.18478261 	0.079626264 	-0.023684732 	3.2246341e-06 	0.07896692 	-1.4876087e-05 	0.021531535
0.19565217 	0.077385922 	-0.023252008 	5.5739513e-08 	0.076347974 	-1.1960775e-06 	0.060092796
0.20652174 	0.073976748 	-0.022303749 	2.9808538e-07 	0.072531666 	-6.396418e-06 	0.014944352
0.2173913 	0.070566938 	-0.02134007 	9.412005e-06 	0.068916333 	-3.1539614e-05 	0.057193915
0.22826087 	0.06597939 	-0.019839016 	-3.3432928e-06 	0.064125786 	1.8780935e-06 	0.0017201833
0.23913043 	0.061728699 	-0.018463797 	1.630323e-05 	0.059868283 	-5.0055113e-05 	0.044559686
0.25 	0.056883542 	-0.016796476 	-3.0886982e-06 	0.055035067 	4.0880602e-06 	0.017482835
0.26086957 	0.052189526 	-0.015170939 	-1.1414734e-06 	0.050454553 	1.5108022e-06 	0.025355534
0.27173913 	0.047749685 	-0.013622496 	6.6244599e-06 	0.046153391 	-1.9486119e-05 	0.031339749
0.2826087 	0.043456374 	-0.012098602 	-3.5216706e-06 	0.041993491 	4.7024055e-06 	0.003597634
0.29347826 	0.039647893 	-0.010756387 	2.3779012e-05 	0.038383567 	-6.9502305e-05 	0.0223506
0.30434783 	0.036226964 	-0.0095455598 	-4.1492492e-07 	0.035106225 	3.5604513e-07 	0.01716416
0.31521739 	0.033201399 	-0.0084673643 	-9.9566832e-07 	0.03221597 	8.5437832e-07 	0.0081539245
0.32608696 	0.03061932 	-0.0075489218 	3.3099091e-05 	0.029769054 	-9.8243286e-05 	0.015259178
0.33695652 	0.028274083 	-0.0067104086 	-1.1226318e-07 	0.027522986 	-2.3537067e-07 	0.010998299
0.34782609 	0.026294102 	-0.0059932644 	-1.548826e-07 	0.025628918 	-3.2472641e-07 	0.0072515104
0.35869565 	0.024634221 	-0.0053827007 	2.6580264e-05 	0.024045483 	-7.9805262e-05 	0.01070415
0.36956522 	0.023053489 	-0.0047969288 	4.497349e-07 	0.022527553 	-1.3502955e-06 	0.01021091
0.38043478 	0.021761158 	-0.0042950594 	1.5270723e-07 	0.021275001 	-8.9156037e-07 	0.0039928776
0.39130435 	0.020682608 	-0.0038534115 	1.6470065e-05 	0.020241944 	-4.7595224e-05 	0.0077754057
0.40217391 	0.019676142 	-0.0034277466 	9.3459363e-06 	0.019267953 	-2.7007905e-05 	0.0074290592
0.41304348 	0.01878061 	-0.0030224081 	4.8180073e-07 	0.018388045 	-1.4839957e-06 	0.00041629113
0.42391304 	0.018092757 	-0.002669196 	6.4756889e-06 	0.017730452 	-1.6181763e-05 	0.0058999403
0.43478261 	0.017519095 	-0.0023288921 	1.7935879e-05 	0.017167961 	-4.4819038e-05 	0.0056527432
0.44565217 	0.016945434 	-0.0019885881 	1.5817419e-06 	0.016605471 	-3.9525329e-06 	0.0054055461
0.45652174 	0.016539651 	-0.0016709075 	1.8569116e-07 	0.016200121 	-4.085328e-07 	0.0029494696
0.4673913 	0.016288809 	-0.0013737985 	1.1880499e-05 	0.01594746 	-2.1770763e-05 	0.0045711008
0.47826087 	0.016070433 	-0.0010775722 	1.3475297e-05 	0.01572113 	-2.4693196e-05 	0.0043899872
0.48913043 	0.015852057 	-0.00078134598 	1.9640951e-07 	0.0154948 	-3.5991628e-07 	0.0042088736
0.5 	0.015788316 	-0.00049117399 	4.3861189e-09 	0.01541535 	-6.8356386e-09 	0.0039349991
0.51086957 	0.015843727 	-0.00020533921 	1.3268362e-05 	0.015445111 	-1.376446e-05 	0.0038385829
0.52173913 	0.015899737 	8.0485534e-05 	1.1345897e-05 	0.015475335 	-1.1770115e-05 	0.003700411
0.5326087 	0.015961312 	0.00036621229 	3.7545591e-08 	0.015510064 	-3.8222782e-08 	0.0031989645
0.54347826 	0.016161438 	0.00065754668 	2.6884336e-06 	0.015676365 	-8.7362202e-07 	0.003574937
0.55434783 	0.016426382 	0.00095001833 	1.521188e-05 	0.015900467 	-4.9431884e-06 	0.0034651175
0.56521739 	0.016691325 	0.00124249 	7.356084e-06 	0.016124568 	-2.390402e-06 	0.003355298
0.57608696 	0.016986862 	0.0015330536 	3.2072866e-07 	0.016371188 	-1.8032166e-07 	5.2722267e-05
0.58695652 	0.01738655 	0.0018316658 	7.8218317e-06 	0.016729187 	1.7235727e-06 	0.0033795372
0.59782609 	0.017804766 	0.0021274662 	1.1718915e-05 	0.017097421 	2.5823111e-06 	0.0032901618
0.60869565 	0.018222982 	0.0024232665 	8.4347428e-07 	0.017465656 	1.8586302e-07 	0.0032007863
0.61956522 	0.018723447 	0.002722168 	3.7829794e-06 	0.017913828 	2.5535087e-06 	0.0033826407
0.63043478 	0.019263981 	0.0030233076 	1.3405296e-05 	0.018399608 	9.048566e-06 	0.0033094604
0.64130435 	0.019804516 	0.0033244472 	2.8635043e-06 	0.018885388 	1.9328636e-06 	0.0032362801
0.65217391 	0.020402378 	0.0036320677 	2.4703377e-06 	0.01942755 	2.645732e-06 	0.0034509827
0.66304348 	0.021059073 	0.0039484049 	1.333261e-05 	0.020025641 	1.4279227e-05 	0.0033912856
0.67391304 	0.021715768 	0.0042647422 	2.6423853e-06 	0.020623733 	2.829995e-06 	0.0033315885
0.68478261 	0.02244182 	0.0045959152 	3.6238575e-06 	0.021289295 	5.1095726e-06 	0.0035786478
0.69565217 	0.023227188 	0.0049409224 	1.1685842e-05 	0.022011068 	1.6476824e-05 	0.0035302777
0.70652174 	0.024012557 	0.0052859297 	2.3909817e-07 	0.022732842 	3.3712404e-07 	0.0034819075
0.7173913 	0.024917933 	0.0056633153 	7.6388993e-06 	0.023570293 	1.2971429e-05 	0.0037656833
0.72826087 	0.025855413 	0.0060496254 	7.7494772e-06 	0.024437897 	1.3159199e-05 	0.0037269548
0.73913043 	0.026833369 	0.0064474859 	3.6810995e-07 	0.025344979 	7.176252e-07 	0.0040443566
0.75 	0.027951049 	0.0068850876 	1.4786597e-05 	0.026386126 	2.8826264e-05 	0.0040137498
0.76086957 	0.02906873 	0.0073226892 	3.0071515e-07 	0.027427272 	5.8623998e-07 	0.003983143
0.77173913 	0.030357707 	0.0078078431 	1.0928789e-05 	0.028635717 	2.3819749e-05 	0.0043471271
0.7826087 	0.031681303 	0.0083024319 	4.4837108e-06 	0.029877474 	9.7724334e-06 	0.0043235028
0.79347826 	0.033136174 	0.0088306684 	7.8943368e-06 	0.031250028 	1.8957877e-05 	0.0047279253
0.80434783 	0.034678851 	0.009381071 	6.8684623e-06 	0.0327095 	1.6494288e-05 	0.0047102183
0.81521739 	0.036327867 	0.0099546507 	6.8870868e-06 	0.034278571 	1.8098302e-05 	0.0051504217
0.82608696 	0.038076131 	0.010549287 	6.6373677e-06 	0.03594955 	1.7442075e-05 	0.0051377126
0.83695652 	0.039911153 	0.011155315 	8.1997455e-06 	0.037716853 	2.3593885e-05 	0.005599967
0.84782609 	0.041808401 	0.011768296 	3.3494008e-06 	0.039553695 	9.6375401e-06 	0.0055914079
0.85869565 	0.043737139 	0.012364662 	1.1144128e-05 	0.041444854 	3.5584586e-05 	0.0060514126
0.86956522 	0.045655325 	0.012943183 	2.777486e-07 	0.04332555 	9.6817609e-07 	0.0003786686
0.88043478 	0.047461745 	0.013454018 	6.8713074e-06 	0.045158362 	2.5545735e-05 	0.0064695596
0.89130435 	0.049093852 	0.013886881 	2.3570526e-06 	0.046833511 	1.2648563e-05 	0.0068140112
0.90217391 	0.050493211 	0.014221088 	-4.8127103e-08 	0.048305375 	3.1737519e-08 	0.0043119404
0.91304348 	0.051319054 	0.014341541 	-1.0467072e-06 	0.049273703 	5.0608585e-06 	0.0070388988
0.92391304 	0.051603492 	0.014270882 	-7.5027447e-06 	0.049729733 	-9.810204e-06 	0.0071114087
0.93478261 	0.051199755 	0.013948844 	-6.6796919e-06 	0.049542122 	-1.2645874e-05 	0.0070199501
0.94565217 	0.049715148 	0.013249394 	-1.2927189e-05 	0.048329423 	-2.9263121e-05 	0.0068573826
0.95652174 	0.047168939 	0.012230324 	-3.9086097e-07 	0.04604541 	-1.0067029e-06 	0.0032748086
0.9673913 	0.0430866 	0.010804149 	-7.6111275e-06 	0.042211625 	-2.2267881e-05 	0.0060313122
0.97826087 	0.037106221 	0.0090284327 	-2.198626e-07 	0.036394889 	-7.7222519e-07 	0.0029676774
0.98913043 	0.02667417 	0.0066378893 	-7.4046593e-08 	0.026048242 	-3.1303612e-07 	0.0034501179
