0.4742268 	1.5037592 	0.00015950113 	-1.162395e-08
0.48453608 	2.4224817 	0.00077410558 	3.5749235e-09
0.49484536 	2.7229002 	0.0016334454 	4.1795119e-06
0.50515464 	2.9089094 	0.0025910214 	3.6204501e-07
0.51546392 	3.0239244 	0.0034482804 	2.2242316e-06
0.5257732 	3.0982168 	0.0041850194 	5.5089293e-06
0.53608247 	3.1364152 	0.0046050005 	9.9231528e-07
0.54639175 	3.1495409 	0.0047184453 	-6.1668589e-08
0.55670103 	3.1505078 	0.0046675069 	-2.311739e-07
0.56701031 	3.1466577 	0.0045488443 	-9.0288297e-07
0.57731959 	3.1408011 	0.0044000407 	-2.4242777e-06
0.58762887 	3.133959 	0.004236329 	-3.8330841e-06
0.59793814 	3.1265421 	0.0040638708 	-1.1519514e-06
0.60824742 	3.1186147 	0.0038817694 	-2.9533364e-07
0.6185567 	3.1104944 	0.0036997491 	-1.8137435e-06
0.62886598 	3.1020547 	0.0035110579 	-3.6526552e-06
0.63917526 	3.0933323 	0.0033164117 	-1.8345027e-07
0.64948454 	3.084487 	0.0031215963 	-2.9679468e-06
0.65979381 	3.0754174 	0.0029219811 	-1.6489788e-06
0.67010309 	3.0661329 	0.0027182797 	-7.8601159e-10
0.68041237 	3.0566531 	0.0025116306 	-4.2342938e-06
0.69072165 	3.04696 	0.0023006137 	-7.4712994e-08
0.70103093 	3.0371752 	0.0020900565 	-5.4161474e-06
0.71134021 	3.0271181 	0.0018739746 	-5.9609696e-08
0.72164948 	3.0170641 	0.0016612709 	-5.0340751e-06
0.73195876 	3.006873 	0.0014466092 	-1.2746616e-08
0.74226804 	2.9963427 	0.0012291822 	-3.4941959e-06
0.75257732 	2.9857558 	0.001012719 	-7.2696346e-07
0.7628866 	2.9747387 	0.00079308044 	-2.2837329e-06
0.77319588 	2.9634732 	0.00057240437 	-9.3201467e-07
0.78350515 	2.9518925 	0.00035298368 	-2.4604545e-06
0.79381443 	2.9400434 	0.00013371839 	2.6871854e-09
0.80412371 	2.9277172 	-8.3134463e-05 	-3.8495758e-06
0.81443299 	2.9151611 	-0.00029689999 	7.0033911e-08
0.82474227 	2.9018065 	-0.00051005852 	-3.4400544e-06
0.83505155 	2.8880496 	-0.00071768713 	-6.5815568e-07
0.84536082 	2.8735489 	-0.0009193293 	4.6368997e-08
0.8556701 	2.8579679 	-0.0011125391 	-2.7509459e-06
0.86597938 	2.8414053 	-0.0012954049 	-1.2173611e-06
0.87628866 	2.823504 	-0.0014634304 	1.6001548e-07
0.88659794 	2.8035571 	-0.0016132648 	7.9141831e-08
0.89690722 	2.7809861 	-0.0017345487 	-4.760606e-07
0.90721649 	2.75498 	-0.0018192668 	-4.5737953e-07
0.91752577 	2.7242045 	-0.0018567267 	3.3758912e-08
0.92783505 	2.6866261 	-0.001832567 	5.1544938e-07
0.93814433 	2.6392883 	-0.0017320471 	3.6132516e-07
0.94845361 	2.5772828 	-0.0015384041 	4.937758e-07
0.95876289 	2.4926457 	-0.0012514656 	1.2999068e-06
0.96907216 	2.3726568 	-0.00088779199 	2.7991059e-07
0.97938144 	2.1878538 	-0.00049709248 	5.5593288e-07
0.98969072 	1.8374777 	-0.00016040858 	3.8561781e-07
