0 	0.062192423 	-4.2237927e-15 	-1.5352368e-21 	2.8685849e-28 	1.0426547e-34 	3.7897739e-41
0.010869565 	0.061849938 	-0.0036103472 	7.4401922e-06 	0.065271734 	-0.00023075637 	0.022112353
0.02173913 	0.061443063 	-0.0049890376 	5.6570786e-06 	0.064760282 	-0.00016212563 	0.025486484
0.032608696 	0.061334214 	-0.0063531974 	1.1780964e-06 	0.06451375 	-3.3803793e-05 	0.02881001
0.043478261 	0.061518611 	-0.0077221661 	3.3295815e-06 	0.06452767 	-9.2957867e-05 	0.032137235
0.054347826 	0.061956784 	-0.0090859117 	9.8736563e-07 	0.064724422 	-3.1417412e-06 	0.015563302
0.065217391 	0.062656225 	-0.010490172 	1.7142808e-06 	0.065155091 	-5.0726664e-06 	0.0095886502
0.076086957 	0.063401112 	-0.011658691 	1.7334236e-06 	0.065668664 	-4.8310913e-06 	0.01699513
0.086956522 	0.064288468 	-0.012865632 	8.5599213e-07 	0.066331658 	-1.5850826e-05 	0.045639588
0.097826087 	0.065268061 	-0.014033861 	2.1731236e-07 	0.067005762 	-5.7997525e-07 	0.046484204
0.10869565 	0.066255777 	-0.015130742 	4.062647e-06 	0.067584354 	-1.0520156e-05 	0.0059381855
0.11956522 	0.067151117 	-0.016124205 	1.1320684e-06 	0.068225796 	-2.8603428e-06 	0.04368252
0.13043478 	0.067985758 	-0.017038047 	1.5038057e-06 	0.068714517 	-3.7995934e-06 	0.042963301
0.14130435 	0.068655012 	-0.01783641 	4.9114785e-06 	0.068971624 	-1.2109266e-05 	0.011870296
0.15217391 	0.069206007 	-0.018555365 	8.0380069e-07 	0.069286963 	-5.6769212e-06 	0.064665087
0.16304348 	0.069431099 	-0.019096938 	6.065619e-06 	0.069048311 	-1.4526273e-05 	0.0059605658
0.17391304 	0.069557653 	-0.019584148 	6.8374646e-07 	0.06895856 	-1.5750152e-06 	0.062098823
0.18478261 	0.069218441 	-0.019849074 	5.4267162e-06 	0.068198585 	-1.2500482e-05 	0.011151099
0.19565217 	0.068818102 	-0.0200822 	3.8570513e-07 	0.067595969 	-8.3831445e-07 	0.06049522
0.20652174 	0.067795486 	-0.020037051 	4.7294661e-06 	0.066195494 	-1.0279303e-05 	0.0068126443
0.2173913 	0.066812452 	-0.020004412 	6.62016e-06 	0.065060496 	-2.6586163e-05 	0.0586949
0.22826087 	0.065029722 	-0.019624372 	3.313241e-06 	0.062973259 	-6.4734649e-06 	0.0057132635
0.23913043 	0.063367034 	-0.0192892 	3.3625619e-07 	0.061203072 	-6.569829e-07 	0.04659918
0.25 	0.060962945 	-0.018630238 	8.1596193e-07 	0.058640022 	-1.0712704e-06 	0.024430385
0.26086957 	0.058423465 	-0.017905129 	7.1929506e-07 	0.056010902 	-9.4435716e-07 	0.023215788
0.27173913 	0.055692567 	-0.017087269 	3.4414153e-06 	0.053269317 	-1.0943461e-05 	0.041968059
0.2826087 	0.052271239 	-0.015953614 	-6.6135823e-07 	0.049811122 	2.8589396e-06 	0.00013583239
0.29347826 	0.049169661 	-0.014947197 	8.0264157e-07 	0.04681035 	-2.3420603e-06 	0.033404177
0.30434783 	0.045587964 	-0.013702463 	-5.393566e-07 	0.043339896 	1.4039741e-06 	0.025258014
0.31521739 	0.041863856 	-0.012374078 	-1.713549e-06 	0.039750753 	4.4604596e-06 	0.0068624037
0.32608696 	0.038399666 	-0.011141539 	2.2320675e-05 	0.036486898 	-6.1499693e-05 	0.024105659
0.33695652 	0.034913288 	-0.009866778 	-8.2599389e-07 	0.033193811 	1.9445253e-06 	0.016562926
0.34782609 	0.031537217 	-0.0086147668 	-1.7621565e-06 	0.030021676 	4.1484059e-06 	0.0060184016
0.35869565 	0.028517245 	-0.0074922593 	2.2548963e-05 	0.027225436 	-6.019432e-05 	0.016401822
0.36956522 	0.025784914 	-0.0064554337 	-2.6848524e-07 	0.024683286 	5.7637466e-07 	0.013762333
0.38043478 	0.023389923 	-0.0055237053 	-1.4699159e-06 	0.022449066 	3.1555637e-06 	0.0025473392
0.39130435 	0.021288037 	-0.0046982839 	9.9072255e-06 	0.020522897 	-2.5248044e-05 	0.011167201
0.40217391 	0.01956779 	-0.0039798421 	8.383083e-06 	0.018934536 	-2.1363847e-05 	0.010901784
0.41304348 	0.01817538 	-0.0033502616 	-7.0019945e-07 	0.017634327 	1.0558218e-06 	0.0017865465
0.42391304 	0.016978211 	-0.0027955145 	-9.0406448e-08 	0.016542177 	1.3632273e-07 	0.0073698245
0.43478261 	0.016128891 	-0.0023224382 	1.8446645e-05 	0.015760949 	-4.0532781e-05 	0.0081043851
0.44565217 	0.015364977 	-0.0018675506 	-3.6078986e-08 	0.015054338 	-4.0577509e-08 	0.0066815972
0.45652174 	0.014890235 	-0.0014788474 	-1.6575763e-07 	0.014607838 	-1.8642518e-07 	0.0018147435
0.4673913 	0.014511618 	-0.001124124 	4.9138201e-06 	0.014268371 	-7.3184851e-06 	0.006826601
0.47826087 	0.014294541 	-0.00078849055 	1.0603495e-05 	0.014067974 	-1.5792503e-05 	0.0067033236
0.48913043 	0.01413762 	-0.00045868821 	6.344752e-09 	0.0139193 	-1.9701899e-07 	0.0045638918
0.5 	0.014136565 	-0.00014746724 	1.1553519e-08 	0.013915173 	-3.5876305e-07 	0.0027938751
0.51086957 	0.014204639 	0.00015662842 	6.7531246e-06 	0.013984326 	-3.92634e-06 	0.006366771
0.52173913 	0.014344398 	0.00045897677 	7.8353649e-06 	0.014112143 	-4.5555663e-06 	0.0062713766
0.5326087 	0.014536147 	0.00076115042 	5.3826371e-08 	0.014282684 	-2.1862482e-07 	0.0035571405
0.54347826 	0.014824526 	0.0010688394 	4.2310605e-08 	0.014548361 	-1.7185161e-07 	0.0043241436
0.55434783 	0.01518417 	0.0013830118 	9.5991331e-06 	0.014881269 	1.9021154e-06 	0.0064537799
0.56521739 	0.015568114 	0.0016975902 	4.0643523e-06 	0.015232054 	8.0537141e-07 	0.0063756577
0.57608696 	0.016018661 	0.0020151075 	1.8766323e-07 	0.015632996 	-1.9118193e-07 	0.00077876886
0.58695652 	0.016533352 	0.0023476115 	2.7161368e-06 	0.01611457 	2.0638289e-06 	0.0069012959
0.59782609 	0.017103635 	0.0026827911 	9.4872282e-06 	0.016635726 	7.2087739e-06 	0.0068356486
0.60869565 	0.017691621 	0.0030191717 	1.0088509e-07 	0.017169175 	4.7039009e-08 	0.0046237071
0.61956522 	0.018357724 	0.0033696195 	4.7203184e-08 	0.017782086 	2.2009108e-08 	0.0063961502
0.63043478 	0.019089948 	0.0037307286 	1.2118145e-05 	0.018456024 	1.462176e-05 	0.0074665401
0.64130435 	0.019828554 	0.0040921536 	6.0539147e-09 	0.019133702 	7.8600379e-09 	0.0073067837
0.65217391 	0.020657196 	0.0044693983 	1.3707461e-07 	0.019893363 	1.7796941e-07 	0.0056259601
0.66304348 	0.021554484 	0.0048627421 	1.1465693e-05 	0.020726909 	1.8206098e-05 	0.0082394982
0.67391304 	0.022464087 	0.0052568363 	1.7889547e-08 	0.021566946 	3.2931601e-08 	0.0079157586
0.68478261 	0.023469795 	0.0056707661 	7.6504363e-08 	0.022499954 	1.4083147e-07 	0.0078479719
0.69565217 	0.024551142 	0.0061006355 	1.0987262e-05 	0.02350979 	2.1145436e-05 	0.0091454352
0.70652174 	0.025653349 	0.0065316032 	2.6121968e-07 	0.024530559 	5.8971729e-07 	0.0050829714
0.7173913 	0.026862087 	0.0069881692 	3.4703851e-06 	0.025673456 	7.751697e-06 	0.010203546
0.72826087 	0.028122181 	0.0074506975 	5.5821762e-06 	0.026859238 	1.2468743e-05 	0.010171896
0.73913043 	0.029428052 	0.0079163481 	3.9632639e-07 	0.028080723 	1.0519466e-06 	0.003754686
0.75 	0.030831059 	0.0084039035 	1.1180368e-05 	0.029427724 	2.8273318e-05 	0.011317379
0.76086957 	0.032245785 	0.00888397 	2.3566485e-07 	0.030765835 	7.3739159e-07 	0.0061541483
0.77173913 	0.033738903 	0.0093750332 	5.2373648e-06 	0.03221038 	1.4792086e-05 	0.012499013
0.7826087 	0.035245274 	0.0098600281 	8.9947333e-07 	0.033660932 	2.5404162e-06 	0.012479308
0.79347826 	0.036769676 	0.010332967 	1.8496499e-06 	0.035142803 	5.8407219e-06 	0.013656307
0.80434783 	0.038289815 	0.010792123 	2.350865e-06 	0.036627143 	7.4234312e-06 	0.01364148
0.81521739 	0.039773511 	0.011224735 	8.1886035e-07 	0.038089897 	2.978309e-06 	0.0147194
0.82608696 	0.041200633 	0.011624606 	1.563777e-06 	0.039507834 	5.6876745e-06 	0.014708628
0.83695652 	0.042519781 	0.011974805 	1.0015547e-06 	0.040836458 	4.7477495e-06 	0.015618707
0.84782609 	0.043731541 	0.012278093 	-1.6732326e-08 	0.042069384 	-2.1118337e-08 	0.015037665
0.85869565 	0.044714745 	0.012491269 	2.6146338e-07 	0.043100629 	6.212978e-06 	0.016295059
0.86956522 	0.045522515 	0.012635181 	-6.9419908e-07 	0.043938849 	-1.3463984e-06 	0.0011883605
0.88043478 	0.046042013 	0.01267952 	-1.8919456e-06 	0.044569158 	-1.9882049e-07 	0.016707402
0.89130435 	0.046272489 	0.012620049 	-1.6262372e-06 	0.044895048 	-2.6034751e-06 	0.016839116
0.90217391 	0.046155575 	0.01244095 	-7.9664282e-07 	0.04486448 	-2.0013453e-06 	0.0052608853
0.91304348 	0.045617221 	0.01213357 	-4.3669376e-06 	0.044466464 	-9.4196565e-06 	0.016683876
0.92391304 	0.044688807 	0.011706739 	-8.1788806e-06 	0.043655142 	-1.9711898e-05 	0.016261572
0.93478261 	0.043322069 	0.011123828 	-3.3283024e-06 	0.042408118 	-8.596892e-06 	0.01568175
0.94565217 	0.041321486 	0.010384 	-8.5136321e-06 	0.040517865 	-2.4845643e-05 	0.015114995
0.95652174 	0.038859865 	0.0095781996 	-6.4319958e-07 	0.038114477 	-2.3198264e-06 	0.003733756
0.9673913 	0.035670129 	0.0086803052 	-2.2070896e-06 	0.034989199 	-8.3039565e-06 	0.013199746
0.97826087 	0.031510836 	0.0077180975 	-2.2815817e-07 	0.030819292 	-1.2827901e-06 	0.0031695966
0.98913043 	0.024353224 	0.0063077686 	-3.0044244e-08 	0.023683761 	-3.7935675e-07 	0.0027682687
