0.4742268 	1.4739082 	0.00013469372 	-1.4604374e-08
0.48453608 	2.3758362 	0.00057544715 	-5.7406269e-08
0.49484536 	2.6679218 	0.001210372 	2.4323916e-06
0.50515464 	2.8508405 	0.0019353309 	-1.5007353e-07
0.51546392 	2.9688384 	0.0026135423 	5.3040557e-07
0.5257732 	3.053071 	0.0032667819 	4.5734725e-06
0.53608247 	3.1079506 	0.0037946416 	9.283135e-07
0.54639175 	3.1367198 	0.0040967895 	-8.1218519e-08
0.55670103 	3.1472206 	0.004183821 	-8.9332461e-08
0.56701031 	3.1482721 	0.0041461234 	-1.7351077e-07
0.57731959 	3.1449197 	0.0040462045 	-1.3337702e-06
0.58762887 	3.1395743 	0.0039156595 	-2.5756307e-06
0.59793814 	3.1331794 	0.0037684042 	-2.0380973e-07
0.60824742 	3.1259748 	0.0036057761 	-3.6743455e-07
0.6185567 	3.1185411 	0.0034431799 	-7.7339364e-07
0.62886598 	3.1106846 	0.0032716611 	-2.3727885e-06
0.63917526 	3.1024578 	0.003092378 	-2.4763388e-07
0.64948454 	3.0941685 	0.0029150685 	-1.7178047e-06
0.65979381 	3.0855934 	0.0027317852 	-3.9560672e-07
0.67010309 	3.0767176 	0.0025430952 	-6.481037e-08
0.68041237 	3.0677401 	0.0023542778 	-2.7088406e-06
0.69072165 	3.058409 	0.0021585819 	-1.2426502e-07
0.70103093 	3.0490868 	0.0019660587 	-3.7274591e-06
0.71134021 	3.0393359 	0.0017655284 	-1.0139478e-07
0.72164948 	3.0296777 	0.0015703817 	-3.3246368e-06
0.73195876 	3.0197446 	0.0013715201 	-4.3106196e-08
0.74226804 	3.0095162 	0.0011708215 	-1.9293361e-06
0.75257732 	2.999174 	0.00097113219 	-7.3132787e-09
0.7628866 	2.9883625 	0.00076797638 	-9.0921966e-07
0.77319588 	2.9772796 	0.00056472211 	-6.8005259e-10
0.78350515 	2.9658346 	0.00036274396 	-1.1835624e-06
0.79381443 	2.9540715 	0.00016245487 	1.2380875e-08
0.80412371 	2.9417639 	-3.624495e-05 	-2.5489327e-06
0.81443299 	2.9291506 	-0.00022913121 	8.19186e-08
0.82474227 	2.9156514 	-0.00042135943 	-2.2661522e-06
0.83505155 	2.9016329 	-0.00060505373 	7.9423126e-09
0.84536082 	2.8866875 	-0.0007792356 	9.9716534e-08
0.8556701 	2.8704961 	-0.00094363372 	-1.7228071e-06
0.86597938 	2.8530584 	-0.0010927987 	-4.9506875e-07
0.87628866 	2.8338947 	-0.0012214571 	2.4608346e-07
0.88659794 	2.8122869 	-0.001328243 	1.8574887e-07
0.89690722 	2.7876005 	-0.0014043684 	-9.2874993e-08
0.90721649 	2.7587384 	-0.0014398735 	-3.7724777e-08
0.91752577 	2.7243671 	-0.0014295078 	3.0851875e-07
0.92783505 	2.6824293 	-0.0013652707 	4.8443298e-07
0.93814433 	2.6301199 	-0.0012421728 	1.5283396e-08
0.94845361 	2.5627386 	-0.0010570206 	4.8475091e-07
0.95876289 	2.4737738 	-0.00082360843 	4.8283438e-07
0.96907216 	2.3514379 	-0.00056190619 	2.555064e-07
0.97938144 	2.1679886 	-0.0003054341 	1.279484e-07
0.98969072 	1.8234616 	-9.7255307e-05 	1.3457185e-07
