2.3823985e-19 	0.00068468731 	-4.6494657e-17 	5.5300906e-24 	9.2866675e-20 	-1.0784668e-21 	1.0827385e-19
0.011627907 	0.0016597549 	-0.00039964313 	-1.4249262e-08 	0.0017804965 	-1.8205635e-08 	0.00019013325
0.023255814 	0.0015951859 	-0.00037264324 	1.0531997e-06 	0.0014500876 	-4.7527395e-06 	0.00025767565
0.034883721 	0.0015715243 	-0.00037223761 	4.6556751e-07 	0.0013582615 	-1.9967416e-06 	0.00034048298
0.046511628 	0.0015557675 	-0.00037384287 	5.7428406e-06 	0.0013382233 	-1.7330074e-05 	0.00031169269
0.058139535 	0.0015386229 	-0.00036981594 	5.5636884e-06 	0.0013431311 	-1.5876221e-05 	0.00013864753
0.069767442 	0.0015442703 	-0.00038733336 	3.6470939e-06 	0.0013514334 	-9.8587894e-06 	0.00030828211
0.081395349 	0.0015368585 	-0.00039475463 	2.6610228e-06 	0.0013680698 	-6.8360436e-06 	0.00031335982
0.093023256 	0.0015169132 	-0.00039694846 	2.4026276e-06 	0.0013920318 	-5.8689201e-06 	0.00018553203
0.10465116 	0.0014960289 	-0.00040062864 	2.0601146e-06 	0.001416013 	-4.7758258e-06 	7.8700241e-05
0.11627907 	0.0015103035 	-0.00041659756 	4.4828111e-08 	0.0014171956 	-2.7307212e-07 	0.00037309417
0.12790698 	0.0014873106 	-0.00041842714 	2.284821e-07 	0.0014481041 	-1.1755315e-06 	0.00022847353
0.13953488 	0.0014625365 	-0.00042138999 	1.2042612e-07 	0.0014782449 	-6.1958771e-07 	8.732528e-05
0.15116279 	0.001440005 	-0.00042457411 	5.2775085e-07 	0.0015051563 	-2.5179218e-06 	4.9512478e-05
0.1627907 	0.0014192014 	-0.00042850016 	4.6415213e-08 	0.0015247381 	-2.0491224e-07 	0.00016720319
0.1744186 	0.0014000363 	-0.00043243005 	7.9078954e-08 	0.0015495424 	-3.4911498e-07 	0.00028192927
0.18604651 	0.0013800141 	-0.00043713916 	2.6405492e-07 	0.0015766247 	-1.0911526e-06 	0.00039613155
0.19767442 	0.0013912472 	-0.00041909463 	2.0256057e-06 	0.0015777649 	-1.1118608e-07 	8.8363368e-05
0.20930233 	0.0013439527 	-0.00044633986 	3.6029423e-08 	0.0016389623 	-1.3904312e-07 	0.00061915714
0.22093023 	0.0013515502 	-0.00043368052 	1.478069e-06 	0.0016512766 	2.060317e-07 	0.00039889818
0.23255814 	0.0013433446 	-0.00043455104 	1.7404726e-06 	0.0016825209 	5.7478886e-07 	0.00041969998
0.24418605 	0.0013266627 	-0.00044119008 	1.0149713e-06 	0.0017255689 	3.35193e-07 	0.00057985608
0.25581395 	0.00134313 	-0.0004270156 	1.5563092e-06 	0.0017395746 	7.8933503e-07 	0.00028986653
0.26744186 	0.0013143932 	-0.00044230869 	1.5361296e-07 	0.0018003955 	7.7910027e-08 	0.00065246659
0.27906977 	0.0013390603 	-0.00042402419 	9.997895e-07 	0.0018113048 	6.6173067e-07 	0.00027101038
0.29069767 	0.0013207009 	-0.00043216507 	6.5017331e-08 	0.0018674169 	-2.2428143e-07 	0.00051447323
0.30232558 	0.0013309625 	-0.00042276066 	2.0615028e-07 	0.0018961078 	1.6155891e-07 	0.00035231748
0.31395349 	0.0013321421 	-0.00041826572 	1.2066165e-07 	0.0019372213 	-3.1603035e-07 	0.00033591518
0.3255814 	0.0013379297 	-0.00041022746 	1.7571199e-07 	0.0019738146 	-4.6021519e-07 	0.0002491365
0.3372093 	0.0013440125 	-0.00040166418 	1.2128268e-07 	0.0020123114 	-2.3133984e-07 	0.0001671468
0.34883721 	0.0013496885 	-0.00039141755 	5.377101e-07 	0.0020519093 	-1.0256515e-06 	8.7581167e-05
0.36046512 	0.0013553524 	-0.00038105021 	3.0230677e-08 	0.0020916627 	-4.0392321e-08 	8.4314857e-06
0.37209302 	0.0013607797 	-0.00036783181 	8.0771967e-07 	0.0021350168 	-1.079224e-06 	6.9932904e-05
0.38372093 	0.0013662357 	-0.00035463252 	1.3393346e-07 	0.0021784446 	-1.7895343e-07 	0.00014023025
0.39534884 	0.0013704141 	-0.0003381795 	4.3783816e-07 	0.0022218111 	-4.035149e-07 	0.00020944029
0.40697674 	0.0013745285 	-0.00032034346 	5.0737483e-07 	0.0022670212 	-4.6760041e-07 	0.00027205627
0.41860465 	0.0013791884 	-0.0003008864 	7.7089596e-07 	0.0023054689 	-4.6516054e-08 	0.00012809516
0.43023256 	0.0013798417 	-0.00027746098 	8.4890345e-07 	0.0023546227 	-5.4688311e-07 	0.00039699118
0.44186047 	0.0013821513 	-0.0002530464 	5.9212894e-08 	0.0023999172 	-1.0423494e-08 	0.00043360187
0.45348837 	0.0013835391 	-0.00022577516 	4.7652444e-07 	0.0024368402 	-8.3884596e-08 	0.00036963874
0.46511628 	0.0013835789 	-0.00019233184 	1.0738595e-06 	0.0024773562 	-7.119494e-07 	0.00056332
0.47674419 	0.0013874597 	-0.00015675322 	8.0590517e-07 	0.0025063221 	-1.9087533e-07 	0.00030453027
0.48837209 	0.0013844887 	-0.00012168822 	5.1750414e-07 	0.0025445742 	-1.2256873e-07 	0.00047162843
0.5 	0.0013852188 	-8.0622444e-05 	9.4998662e-07 	0.0025709497 	-9.4689232e-07 	0.00071229407
0.51162791 	0.0013962375 	-3.5587742e-05 	7.5103077e-07 	0.0025692946 	5.2344311e-08 	0.00032618034
0.52325581 	0.0013982742 	6.5758344e-06 	6.4427782e-07 	0.0025850547 	4.490399e-08 	0.00044926961
0.53488372 	0.0013987133 	4.7243155e-05 	8.2777945e-07 	0.0026039787 	-1.2567578e-06 	0.00086900817
0.54651163 	0.0014163327 	8.8583348e-05 	4.4511706e-07 	0.0025804047 	3.7933206e-07 	0.00051115413
0.55813953 	0.0014352659 	0.00012719749 	7.4660822e-07 	0.0025512977 	6.3626507e-07 	0.00030508692
0.56976744 	0.0014430804 	0.00016243275 	1.8649368e-07 	0.0025483729 	-3.8466654e-07 	0.001047491
0.58139535 	0.0014577095 	0.00019697424 	2.4813882e-07 	0.0025294545 	3.4573236e-07 	0.00075822589
0.59302326 	0.001474293 	0.00022975734 	7.6536813e-07 	0.0025028389 	1.0663891e-06 	0.00014181359
0.60465116 	0.0014849247 	0.00025874555 	3.6521518e-08 	0.0024893892 	5.0885511e-08 	0.001135275
0.61627907 	0.0014972131 	0.00028766066 	1.8730998e-07 	0.0024705026 	2.6654424e-07 	0.00086602051
0.62790698 	0.0015107125 	0.00031499214 	5.9049862e-07 	0.0024446649 	8.4028627e-07 	0.00017404927
0.63953488 	0.0015191945 	0.00033886809 	1.9656105e-08 	0.0024279846 	-6.4104405e-08 	0.0012734243
0.65116279 	0.0015290228 	0.0003630157 	2.2889348e-07 	0.0024054416 	2.9512135e-07 	0.00072730413
0.6627907 	0.0015378671 	0.00038551761 	3.4395102e-07 	0.0023804327 	4.4346955e-07 	0.00046689978
0.6744186 	0.0015427314 	0.00040623126 	1.161815e-07 	0.0023612438 	-4.8633077e-07 	0.0013176037
0.68604651 	0.0015503633 	0.00042696759 	3.3154484e-07 	0.0023326089 	3.4981559e-07 	0.00028701726
0.69767442 	0.001552627 	0.00044599151 	8.2703047e-08 	0.0023089274 	8.7260642e-08 	0.0010707625
0.70930233 	0.0015552011 	0.00046478243 	1.1424994e-07 	0.0022830795 	8.574837e-08 	0.00089356366
0.72093023 	0.0015572067 	0.0004830792 	2.0682497e-07 	0.0022530436 	1.5522899e-07 	0.00053944309
0.73255814 	0.0015544694 	0.00050082077 	1.1672689e-08 	0.0022277062 	-7.1052345e-08 	0.0013109225
0.74418605 	0.0015556404 	0.00051846641 	2.6199643e-07 	0.0021933283 	1.1291218e-07 	0.00016989008
0.75581395 	0.0015488171 	0.00053609515 	8.6009573e-08 	0.0021652936 	-5.6510752e-07 	0.0012812411
0.76744186 	0.00154753 	0.00055349345 	2.6674015e-07 	0.0021295502 	4.233984e-08 	9.2883388e-06
0.77906977 	0.0015372937 	0.00057170919 	1.0370872e-07 	0.0020988979 	-6.8596182e-07 	0.0012384632
0.79069767 	0.0015331339 	0.00058931107 	2.3034374e-07 	0.0020618085 	-6.9134497e-09 	5.5054048e-05
0.80232558 	0.0015204644 	0.00060831429 	6.8289886e-08 	0.0020288761 	-4.418168e-07 	0.0011864429
0.81395349 	0.0015130811 	0.00062631026 	1.4280677e-07 	0.0019908328 	-1.9022435e-08 	0.00036507347
0.8255814 	0.0014996437 	0.0006453257 	1.5215291e-08 	0.0019557333 	-2.7245329e-09 	0.0010246763
0.8372093 	0.001488513 	0.0006631011 	2.0367575e-08 	0.0019177158 	-3.6471288e-09 	0.00095261024
0.84883721 	0.0014775622 	0.00067890271 	7.9344184e-08 	0.001879588 	-1.6528469e-08 	0.00028069003
0.86046512 	0.0014622649 	0.00069493189 	4.1477857e-08 	0.0018430029 	-4.26403e-07 	0.0010273961
0.87209302 	0.0014501962 	0.00070847931 	-7.0068104e-10 	0.0018042828 	-7.1299946e-09 	0.00081680869
0.88372093 	0.0014415369 	0.00071253264 	-1.5823601e-07 	0.0017617343 	-8.5985947e-08 	9.5812169e-05
0.89534884 	0.0014306984 	0.00071223905 	-2.0980961e-08 	0.001719617 	-1.1823214e-08 	0.00084246437
0.90697674 	0.0014260416 	0.00070542391 	-1.6391207e-07 	0.0016724276 	-6.5519277e-07 	0.00088995065
0.91860465 	0.0014239898 	0.00069865424 	-7.0407664e-08 	0.0016251256 	-2.8396646e-07 	0.00085468863
0.93023256 	0.0014249463 	0.0006924889 	-6.984106e-09 	0.0015813058 	-5.8505158e-09 	0.00077660059
0.94186047 	0.0014327119 	0.00068937814 	-6.9779287e-09 	0.0015483047 	-3.5904969e-08 	0.00079724824
0.95348837 	0.0014546989 	0.00069269458 	-8.429846e-09 	0.0015319825 	-5.823137e-09 	0.00062657508
0.96511628 	0.0014688228 	0.00069494628 	-3.9679036e-08 	0.0015195732 	-1.257854e-07 	0.00075914616
0.97674419 	0.0013167331 	0.00063139025 	-1.8851621e-07 	0.0013461281 	-4.0122898e-07 	6.2471239e-06
0.98837209 	0.00052283149 	0.00024502951 	-7.7207225e-07 	0.00052881632 	-1.6553643e-06 	0.00022531392
