0.4742268 	0.00012253489 	-3.5905929e-05 	3.0679074e-09 	0.00012234485 	-7.3771605e-09 	3.6946677e-05
0.48453608 	0.0030704396 	-0.0015165992 	2.2008706e-08 	0.0030581615 	-3.6420476e-08 	0.0010853131
0.49484536 	0.0030554978 	-0.0014568956 	1.4959753e-06 	0.0030362235 	-3.1666313e-06 	0.0014890813
0.50515464 	0.0020374034 	-0.00096599963 	-4.3523248e-08 	0.0020193607 	8.7788529e-08 	0.00083313023
0.51546392 	0.0014024669 	-0.00065045314 	1.356568e-07 	0.0013890688 	-1.763829e-07 	0.00063986363
0.5257732 	0.0012022282 	-0.00041369942 	1.8553493e-06 	0.0011964015 	-7.9809277e-07 	0.00057555664
0.53608247 	0.0011852423 	-0.00022018761 	3.7456292e-07 	0.0011874179 	-4.5397007e-09 	0.00056956649
0.54639175 	0.0012238366 	-7.1368854e-05 	-1.4024845e-08 	0.0012330697 	-1.5791194e-08 	0.00051272908
0.55670103 	0.0012717242 	4.6636886e-05 	-1.6904842e-08 	0.0012887162 	-2.1558822e-08 	0.00051128339
0.56701031 	0.0013182505 	0.00014515838 	8.0144863e-08 	0.0013423424 	2.4276839e-08 	0.00063504218
0.57731959 	0.0013607374 	0.00023021458 	5.1809901e-07 	0.0013910676 	1.4781696e-07 	0.00065992882
0.58762887 	0.0013988231 	0.00030534393 	7.5946716e-07 	0.0014347439 	1.8273724e-07 	0.00068363116
0.59793814 	0.0014327883 	0.00037244479 	2.0664327e-08 	0.0014737306 	3.5317776e-09 	0.00070566915
0.60824742 	0.0014624439 	0.00043167497 	-9.1374632e-08 	0.0015064746 	-1.2349625e-07 	1.9824031e-05
0.6185567 	0.0014877958 	0.00048352229 	1.225472e-07 	0.001537039 	8.205633e-09 	0.00072569928
0.62886598 	0.0015095892 	0.00052902252 	3.1898395e-07 	0.0015622204 	-3.1252426e-08 	0.00074318758
0.63917526 	0.0015281113 	0.00056880744 	-6.7172726e-08 	0.0015824936 	-9.3789674e-08 	0.0001426985
0.64948454 	0.0015429636 	0.00060255886 	1.5786256e-07 	0.0016009365 	-6.1974207e-08 	0.00075777848
0.65979381 	0.0015550985 	0.00063159604 	1.449146e-08 	0.0016150777 	-1.4927491e-08 	0.00076893002
0.67010309 	0.001563921 	0.0006552245 	-1.8770117e-08 	0.0016249439 	-3.0110489e-08 	0.00053721501
0.68041237 	0.0015701114 	0.00067472738 	7.0553417e-08 	0.0016326609 	-2.1874604e-07 	0.00077625744
0.69072165 	0.0015738189 	0.00069033951 	-3.2219113e-08 	0.0016360624 	-5.8825053e-08 	0.00027480633
0.70103093 	0.0015751943 	0.0007027175 	-1.9953587e-09 	0.0016386964 	-3.7887692e-07 	0.00077938216
0.71134021 	0.0015744345 	0.00071195605 	-2.563769e-08 	0.0016368472 	-5.5407378e-08 	0.00025375103
0.72164948 	0.001571834 	0.00071888428 	-7.520757e-08 	0.0016349034 	-3.9718348e-07 	0.00077808411
0.73195876 	0.0015674585 	0.00072326988 	-1.2320384e-08 	0.001629265 	-3.1587448e-08 	0.00044588948
0.74226804 	0.0015614468 	0.00072603677 	-7.2128931e-08 	0.0016230502 	-2.4830776e-07 	0.00077246429
0.75257732 	0.0015540907 	0.00072698823 	-3.5655729e-09 	0.0016144428 	-1.0669311e-08 	0.00065018442
0.7628866 	0.0015451647 	0.00072649211 	-4.0802357e-08 	0.0016045367 	-1.1413903e-07 	0.00076367691
0.77319588 	0.0015351459 	0.00072434955 	-2.4297139e-09 	0.0015929097 	-6.578944e-09 	0.00068392642
0.78350515 	0.0015239974 	0.00072046333 	-7.1966918e-08 	0.0015801579 	-1.7318746e-07 	0.00075303497
0.79381443 	0.0015119967 	0.00071521405 	-8.9169828e-09 	0.0015656314 	-2.0513553e-08 	0.00049706327
0.80412371 	0.0014989743 	0.00070881846 	-1.9503336e-07 	0.0015507039 	-4.4157769e-07 	0.00074121213
0.81443299 	0.0014852876 	0.00070166056 	-2.3046496e-08 	0.0015331598 	-5.2973746e-08 	6.9777739e-05
0.82474227 	0.00147034 	0.00069443994 	-1.9087198e-07 	0.0015166707 	-4.3262356e-07 	0.00072862823
0.83505155 	0.0014546186 	0.00068650413 	-2.2407744e-09 	0.001497905 	-5.1192911e-09 	0.0006513131
0.84536082 	0.0014377292 	0.0006779002 	-1.2426283e-08 	0.0014774823 	-2.8182502e-08 	0.00035496388
0.8556701 	0.0014194901 	0.00066892856 	-1.9228084e-07 	0.0014568959 	-4.3382808e-07 	0.00070183218
0.86597938 	0.001400186 	0.00065929387 	-6.2455322e-08 	0.00143456 	-1.4058464e-07 	0.0006878885
0.87628866 	0.0013799348 	0.0006489815 	-1.7283204e-08 	0.0014102981 	-3.8795054e-08 	0.00017806475
0.88659794 	0.0013590019 	0.00063859926 	-1.0369304e-08 	0.0013864739 	-2.3276577e-08 	0.00035430599
0.89690722 	0.0013386265 	0.00062842072 	-2.3107834e-08 	0.001363019 	-5.2454162e-08 	0.00066080095
0.90721649 	0.0013215359 	0.00061939315 	-8.4148557e-08 	0.001341268 	-1.9531401e-07 	0.00064958687
0.91752577 	0.0013122377 	0.0006136303 	-6.8643601e-08 	0.0013258569 	-1.6913989e-07 	0.00064223659
0.92783505 	0.0013207472 	0.00061579877 	-6.912516e-11 	0.0013268696 	-1.7102772e-08 	0.00064230928
0.93814433 	0.0013710283 	0.00063736017 	1.2633917e-09 	0.0013694084 	2.6321542e-09 	0.0006396007
0.94845361 	0.0015262396 	0.00070985066 	8.4802645e-08 	0.0015173258 	1.7412446e-07 	9.0140939e-05
0.95876289 	0.0018657056 	0.00087792434 	3.2673739e-07 	0.0018540159 	6.539397e-07 	0.00093875982
0.96907216 	0.0023272846 	0.0011030924 	9.458912e-08 	0.0023130129 	2.1195599e-07 	0.00030796404
0.97938144 	0.0024651363 	0.0011832057 	-2.862951e-08 	0.002455943 	-9.088774e-08 	0.0012138052
0.98969072 	0.0011721261 	0.0005470782 	-6.489798e-07 	0.00116991 	-1.3009703e-06 	0.0006111053
