0.4742268 	0.00012397692 	-3.6525411e-05 	2.9987231e-09 	0.00012378329 	-7.172357e-09 	3.7372811e-05
0.48453608 	0.0030815227 	-0.0015232078 	1.9562381e-08 	0.0030689188 	-3.2085325e-08 	0.0010883788
0.49484536 	0.0030299743 	-0.0014459382 	1.6208746e-06 	0.0030102447 	-3.4212008e-06 	0.0014218141
0.50515464 	0.0019981918 	-0.00094668581 	-3.6635566e-08 	0.0019801891 	7.3779566e-08 	0.00081738865
0.51546392 	0.0013868013 	-0.00064188347 	2.1071469e-07 	0.0013733698 	-2.5635049e-07 	0.00061052551
0.5257732 	0.0012040253 	-0.00040087432 	1.9621038e-06 	0.0011985813 	-7.2631445e-07 	0.00055487898
0.53608247 	0.0011942248 	-0.00020825235 	4.3202028e-07 	0.0011970078 	6.9157296e-09 	0.000552198
0.54639175 	0.0012350181 	-6.0475527e-05 	-9.9848208e-09 	0.0012450101 	-1.1364532e-08 	0.00051736227
0.55670103 	0.0012835525 	5.67701e-05 	-1.3189241e-08 	0.0013014934 	-1.6872321e-08 	0.00051608051
0.56701031 	0.0013301907 	0.00015485724 	1.1858894e-07 	0.001355245 	3.5944064e-08 	0.00061698127
0.57731959 	0.0013725462 	0.00023971979 	5.5067348e-07 	0.0014038949 	1.5532485e-07 	0.00064091424
0.58762887 	0.0014103927 	0.00031471346 	7.8802172e-07 	0.0014473822 	1.8499967e-07 	0.00066362913
0.59793814 	0.0014440556 	0.00038166101 	4.8854936e-08 	0.00148611 	7.9356049e-09 	0.00068468797
0.60824742 	0.0014733759 	0.00044070888 	-8.950971e-08 	0.0015186019 	-1.1990421e-07 	1.9971834e-05
0.6185567 	0.0014983283 	0.0004922318 	1.4470324e-07 	0.001548756 	7.9040563e-09 	0.00070376849
0.62886598 	0.0015197074 	0.00053734758 	3.3302794e-07 	0.0015735486 	-3.9284608e-08 	0.00072035484
0.63917526 	0.0015378212 	0.00057671301 	-6.5060992e-08 	0.0015934831 	-9.0105902e-08 	0.00014359941
0.64948454 	0.0015522063 	0.00060987581 	1.6734909e-07 	0.0016114162 	-7.2238129e-08 	0.00073410801
0.65979381 	0.0015638887 	0.00063830801 	2.3140158e-08 	0.0016251005 	-2.620968e-08 	0.00074451029
0.67010309 	0.0015722985 	0.00066134614 	-1.6499703e-08 	0.001634597 	-2.6500928e-08 	0.00054030894
0.68041237 	0.0015780224 	0.00068013383 	6.6591373e-08 	0.0016417598 	-2.4054495e-07 	0.00075120495
0.69072165 	0.0015813474 	0.00069514635 	-3.0130448e-08 	0.0016447972 	-5.5626201e-08 	0.00027624201
0.70103093 	0.0015823009 	0.00070685814 	-1.2685557e-08 	0.0016469018 	-4.0731078e-07 	0.00075384762
0.71134021 	0.0015812167 	0.0007155822 	-2.3665529e-08 	0.0016447262 	-5.2524368e-08 	0.00025494784
0.72164948 	0.0015782619 	0.00072197896 	-8.6719294e-08 	0.001642303 	-4.2828737e-07 	0.00075225633
0.73195876 	0.0015736394 	0.00072601917 	-1.0789979e-08 	0.0016364054 	-2.8946726e-08 	0.00044779255
0.74226804 	0.0015673501 	0.00072843136 	-8.2536992e-08 	0.0016297813 	-2.782441e-07 	0.00074656116
0.75257732 	0.0015598063 	0.00072915857 	-2.6090194e-09 	0.0016209724 	-8.1956953e-09 	0.00065273042
0.7628866 	0.0015506748 	0.0007284117 	-5.0124943e-08 	0.0016107402 	-1.4192419e-07 	0.00073789039
0.77319588 	0.0015404948 	0.00072638937 	-1.5450183e-09 	0.0015989841 	-4.2562976e-09 	0.00068643902
0.78350515 	0.0015291749 	0.00072280734 	-8.195358e-08 	0.0015860161 	-2.003615e-07 	0.00072751172
0.79381443 	0.0015170475 	0.00071773207 	-7.9982727e-09 	0.0015714286 	-1.8423291e-08 	0.00049882383
0.80412371 	0.0015039158 	0.00071127305 	-2.0709455e-07 	0.0015563338 	-4.689433e-07 	0.00071604035
0.81443299 	0.0014901619 	0.00070409078 	-2.2288913e-08 	0.0015387532 	-5.1314905e-08 	7.0020551e-05
0.82474227 	0.001475161 	0.00069682533 	-2.0196188e-07 	0.0015221249 	-4.580223e-07 	0.00070386854
0.83505155 	0.001459416 	0.00068888257 	-1.3205282e-09 	0.0015033405 	-3.0225326e-09 	0.00065357137
0.84536082 	0.0014425062 	0.00068025891 	-1.1611087e-08 	0.0014828468 	-2.6392541e-08 	0.00035619484
0.8556701 	0.0014242391 	0.00067125417 	-2.0254824e-07 	0.0014621385 	-4.572548e-07 	0.0006780088
0.86597938 	0.0014048927 	0.00066158858 	-7.2227787e-08 	0.0014397142 	-1.6266039e-07 	0.00066454076
0.87628866 	0.0013845372 	0.00065122956 	-1.6658767e-08 	0.00141535 	-3.7456953e-08 	0.00017867363
0.88659794 	0.0013633774 	0.00064073681 	-9.7859313e-09 	0.001391273 	-2.1976912e-08 	0.00035551676
0.89690722 	0.0013425687 	0.00063034953 	-3.1466461e-08 	0.0013673465 	-7.1358616e-08 	0.00063816682
0.90721649 	0.0013246148 	0.00062093519 	-9.3542494e-08 	0.0013448037 	-2.1639409e-07 	0.0006269951
0.91752577 	0.0013137429 	0.00061446708 	-7.9085572e-08 	0.0013279244 	-1.9263646e-07 	0.00061924831
0.92783505 	0.0013193058 	0.00061527589 	-8.553709e-09 	0.0013260316 	-3.6798798e-08 	0.00061811848
0.93814433 	0.001363589 	0.00063400899 	1.9808114e-09 	0.0013624792 	3.8808833e-09 	0.00063014915
0.94845361 	0.0015077073 	0.0007009824 	7.8960612e-08 	0.0014990949 	1.6217455e-07 	8.9304834e-05
0.95876289 	0.001835158 	0.00086315786 	3.7936065e-07 	0.0018234665 	7.5618029e-07 	0.00088871787
0.96907216 	0.0022994545 	0.0010906043 	9.4781253e-08 	0.0022850288 	2.1156018e-07 	0.00030477749
0.97938144 	0.002455468 	0.0011798022 	-3.2871033e-08 	0.0024459489 	-1.1031376e-07 	0.0011636341
0.98969072 	0.0011746074 	0.00054843632 	-7.4166229e-07 	0.0011722909 	-1.4838344e-06 	0.00058945939
