8.2204959e-36 	0.011031674 	-7.4920934e-16 	-2.7231988e-22 	2.8038831e-18 	3.1376762e-32 	2.8701139e-18
0.010869565 	0.011052435 	-0.00047843517 	-1.5132457e-07 	0.012652561 	-5.0984472e-05 	0.0036754967
0.02173913 	0.01112093 	-0.001030255 	-1.8685877e-07 	0.012716894 	-3.1174639e-05 	0.0044612719
0.032608696 	0.011226078 	-0.0015815676 	-3.1711274e-08 	0.012811778 	-6.1953667e-06 	0.005234813
0.043478261 	0.011366641 	-0.0021278693 	-6.2925436e-08 	0.012936205 	-2.1726295e-05 	0.0060202352
0.054347826 	0.011541527 	-0.0026725971 	5.099098e-07 	0.013083545 	-2.6675294e-06 	0.0024923163
0.065217391 	0.011759228 	-0.0032409944 	7.1434844e-07 	0.013270456 	-3.2290404e-06 	0.0023871227
0.076086957 	0.011972474 	-0.0037263387 	8.6126744e-07 	0.01345259 	-3.3451757e-06 	0.0029589483
0.086956522 	0.012214191 	-0.0042279558 	3.797499e-08 	0.013664553 	-2.1442827e-06 	0.0091755401
0.097826087 	0.012479708 	-0.0047256146 	1.053231e-08 	0.013886204 	-3.1522575e-07 	0.010052532
0.10869565 	0.012763433 	-0.0052127492 	1.8471717e-06 	0.014106391 	-5.5593287e-06 	0.001777551
0.11956522 	0.013035403 	-0.0056630801 	6.9455222e-07 	0.014332126 	-1.8914142e-06 	0.0085351735
0.13043478 	0.013314713 	-0.0060961348 	6.3213398e-07 	0.0145474 	-1.721436e-06 	0.0096623167
0.14130435 	0.01358898 	-0.006487553 	2.7473176e-06 	0.014735034 	-6.8829611e-06 	0.0018872204
0.15217391 	0.01383751 	-0.0068395124 	4.0733396e-07 	0.014927038 	-2.2142743e-06 	0.014032899
0.16304348 	0.014068191 	-0.0071327093 	3.2820435e-06 	0.015055456 	-7.6869653e-06 	0.0018870108
0.17391304 	0.014265553 	-0.0073956871 	5.9849654e-07 	0.015189039 	-1.3233326e-06 	0.013010136
0.18478261 	0.014418024 	-0.0076065776 	3.0888837e-06 	0.015231786 	-6.8298148e-06 	0.0030832321
0.19565217 	0.014538516 	-0.0077949959 	3.4536256e-07 	0.015276455 	-7.2245328e-07 	0.013019601
0.20652174 	0.014580114 	-0.0079222399 	3.1043462e-06 	0.015196312 	-6.493886e-06 	0.0021325792
0.2173913 	0.014598887 	-0.0080350809 	1.6863146e-06 	0.015134217 	-4.5831828e-06 	0.013226316
0.22826087 	0.014489362 	-0.0080567514 	3.094665e-06 	0.014896525 	-6.1238679e-06 	0.00074570659
0.23913043 	0.014378177 	-0.0080782128 	4.5285781e-08 	0.014704014 	-8.9613621e-08 	0.011764377
0.25 	0.014095887 	-0.007983502 	1.4184577e-06 	0.01430687 	-2.6611647e-06 	0.0053661081
0.26086957 	0.013778749 	-0.007864501 	1.0081508e-06 	0.013892969 	-1.891389e-06 	0.0062933107
0.27173913 	0.013365222 	-0.0076814157 	1.3109834e-06 	0.013391898 	-2.7292047e-06 	0.010009546
0.2826087 	0.012764627 	-0.0073709779 	1.5592142e-06 	0.012689777 	-2.8226337e-06 	0.0004035447
0.29347826 	0.012188119 	-0.0070759649 	3.5118728e-06 	0.01204994 	-6.5351337e-06 	0.0081729468
0.30434783 	0.011388367 	-0.0066263646 	7.6827638e-08 	0.0111856 	-1.76611e-07 	0.0062062562
0.31521739 	0.010484691 	-0.0061028215 	2.2831062e-07 	0.010228424 	-5.2483934e-07 	0.0020435307
0.32608696 	0.0095596258 	-0.0055594526 	1.5376715e-05 	0.0092770395 	-2.5876509e-05 	0.0057699072
0.33695652 	0.008475074 	-0.0048986028 	-2.4352076e-07 	0.0081801095 	2.8526075e-07 	0.0040168586
0.34782609 	0.0073184933 	-0.0041801613 	-4.752384e-07 	0.0070298145 	5.5669531e-07 	0.0014820895
0.35869565 	0.0062223215 	-0.003502687 	1.8466928e-05 	0.0059563734 	-2.9435761e-05 	0.0032927852
0.36956522 	0.0051184961 	-0.0028207883 	-1.0337275e-07 	0.0048830357 	1.4129471e-07 	0.0028804976
0.38043478 	0.0040386922 	-0.0021536202 	-7.3536144e-07 	0.0038470074 	1.0051264e-06 	0.00039148792
0.39130435 	0.0031330097 	-0.0016000318 	8.9495608e-06 	0.0029831544 	-1.4445794e-05 	0.0012951978
0.40217391 	0.0023887505 	-0.001153293 	6.1524913e-06 	0.0022719699 	-9.9309482e-06 	0.0012565549
0.41304348 	0.0018108611 	-0.00081541212 	-3.9055463e-07 	0.0017189538 	6.2307892e-07 	0.0001707318
0.42391304 	0.0013532657 	-0.0005516251 	3.9491429e-07 	0.0012834173 	-5.9061341e-07 	0.0004235579
0.43478261 	0.0011044325 	-0.00038064993 	7.0517806e-06 	0.0010418518 	-1.0546279e-05 	0.00041216863
0.44565217 	0.00086813686 	-0.00021503222 	-6.2435894e-09 	0.0008119564 	1.452642e-08 	0.0003685146
0.45652174 	0.00081560251 	-0.00012942114 	-4.9555091e-08 	0.00075378549 	1.1529555e-07 	0.00010470182
0.4673913 	0.00078750932 	-5.2189891e-05 	1.5694006e-06 	0.00071981771 	-6.0424842e-07 	0.00029726731
0.47826087 	0.00078488752 	2.0966693e-05 	2.4706432e-06 	0.00070927222 	-9.5124355e-07 	0.00029044174
0.48913043 	0.00078989362 	9.3125859e-05 	-1.1784947e-09 	0.00070587927 	1.1659219e-08 	0.00021753746
0.5 	0.00082904872 	0.00016022933 	-2.2139106e-09 	0.00073524147 	2.1902915e-08 	0.0001811224
0.51086957 	0.00086580046 	0.00021265449 	1.2520803e-06 	0.00076466465 	3.9373184e-07 	0.00032176193
0.52173913 	0.00090163734 	0.00025795847 	1.2610128e-06 	0.0007938938 	3.9654078e-07 	0.00031554865
0.5326087 	0.00093635377 	0.00029801961 	3.9158628e-09 	0.00082272236 	5.3903421e-09 	0.00019852045
0.54347826 	0.00096843584 	0.00032373878 	1.7237161e-09 	0.00085200922 	2.3727643e-09 	0.00028768423
0.55434783 	0.00099544284 	0.0003412973 	4.0948643e-07 	0.00087724801 	3.0770942e-07 	0.00033733851
0.56521739 	0.0010217936 	0.00035780848 	1.8450543e-07 	0.00090185631 	1.3864698e-07 	0.00033195175
0.57608696 	0.0010442466 	0.00036917785 	2.8063141e-08 	0.00092285489 	1.5372332e-09 	3.3535941e-05
0.58695652 	0.0010626122 	0.00037682353 	-1.1113484e-08 	0.00094178493 	-3.015541e-08 	0.00034382391
0.59782609 	0.0010779663 	0.00038304832 	-2.51894e-08 	0.00095725162 	-6.8349105e-08 	0.00033942439
0.60869565 	0.0010927219 	0.00038905679 	9.1347897e-09 	0.00097203006 	-2.4340165e-11 	0.0002637929
0.61956522 	0.001103119 	0.00039416552 	-2.588389e-09 	0.00098319893 	-1.8522466e-08 	0.00034142172
0.63043478 	0.0011108666 	0.00039984694 	-5.4405736e-08 	0.00099174888 	-3.8932648e-07 	0.0003379704
0.64130435 	0.0011186142 	0.00040552836 	-4.2360848e-09 	0.0010002988 	-3.0313348e-08 	0.00033451909
0.65217391 	0.0011236841 	0.00041182366 	4.5720115e-09 	0.0010064377 	2.9878115e-10 	0.000298864
0.66304348 	0.0011270424 	0.00041901151 	1.4713111e-08 	0.0010115357 	-4.9304381e-07 	0.00033316125
0.67391304 	0.0011303164 	0.00042620461 	1.0173841e-09 	0.0010164987 	-3.4093056e-08 	0.00033052209
0.68478261 	0.0011321327 	0.00043388797 	3.1080678e-09 	0.0010206081 	-2.5526374e-08 	0.00033025586
0.69565217 	0.0011333631 	0.00044220677 	5.1951698e-08 	0.0010248837 	-4.2667616e-07 	0.00032826856
0.70652174 	0.0011345538 	0.00045044096 	8.9949786e-09 	0.001028972 	2.9747339e-09 	0.00021164297
0.7173913 	0.0011358521 	0.00045970939 	5.1799341e-08 	0.0010345924 	-1.3383512e-07 	0.00032680873
0.72826087 	0.0011379139 	0.00047013906 	6.5906375e-08 	0.0010413079 	-1.7028378e-07 	0.00032533209
0.73913043 	0.0011408903 	0.00048132209 	1.0770939e-08 	0.001048927 	6.2307789e-09 	0.00015255129
0.75 	0.0011483686 	0.00049486319 	2.3228215e-07 	0.0010631841 	-1.4607052e-08 	0.00032789211
0.76086957 	0.0011574741 	0.00050851863 	3.4756294e-09 	0.001078767 	6.3872682e-09 	0.00020862446
0.77173913 	0.0011780371 	0.00052574844 	2.5237787e-07 	0.0011073002 	4.030237e-07 	0.0003391703
0.7826087 	0.0012067228 	0.00054622641 	7.273818e-08 	0.0011437943 	1.1615603e-07 	0.00033839954
0.79347826 	0.0012592907 	0.00057748599 	4.2428328e-07 	0.0012034008 	7.3804815e-07 	0.00037054596
0.80434783 	0.0013440601 	0.00062794898 	4.3514614e-07 	0.0012938708 	7.5694428e-07 	0.00037005731
0.81521739 	0.0014750325 	0.00070577457 	7.8175829e-07 	0.0014285318 	1.3234757e-06 	0.00044867395
0.82608696 	0.0016779179 	0.00082482397 	9.7914197e-07 	0.001633182 	1.6576358e-06 	0.00044849665
0.83695652 	0.0019654768 	0.00098779111 	1.8967548e-06 	0.0019214378 	3.5201768e-06 	0.00060756214
0.84782609 	0.0023319714 	0.0011847438 	3.7224944e-07 	0.0022881667 	6.9085571e-07 	0.00060772673
0.85869565 	0.0028095379 	0.0014210842 	4.3815584e-06 	0.0027673516 	9.2131351e-06 	0.00084468427
0.86956522 	0.0033352424 	0.001669611 	2.4852763e-08 	0.0032937276 	1.7759098e-07 	4.8547499e-05
0.88043478 	0.0039300321 	0.0019347003 	3.7817272e-06 	0.0038957394 	8.7434067e-06 	0.0011258498
0.89130435 	0.0045257312 	0.0021920838 	1.7051309e-06 	0.0044996023 	4.1985326e-06 	0.0014028836
0.90217391 	0.005081043 	0.0024255587 	-1.9483839e-08 	0.0050644897 	3.2191745e-08 	0.00051070161
0.91304348 	0.0055129961 	0.0026041774 	1.4813978e-06 	0.0055152578 	3.9136662e-06 	0.0016217059
0.92391304 	0.0057554498 	0.0027014109 	8.1658083e-08 	0.0057782308 	8.7376696e-07 	0.0017303414
0.93478261 	0.0057513563 	0.0026916797 	-8.0939468e-07 	0.0057975714 	-1.5590574e-06 	0.0017034629
0.94565217 	0.0053827515 	0.0025201079 	-2.9882488e-06 	0.0054548569 	-6.2309376e-06 	0.0016091676
0.95652174 	0.0046741403 	0.0021933324 	-8.6252668e-08 	0.0047640219 	-1.8417566e-07 	0.00043306596
0.9673913 	0.0036372949 	0.0017130453 	-1.6078057e-06 	0.0037354701 	-3.4605797e-06 	0.0011269489
0.97826087 	0.0023733265 	0.0011199143 	4.0597819e-10 	0.0024470592 	-5.3834518e-09 	0.00024671176
0.98913043 	0.00072928736 	0.00027522654 	3.5451711e-08 	0.00073892432 	2.0501775e-08 	6.8241593e-05
