0.27835052 	0.00051002034 	-0.00017180089 	2.0720404e-07 	0.00032506214 	-3.79546e-07 	0.00030066268
0.28865979 	0.0016413255 	-0.00034197097 	6.1526175e-07 	0.0016945215 	1.026343e-06 	0.00075983206
0.29896907 	0.0014581309 	6.2058117e-05 	1.8565744e-07 	0.0024665486 	1.7386691e-07 	0.00050141451
0.30927835 	0.0014124923 	9.928199e-05 	-7.3571473e-08 	0.002480776 	-7.2044202e-07 	0.00035246527
0.31958763 	0.0013810949 	7.9346705e-05 	-6.3441918e-09 	0.002431455 	-3.9612503e-08 	0.00020561862
0.32989691 	0.0013566285 	7.1258609e-05 	-5.1067342e-08 	0.0023980432 	-6.0499785e-07 	7.6096736e-05
0.34020619 	0.0013355989 	7.0424492e-05 	-1.9973989e-08 	0.0023746493 	-6.1244174e-07 	5.6037006e-05
0.35051546 	0.0013190364 	7.3953921e-05 	5.5204939e-11 	0.002361817 	-1.6618493e-07 	0.00017556275
0.36082474 	0.0013064423 	7.9259643e-05 	3.147013e-07 	0.0023558006 	-5.653455e-07 	4.0645954e-05
0.37113402 	0.0012983208 	8.7069975e-05 	8.9411695e-08 	0.002359198 	-1.4364774e-07 	0.00033364136
0.3814433 	0.001292733 	9.5965198e-05 	2.1730248e-08 	0.0023665379 	-4.3327455e-07 	0.00051119459
0.39175258 	0.001288941 	0.00010571578 	8.0155418e-09 	0.0023765379 	-1.0719818e-07 	0.00062101731
0.40206186 	0.0012863528 	0.00011381667 	9.0943682e-07 	0.0023853036 	-1.1984288e-06 	7.8680234e-05
0.41237113 	0.0012861877 	0.00012588324 	2.2663411e-07 	0.0024032869 	-2.7552731e-07 	0.00066974706
0.42268041 	0.0012864019 	0.0001371051 	3.8440447e-07 	0.002418747 	-4.6733447e-07 	0.00066441032
0.43298969 	0.001287317 	0.00014702993 	1.2160883e-06 	0.0024325839 	-1.3860993e-06 	0.00019349963
0.44329897 	0.0012893156 	0.00016165443 	4.3292541e-08 	0.0024549068 	-4.9344905e-08 	0.0010399628
0.45360825 	0.0012912093 	0.00017089128 	1.2920213e-06 	0.0024667545 	-1.4069702e-06 	7.2260172e-05
0.46391753 	0.0012938798 	0.00018646947 	1.9875749e-08 	0.0024894838 	-1.134322e-07 	0.00094676314
0.4742268 	0.0012964819 	0.00019680549 	1.0221322e-06 	0.0025023787 	-1.086945e-06 	0.00013938582
0.48453608 	0.0012993466 	0.00021238946 	6.2417199e-08 	0.0025233724 	-3.3216758e-07 	0.00083590893
0.49484536 	0.0013021921 	0.00022337048 	9.7412993e-07 	0.0025356088 	-1.0366198e-06 	4.3999593e-05
0.50515464 	0.0013050064 	0.000239378 	1.0606613e-07 	0.0025551829 	-5.379079e-07 	0.00073832702
0.51546392 	0.0013077479 	0.00025188029 	5.6752488e-07 	0.0025672435 	-6.2090241e-07 	0.00023282082
0.5257732 	0.0013103937 	0.00026753063 	5.0519295e-08 	0.0025835858 	-2.4568671e-07 	0.00065309448
0.53608247 	0.00131274 	0.00028183806 	1.6403648e-08 	0.0025953582 	-7.9774633e-08 	0.00060387638
0.54639175 	0.0013151843 	0.0002962779 	2.3580299e-07 	0.00260602 	-2.736709e-07 	0.00036955526
0.55670103 	0.001317128 	0.00031182654 	2.3777489e-07 	0.0026159138 	-1.1364214e-06 	0.00053891818
0.56701031 	0.0013190743 	0.00032638702 	2.7605787e-07 	0.0026228469 	-3.5276615e-07 	0.00023183344
0.57731959 	0.0013207561 	0.00034292269 	1.0266602e-07 	0.0026305102 	-5.0034915e-07 	0.00048440416
0.58762887 	0.0013220346 	0.00035842555 	2.0029187e-07 	0.002634125 	-9.7613478e-07 	0.00045361267
0.59793814 	0.0013234365 	0.00037372332 	3.5093824e-07 	0.0026355339 	-5.1703113e-07 	1.9057546e-05
0.60824742 	0.0013242953 	0.00039066524 	2.0367049e-07 	0.002637066 	-1.0942858e-06 	0.00041772354
0.6185567 	0.0013249191 	0.00040625898 	2.115304e-07 	0.0026349454 	-1.1365158e-06 	0.00039664938
0.62886598 	0.001325684 	0.00042183898 	2.4966215e-07 	0.0026306091 	-4.4768296e-07 	8.4829034e-06
0.63917526 	0.0013259029 	0.00043870086 	2.2150837e-07 	0.002625091 	-1.3548474e-06 	0.0003772023
0.64948454 	0.0013259171 	0.00045419811 	2.1687185e-07 	0.0026165452 	-1.3264883e-06 	0.00036557519
0.65979381 	0.0013261226 	0.000469653 	1.6782142e-07 	0.0026058743 	-3.8964085e-07 	1.1636822e-05
0.67010309 	0.0013257532 	0.00048602926 	2.2686912e-07 	0.0025926853 	-1.6379459e-06 	0.00036105914
0.68041237 	0.001325232 	0.00050121311 	1.4824068e-07 	0.0025771277 	-1.0702656e-06 	0.00035778779
0.69072165 	0.0013249598 	0.0005168277 	3.4403865e-08 	0.0025595816 	-1.118208e-07 	0.00025402705
0.70103093 	0.0013240639 	0.00053137484 	2.5740661e-07 	0.0025378457 	-2.3920714e-06 	0.00036744193
0.71134021 	0.0013231389 	0.0005456143 	2.1828411e-08 	0.0025154771 	-2.0285073e-07 	0.00037112794
0.72164948 	0.0013224481 	0.0005599175 	6.7887288e-08 	0.0024891565 	-8.745898e-07 	0.00038378972
0.73195876 	0.0013213044 	0.00057290261 	1.1056613e-07 	0.0024604868 	-1.42442e-06 	0.00039312964
0.74226804 	0.0013205746 	0.00058604683 	1.1504612e-08 	0.0024299813 	-1.3308617e-07 	0.00024463975
0.75257732 	0.0013193887 	0.00059781701 	1.1271868e-07 	0.0023965042 	-2.2966185e-06 	0.00042061435
0.7628866 	0.0013186465 	0.00060929195 	-2.5288341e-09 	0.0023611121 	-2.1317096e-07 	0.00013779451
0.77319588 	0.0013176184 	0.00061986722 	4.0817706e-08 	0.0023238328 	-1.8485914e-06 	0.00045294584
0.78350515 	0.0013168526 	0.00062965545 	-8.3035121e-09 	0.0022845987 	-8.5937031e-08 	0.00032896316
0.79381443 	0.0013161803 	0.00063857831 	-6.4713785e-09 	0.0022434263 	-1.4928706e-06 	0.00048920919
0.80412371 	0.0013156728 	0.00064654312 	-1.8775742e-08 	0.0022006817 	-9.542425e-08 	0.00032345456
0.81443299 	0.0013149929 	0.0006534007 	-4.9018162e-08 	0.0021570714 	-1.5439996e-06 	0.00052837194
0.82474227 	0.0013148169 	0.00065934571 	-6.1309571e-08 	0.0021114478 	-1.983994e-07 	9.3579695e-05
0.83505155 	0.0013134653 	0.00066376169 	-8.6707183e-08 	0.0020670445 	-1.4439412e-06 	0.0005693766
0.84536082 	0.0013126398 	0.00066734744 	-2.5502846e-08 	0.0020209441 	-6.2740726e-08 	0.00041561737
0.8556701 	0.0013109574 	0.00066949228 	-2.1453193e-08 	0.001975289 	-2.4793388e-07 	0.00061130852
0.86597938 	0.0013094764 	0.00067065599 	-9.4523938e-08 	0.0019289734 	-8.8899816e-07 	0.00062883366
0.87628866 	0.00130865 	0.00067108116 	-6.6774182e-08 	0.0018811889 	-1.1919852e-07 	0.00019511713
0.88659794 	0.001307838 	0.00067095566 	-3.2280084e-09 	0.0018345051 	-2.8071173e-08 	0.00067057421
0.89690722 	0.0013095859 	0.00067063185 	-1.1582864e-07 	0.0017856317 	-1.0281667e-06 	0.00068733327
0.90721649 	0.0013141337 	0.00067042989 	-2.1628779e-08 	0.0017354795 	-2.0597237e-07 	0.00070439406
0.91752577 	0.0013235312 	0.00067054068 	-4.1088395e-08 	0.0016835227 	-6.7742983e-08 	0.00032788235
0.92783505 	0.0013376524 	0.00067101716 	-5.7200214e-08 	0.0016327328 	-9.7701959e-08 	6.0226214e-05
0.93814433 	0.0013564633 	0.00067217446 	-3.2397561e-08 	0.0015869724 	-5.778915e-08 	0.00026674703
0.94845361 	0.0013783948 	0.00067416304 	-2.7852867e-08 	0.0015511033 	-5.1432082e-08 	0.00029730951
0.95876289 	0.0014059468 	0.00067795491 	-2.3542653e-08 	0.0015239053 	-1.3898773e-07 	0.00081795912
0.96907216 	0.0013971753 	0.00066650344 	-9.3984934e-09 	0.0014736788 	-1.9806471e-08 	0.00075652532
0.97938144 	0.001198662 	0.00057530348 	-1.0175889e-08 	0.0012385395 	-2.498949e-08 	0.00074528969
0.98969072 	0.00044693058 	0.0002090328 	-7.2066132e-08 	0.00045181011 	-1.577551e-07 	0.00011948448
