1.4213861e-19 	0.63979853 	-4.3451859e-14 	-1.5793601e-20
0.010869565 	0.64030548 	-0.00045287718 	4.3213762e-08
0.02173913 	0.64188921 	-0.00090032917 	1.6700672e-08
0.032608696 	0.64461967 	-0.0013470796 	5.5118497e-09
0.043478261 	0.64848998 	-0.0017878382 	6.7383097e-08
0.054347826 	0.65350819 	-0.0022250233 	2.5586962e-07
0.065217391 	0.66010207 	-0.0026807499 	4.4675582e-07
0.076086957 	0.66679863 	-0.0030627238 	1.5014265e-07
0.086956522 	0.67511455 	-0.0034595 	5.1837929e-07
0.097826087 	0.68442126 	-0.0038425982 	7.9448324e-07
0.10869565 	0.69473228 	-0.004214279 	4.2075014e-07
0.11956522 	0.70615763 	-0.0045587273 	1.0600186e-06
0.13043478 	0.71847547 	-0.0048850326 	1.7832051e-06
0.14130435 	0.73160231 	-0.0051912117 	2.4485116e-07
0.15217391 	0.74591741 	-0.005455006 	4.8099845e-06
0.16304348 	0.76055993 	-0.0057080866 	1.1523866e-07
0.17391304 	0.7764858 	-0.0059168915 	5.6508548e-06
0.18478261 	0.79256767 	-0.0061176228 	1.256296e-06
0.19565217 	0.80971316 	-0.006268682 	7.1929903e-06
0.20652174 	0.82700185 	-0.0064133735 	1.4540435e-07
0.2173913 	0.84547905 	-0.006488557 	1.0482043e-05
0.22826087 	0.86400227 	-0.0065628724 	9.4340181e-08
0.23913043 	0.88366671 	-0.0065643952 	1.0008906e-05
0.25 	0.903484 	-0.006553718 	3.5140491e-06
0.26086957 	0.92407176 	-0.006492757 	4.5155737e-06
0.27173913 	0.94521397 	-0.0063815494 	1.1504654e-05
0.2826087 	0.96693376 	-0.006251842 	7.6211376e-07
0.29347826 	0.98885985 	-0.0060465122 	1.2668376e-05
0.30434783 	1.011247 	-0.0058183984 	6.8325715e-06
0.31521739 	1.0343896 	-0.0055421684 	3.1413567e-07
0.32608696 	1.0575378 	-0.0052024748 	1.8761104e-05
0.33695652 	1.0809291 	-0.0048499882 	4.0559028e-06
0.34782609 	1.1051052 	-0.0044336429 	1.4546669e-07
0.35869565 	1.1284586 	-0.003962423 	2.0762812e-05
0.36956522 	1.1519385 	-0.0034719622 	5.4400458e-06
0.38043478 	1.1757767 	-0.0029024089 	-1.5793515e-07
0.39130435 	1.1967191 	-0.0023680605 	1.3065307e-05
0.40217391 	1.2163904 	-0.0018532126 	1.120216e-05
0.41304348 	1.2345212 	-0.001358452 	-3.2337205e-07
0.42391304 	1.2499988 	-0.00091018942 	3.4172168e-07
0.43478261 	1.2596735 	-0.0005764736 	1.4012389e-05
0.44565217 	1.2689931 	-0.00024959965 	-2.0244807e-08
0.45652174 	1.2721783 	-4.1698567e-05 	-2.2799434e-07
0.4673913 	1.2745314 	0.00015250522 	2.2159493e-06
0.47826087 	1.2753516 	0.00032945778 	4.9704833e-06
0.48913043 	1.275394 	0.00049954852 	-1.627061e-07
0.5 	1.2737551 	0.00065619026 	-3.087778e-07
0.51086957 	1.2720091 	0.00080737221 	1.966715e-06
0.52173913 	1.2700437 	0.0009447806 	2.5148518e-06
0.5326087 	1.2678722 	0.001074233 	-4.1528563e-07
0.54347826 	1.2654463 	0.001202307 	-3.9745079e-07
0.55434783 	1.262932 	0.0013291628 	2.2271438e-06
0.56521739 	1.2603831 	0.0014492807 	5.3891314e-07
0.57608696 	1.2577523 	0.0015622 	-1.0107051e-06
0.58695652 	1.2549973 	0.0016857581 	-4.9993102e-08
0.59782609 	1.2521871 	0.0017965222 	1.8136037e-06
0.60869565 	1.2493509 	0.0019029064 	-7.0827109e-07
0.61956522 	1.2464082 	0.002011778 	-5.9103879e-07
0.63043478 	1.2433628 	0.002119589 	1.9111082e-06
0.64130435 	1.2402835 	0.0022219481 	-5.2358872e-07
0.65217391 	1.237098 	0.0023260239 	-9.5876291e-07
0.66304348 	1.2337631 	0.0024320427 	1.4604056e-06
0.67391304 	1.2303681 	0.0025312602 	-6.8308206e-07
0.68478261 	1.2268251 	0.0026331149 	-9.0453985e-07
0.69565217 	1.2230827 	0.0027346405 	1.2099512e-06
0.70652174 	1.2192247 	0.0028296349 	-1.4396023e-06
0.7173913 	1.21513 	0.0029315971 	-1.4913509e-07
0.72826087 	1.2107198 	0.0030266311 	2.5683476e-07
0.73913043 	1.206029 	0.0031194161 	-2.0644463e-06
0.75 	1.2007902 	0.0032190774 	9.47566e-07
0.76086957 	1.1949359 	0.0033128369 	-1.7947599e-06
0.77173913 	1.1883245 	0.0034149221 	2.186871e-07
0.7826087 	1.180032 	0.0035165449 	-7.7505987e-07
0.79347826 	1.1702492 	0.0036267434 	-4.77869e-07
0.80434783 	1.1575151 	0.0037470231 	-2.193904e-07
0.81521739 	1.1414616 	0.0038828938 	-7.7921651e-07
0.82608696 	1.1212952 	0.0040280878 	-3.2825087e-07
0.83695652 	1.0962314 	0.0041863706 	-3.048348e-07
0.84782609 	1.0655016 	0.0043432129 	-1.2843083e-06
0.85869565 	1.0290288 	0.0045026616 	6.8926586e-07
0.86956522 	0.98621953 	0.0046430201 	-3.2349281e-06
0.88043478 	0.93642142 	0.0047707219 	3.3382431e-07
0.89130435 	0.8797288 	0.0048566632 	-3.6382918e-07
0.90217391 	0.81669454 	0.0048688795 	-2.6995595e-06
0.91304348 	0.7472654 	0.0048040605 	-4.3226796e-07
0.92391304 	0.67394687 	0.0046097803 	-2.0585469e-06
0.93478261 	0.59916241 	0.0042666893 	-1.1295919e-07
0.94565217 	0.51846855 	0.0037207129 	-4.0531954e-06
0.95652174 	0.44259235 	0.0030130517 	-1.9965665e-06
0.9673913 	0.36850721 	0.0021356843 	-7.551731e-08
0.97826087 	0.29415303 	0.0011836104 	-9.7273062e-07
0.98913043 	0.18535179 	0.00037630864 	-3.7188172e-07
