0.47826087 	0.0013061971 	-0.00060737679 	1.0925802e-08 	0.0013037879 	-2.3276683e-08 	0.00067151928
0.48913043 	0.0033259441 	-0.0015873919 	1.4826517e-10 	0.0033112068 	8.8520724e-09 	0.0013004749
0.5 	0.0027428959 	-0.0013059516 	-5.083811e-09 	0.0027246477 	1.1132943e-08 	0.0015909319
0.51086957 	0.0017685595 	-0.00083321388 	6.6954308e-07 	0.0017535772 	-1.3522128e-06 	0.0010561604
0.52173913 	0.0012812557 	-0.00055671921 	-1.0775483e-07 	0.0012701282 	9.8743008e-08 	0.00012700138
0.5326087 	0.0011526494 	-0.00033767845 	2.1959113e-07 	0.001149932 	-3.6832246e-08 	0.0006564219
0.54347826 	0.0011622675 	-0.00016346289 	1.2039253e-06 	0.0011667985 	1.3407506e-07 	0.00066688225
0.55434783 	0.0012050766 	-2.7827697e-05 	7.2632134e-07 	0.0012167531 	1.7767657e-07 	0.00069145606
0.56521739 	0.0012529757 	8.2169374e-05 	5.9812213e-07 	0.0012717618 	1.7674968e-07 	0.00072023323
0.57608696 	0.0012986102 	0.00017525606 	7.6034298e-07 	0.0013237688 	2.2488081e-07 	0.00074967648
0.58695652 	0.0013401506 	0.00025635883 	4.2113657e-07 	0.0013710211 	1.114109e-07 	0.00077825078
0.59782609 	0.0013773213 	0.00032799848 	-1.7057284e-08 	0.0014130291 	-2.3928658e-08 	0.00067417552
0.60869565 	0.0014100816 	0.00039130205 	-8.8881479e-08 	0.0014491398 	-1.249965e-07 	0.00010683395
0.61956522 	0.0014384224 	0.00044699409 	-2.29138e-08 	0.0014823775 	-3.24595e-08 	0.00063553203
0.63043478 	0.0014628602 	0.00049594004 	4.7264322e-07 	0.0015105877 	-6.4365647e-09 	0.0008521956
0.64130435 	0.001483768 	0.00053889982 	-3.6943686e-08 	0.0015337397 	-5.3382564e-08 	0.00051935757
0.65217391 	0.001500914 	0.00057578567 	-3.1030404e-08 	0.0015533381 	-4.6599922e-08 	0.00054534141
0.66304348 	0.0015147561 	0.00060737416 	1.9914914e-07 	0.00156979 	-1.3339765e-07 	0.00088631033
0.67391304 	0.0015253912 	0.00063376198 	-6.1987385e-08 	0.0015804691 	-9.9123521e-08 	0.00012910049
0.68478261 	0.0015331019 	0.00065596142 	8.235068e-08 	0.0015907811 	-1.4415489e-07 	0.00089710859
0.69565217 	0.0015379687 	0.00067371591 	-2.7023565e-08 	0.0015955802 	-4.7261252e-08 	0.00050081109
0.70652174 	0.001540354 	0.00068809221 	5.969563e-09 	0.0015991205 	-4.6512935e-08 	0.00090300211
0.7173913 	0.0015401351 	0.00069868248 	-1.4911912e-08 	0.001598404 	-2.9118615e-08 	0.00062964614
0.72826087 	0.0015379268 	0.0007065766 	-5.4244042e-09 	0.0015965006 	-4.4373867e-08 	0.00090356057
0.73913043 	0.0015333779 	0.00071129739 	-1.3912898e-08 	0.0015908065 	-3.0485392e-08 	0.00058194133
0.75 	0.001527359 	0.00071458981 	-2.2206946e-08 	0.0015846855 	-8.7850438e-08 	0.00089870463
0.76086957 	0.0015193629 	0.00071561061 	-1.1645488e-08 	0.0015750793 	-2.8233414e-08 	0.00056998059
0.77173913 	0.0015100716 	0.00071434917 	-1.6062684e-10 	0.0015650843 	-4.3812723e-10 	0.0008896629
0.7826087 	0.0014993769 	0.00070904208 	-3.275888e-09 	0.00155237 	-7.8932887e-09 	0.00078285841
0.79347826 	0.0014874696 	0.00070308211 	-1.1574274e-08 	0.0015378812 	-2.6423403e-08 	0.00054173166
0.80434783 	0.0014743556 	0.00069667103 	-1.5098363e-07 	0.0015229741 	-3.414808e-07 	0.0008645378
0.81521739 	0.0014602508 	0.00068925309 	-2.6672397e-08 	0.001504734 	-6.0765167e-08 	7.1274958e-05
0.82608696 	0.0014447485 	0.0006818285 	-4.6023106e-08 	0.0014879314 	-1.0406067e-07 	0.00084998706
0.83695652 	0.0014280927 	0.00067348605 	-6.0137932e-08 	0.0014683893 	-1.356753e-07 	0.00083463819
0.84782609 	0.0014102785 	0.0006642799 	-2.382912e-08 	0.0014463127 	-5.3711287e-08 	0.00011762995
0.85869565 	0.0013910046 	0.00065490298 	-6.7553323e-09 	0.0014250368 	-1.5143807e-08 	0.00061392118
0.86956522 	0.001370678 	0.00064488627 	-1.4548749e-07 	0.0014021026 	-3.2695889e-07 	0.00080252197
0.88043478 	0.0013499656 	0.00063455651 	-9.3271288e-08 	0.0013782569 	-2.1035674e-07 	0.00078684935
0.89130435 	0.001330167 	0.00062450012 	-2.2375307e-09 	0.0013547175 	-5.0442093e-09 	0.00069596628
0.90217391 	0.0013141838 	0.00061591004 	-6.1326974e-09 	0.0013337113 	-1.4176704e-08 	0.00049359805
0.91304348 	0.0013069929 	0.0006111016 	-3.3917582e-09 	0.0013202682 	-8.5842276e-09 	0.00046761603
0.92391304 	0.0013194088 	0.00061513342 	9.1625289e-10 	0.0013253865 	1.409708e-09 	0.00064477137
0.93478261 	0.0013799996 	0.00064157082 	1.6312781e-07 	0.0013785759 	3.3431562e-07 	0.00079906026
0.94565217 	0.0015498144 	0.00072100976 	2.620671e-07 	0.0015423989 	5.3183509e-07 	0.00087435007
0.95652174 	0.0019117887 	0.00089816211 	1.5409401e-07 	0.001898744 	3.2159487e-07 	3.1187658e-05
0.9673913 	0.0023893874 	0.0011297337 	7.6145112e-09 	0.0023776238 	1.5983344e-08 	0.0013593215
0.97826087 	0.0025361793 	0.001207641 	-1.8783688e-07 	0.0025279017 	-5.1884581e-07 	0.0014637686
0.98913043 	0.0012829036 	0.00060120186 	-1.3186965e-06 	0.0012806932 	-2.6657033e-06 	0.00071807566
