1.4101108e-19 	0.011537326 	-7.8355466e-16 	-5.7687081e-22 	5.9139765e-18 	1.283834e-19 	3.060602e-18
0.010869565 	0.011558734 	-0.00051366337 	-2.9579028e-08 	0.01364057 	-1.3399028e-05 	0.010057027
0.02173913 	0.011632092 	-0.0011065492 	-8.0964168e-08 	0.013705567 	-1.5981954e-05 	0.0092368172
0.032608696 	0.011746901 	-0.0016980591 	1.0374733e-07 	0.013803406 	-8.7224552e-07 	0.0072498246
0.043478261 	0.01190041 	-0.0022804556 	-3.6293147e-08 	0.013935803 	-1.9881406e-05 	0.007730543
0.054347826 	0.012093025 	-0.002864502 	6.184101e-07 	0.014094345 	-3.3722925e-06 	0.0022960837
0.065217391 	0.012331196 	-0.0034685022 	5.4093596e-07 	0.014295797 	-2.556574e-06 	0.002761011
0.076086957 	0.012568093 	-0.0039896201 	4.8361065e-07 	0.014493378 	-1.9679006e-06 	0.0028662865
0.086956522 	0.012841998 	-0.0045294631 	2.9649703e-07 	0.014721711 	-1.5786728e-05 	0.0049767758
0.097826087 	0.013133953 	-0.0050574417 	7.629175e-07 	0.014958665 	-2.2161031e-05 	0.0043482347
0.10869565 	0.013438279 	-0.0055729532 	3.3968436e-07 	0.015200055 	-1.0723466e-06 	0.0021713662
0.11956522 	0.013746164 	-0.0060558837 	8.5784763e-07 	0.015437757 	-1.4034657e-05 	0.0030092338
0.13043478 	0.014049285 	-0.0065070765 	2.4778486e-06 	0.015661111 	-2.2451621e-05 	0.0023839565
0.14130435 	0.014347871 	-0.0069316039 	8.1223025e-09 	0.01587266 	-2.1360907e-08 	0.0016700887
0.15217391 	0.014613286 	-0.0072809595 	6.0227685e-06 	0.016042951 	-3.2843737e-05 	0.0010798401
0.16304348 	0.014866164 	-0.0076107997 	1.2616129e-06 	0.016198295 	-4.9464466e-06 	0.0004370318
0.17391304 	0.015060557 	-0.0078669589 	7.5867224e-06 	0.016287352 	-2.9745507e-05 	0.00025442068
0.18478261 	0.015234411 	-0.0081059228 	2.3737793e-06 	0.016354766 	-7.6207212e-06 	0.00089241802
0.19565217 	0.015326437 	-0.0082771763 	9.054803e-06 	0.016330957 	-2.9069311e-05 	0.0014911458
0.20652174 	0.015396784 	-0.0084330407 	6.3311558e-07 	0.016282178 	-1.7312302e-06 	0.0020604485
0.2173913 	0.015337992 	-0.0084978291 	1.3073502e-05 	0.016099355 	-3.5748986e-05 	0.0026037924
0.22826087 	0.015262252 	-0.0085513764 	7.9907185e-07 	0.015893471 	-1.6540891e-06 	0.00049297624
0.23913043 	0.015026065 	-0.0084950952 	1.5150635e-05 	0.015535835 	-3.5795254e-05 	0.0035082671
0.25 	0.014759153 	-0.0084178779 	2.1118517e-06 	0.015145205 	-4.9895116e-06 	0.0039832719
0.26086957 	0.014337178 	-0.0082359423 	6.8161226e-06 	0.014599968 	-1.4138702e-05 	0.004081532
0.27173913 	0.01379951 	-0.0079740611 	1.3780502e-05 	0.013951826 	-2.8584934e-05 	0.0044742588
0.2826087 	0.013169209 	-0.0076493216 	8.2092647e-07 	0.013205506 	-1.559053e-06 	0.00061162308
0.29347826 	0.012384833 	-0.0072141371 	1.9844468e-05 	0.012340253 	-3.6583494e-05 	0.0044578485
0.30434783 	0.011529589 	-0.0067285241 	4.9600006e-06 	0.011408532 	-9.1438154e-06 	0.0047550121
0.31521739 	0.010498463 	-0.0061163327 	1.196361e-07 	0.010312979 	-3.1347124e-07 	0.0021699457
0.32608696 	0.0094033185 	-0.0054525834 	2.852347e-05 	0.0091903252 	-4.7727712e-05 	0.0039702438
0.33695652 	0.0082669573 	-0.0047585265 	-3.9548306e-08 	0.0080334181 	3.9578954e-08 	0.003868336
0.34782609 	0.0070027589 	-0.0039675894 	-2.5195118e-07 	0.00677415 	2.5214643e-07 	0.001455906
0.35869565 	0.0058556458 	-0.0032581012 	2.3576307e-05 	0.0056480918 	-3.7879418e-05 	0.0026616621
0.36956522 	0.0047345714 	-0.002568246 	-3.6594329e-08 	0.0045519375 	4.9404375e-08 	0.0026173646
0.38043478 	0.0037079164 	-0.0019473866 	-5.0386911e-07 	0.0035583491 	6.8025125e-07 	0.00037736088
0.39130435 	0.0028398198 	-0.0014259304 	7.9308989e-06 	0.0027233321 	-1.3039587e-05 	0.001214247
0.40217391 	0.0021218206 	-0.00099939051 	3.6801358e-06 	0.0020325797 	-6.0506949e-06 	0.0012474897
0.41304348 	0.0016348976 	-0.00071995258 	-2.6003931e-07 	0.0015608955 	4.7002137e-07 	0.00012623014
0.42391304 	0.0012326881 	-0.00049237053 	-3.7266988e-08 	0.0011731019 	6.7360125e-08 	0.00042642135
0.43478261 	0.0009795035 	-0.00032569164 	4.6002282e-06 	0.00092514448 	-6.9449113e-06 	0.0004980223
0.44565217 	0.00081683547 	-0.00019671991 	4.3441083e-09 	0.00076135271 	6.3679316e-08 	0.00033559223
0.45652174 	0.00077960002 	-0.00012186045 	9.6824161e-09 	0.00071471769 	1.4193238e-07 	0.00011065652
0.4673913 	0.00074804557 	-5.1120057e-05 	3.0126368e-07 	0.00067515143 	-9.9362584e-08 	0.00043664052
0.47826087 	0.00075100416 	1.8607523e-05 	1.0817377e-06 	0.00066780625 	-3.56778e-07 	0.00044364104
0.48913043 	0.00078173111 	8.6462799e-05 	5.5133592e-08 	0.00068555387 	7.230565e-08 	0.00021014068
0.5 	0.00082784473 	0.00015284657 	6.8397269e-08 	0.00071803801 	8.9700467e-08 	0.00019400497
0.51086957 	0.00087240288 	0.00021539494 	2.8577486e-07 	0.00075074604 	1.0585895e-07 	0.0005662107
0.52173913 	0.00091183328 	0.00026035931 	2.8833842e-07 	0.00078176966 	1.0680856e-07 	0.00057296006
0.5326087 	0.00094746686 	0.00028654225 	8.7950163e-08 	0.00081168545 	6.5123302e-08 	0.00019736319
0.54347826 	0.00098312716 	0.00031004358 	7.2545848e-08 	0.00084327925 	5.3717071e-08 	0.00030674047
0.55434783 	0.0010167652 	0.00033139984 	1.2694044e-07 	0.00087395973 	1.2682167e-07 	0.00067092011
0.56521739 	0.0010436375 	0.00034468063 	2.6111874e-08 	0.00089851482 	9.6634036e-09 	0.00057682691
0.57608696 	0.0010644495 	0.00034944638 	1.7130127e-07 	0.00091740919 	6.3394659e-08 	2.6793867e-05
0.58695652 	0.0010861315 	0.00035564842 	3.5400724e-08 	0.00093949376 	1.3100993e-08 	0.0005871806
0.59782609 	0.0011035509 	0.00036113861 	-1.4199746e-08 	0.00095682758 	-1.5894522e-08 	0.00073625061
0.60869565 	0.0011155483 	0.00036525282 	1.3140863e-07 	0.00096778774 	3.5388085e-08 	0.0002646837
0.61956522 	0.0011265074 	0.00036988942 	9.9808171e-08 	0.00097905283 	2.6878144e-08 	0.00039335303
0.63043478 	0.001136217 	0.00037541607 	-1.3693794e-08 	0.00098978913 	-1.6682907e-07 	0.00076836196
0.64130435 	0.0011423617 	0.00038167206 	9.6641656e-08 	0.00099579212 	2.8116167e-08 	0.00039400201
0.65217391 	0.001147137 	0.0003890087 	1.1832369e-07 	0.0010011997 	3.4424167e-08 	0.0003152264
0.66304348 	0.0011514129 	0.00039722667 	2.3780194e-08 	0.0010075499 	-1.8740524e-07 	0.00078501068
0.67391304 	0.001153627 	0.00040546752 	8.8907772e-08 	0.0010108445 	3.1443562e-08 	0.00038202133
0.68478261 	0.0011550468 	0.00041474979 	8.9190895e-08 	0.0010145695 	3.1543692e-08 	0.00038405312
0.69565217 	0.0011562093 	0.00042458974 	3.1007528e-08 	0.0010193529 	-1.3365979e-07 	0.00079418051
0.70652174 	0.001156593 	0.00043392566 	1.0650209e-07 	0.0010223543 	4.6960902e-08 	0.00020823144
0.7173913 	0.0011567215 	0.00044466938 	3.1471674e-08 	0.001027632 	1.3877082e-08 	0.00062568216
0.72826087 	0.0011578274 	0.00045606854 	1.4336294e-08 	0.0010340115 	8.1791305e-09 	0.00070489275
0.73913043 	0.0011598889 	0.0004685007 	9.5345865e-08 	0.0010412404 	5.4396645e-08 	0.00016246239
0.75 	0.00116329 	0.00048318034 	1.1249977e-07 	0.0010528742 	-1.3229523e-08 	0.00081233164
0.76086957 	0.0011728942 	0.00050128216 	4.1331774e-08 	0.0010694073 	6.1926561e-08 	0.00020354546
0.77173913 	0.001184215 	0.0005223253 	3.3024356e-09 	0.0010910641 	4.9479725e-09 	0.00079081134
0.7826087 	0.0012129168 	0.0005440821 	9.0791752e-09 	0.0011289688 	5.2011359e-08 	0.00046517866
0.79347826 	0.0012508101 	0.00056763127 	6.0282692e-09 	0.0011782715 	3.4533806e-08 	0.00064191827
0.80434783 	0.0013266343 	0.00061422734 	2.4192549e-08 	0.0012620406 	6.4207435e-08 	0.00064262489
0.81521739 	0.001440595 	0.00068451885 	2.9981149e-08 	0.0013813342 	7.9570477e-08 	0.00068915167
0.82608696 	0.0016273638 	0.00079748179 	5.1286598e-08 	0.00157085 	1.3336579e-07 	0.00074268699
0.83695652 	0.0018938109 	0.00095811218 	3.9852422e-08 	0.00183779 	1.0363233e-07 	0.0011005655
0.84782609 	0.0022635731 	0.0011604192 	9.9181385e-08 	0.0022064399 	3.3843459e-07 	0.00067510411
0.85869565 	0.00271754 	0.0013993142 	5.8185309e-07 	0.0026628787 	1.1965648e-06 	0.0020469365
0.86956522 	0.0032600393 	0.0016552398 	1.3901409e-07 	0.0032034646 	7.2085428e-07 	3.2486762e-05
0.88043478 	0.0038594682 	0.0019303488 	6.4476814e-08 	0.0038122892 	1.4792668e-07 	0.0027585314
0.89130435 	0.0044801455 	0.002195857 	2.3235308e-08 	0.0044402263 	1.8774354e-07 	0.0025555486
0.90217391 	0.0050419775 	0.002428231 	3.9065844e-08 	0.0050096513 	4.959941e-07 	0.00048188368
0.91304348 	0.00553591 	0.002629508 	1.5315786e-10 	0.0055259086 	3.7814123e-08 	0.0036207398
0.92391304 	0.0058335405 	0.0027444474 	3.3976891e-08 	0.0058467414 	2.2544541e-07 	0.004378185
0.93478261 	0.0058264842 	0.0027289392 	-1.0333852e-08 	0.0058632308 	2.1055244e-08 	0.0034407755
0.94565217 	0.0054791119 	0.0025646927 	-9.2426997e-07 	0.0055457323 	-1.9097143e-06 	0.0041201854
0.95652174 	0.0047398565 	0.0022221953 	-6.1609513e-08 	0.0048214156 	-8.2507015e-08 	0.00041869103
0.9673913 	0.0036638636 	0.0017250146 	1.1853503e-08 	0.003760154 	3.4458065e-08 	0.0021135538
0.97826087 	0.0023460235 	0.00110757 	1.3519129e-07 	0.0024214502 	2.9996257e-07 	0.00023571015
0.98913043 	0.00069915697 	0.00024587276 	1.8583434e-07 	0.000709826 	2.3758473e-07 	6.6434736e-05
