0.47916667 	0.0016646645 	-0.0007796452 	-2.4354232e-07 	0.0016609783 	5.0238197e-07 	0.00078854873
0.48958333 	0.0033201042 	-0.0015855508 	-7.3098381e-09 	0.0033020607 	4.0494188e-08 	0.00029546112
0.5 	0.002647613 	-0.0012624963 	1.7101608e-07 	0.0026285399 	-3.5944204e-07 	0.0014372177
0.51041667 	0.001707868 	-0.00080248045 	1.5650669e-06 	0.0016925516 	-3.1480859e-06 	0.00090366705
0.52083333 	0.0012760101 	-0.00054409827 	-9.2202573e-08 	0.0012650419 	6.1210305e-08 	0.00015970699
0.53125 	0.0011703417 	-0.00032921536 	-5.1835066e-08 	0.00116753 	-1.490141e-08 	0.00038957845
0.54166667 	0.0011840086 	-0.00015735284 	2.2954626e-07 	0.0011887731 	3.7191034e-08 	0.00061905027
0.55208333 	0.001227537 	-2.416286e-05 	4.5739492e-07 	0.0012397658 	1.2296586e-07 	0.0006432903
0.5625 	0.0012749122 	8.4392008e-05 	3.177673e-07 	0.0012943239 	9.5738911e-08 	0.00067007189
0.57291667 	0.0013198821 	0.00017674351 	-3.2795845e-09 	0.0013457576 	-4.4110285e-09 	0.00067500435
0.58333333 	0.0013607254 	0.00025720449 	-5.4711378e-08 	0.0013917313 	-7.5062717e-08 	0.00033564559
0.59375 	0.001397139 	0.00032831462 	-7.6400595e-08 	0.0014329875 	-1.0507319e-07 	0.00017122698
0.60416667 	0.0014290925 	0.0003911462 	1.0257427e-07 	0.0014706166 	1.9144803e-08 	0.00074657981
0.61458333 	0.001457082 	0.00044680298 	4.8541723e-07 	0.0015026734 	4.3631529e-08 	0.0007684644
0.625 	0.0014815361 	0.00049629156 	-4.2286978e-08 	0.0015300328 	-5.8555223e-08 	0.00042942986
0.63541667 	0.0015021115 	0.0005392624 	-2.2509201e-08 	0.0015539604 	-3.188864e-08 	0.00058261091
0.64583333 	0.0015192073 	0.00057632708 	3.144826e-07 	0.0015740531 	-1.0177617e-07 	0.00080410204
0.65625 	0.0015333007 	0.00060828311 	-5.958449e-08 	0.0015891034 	-8.8404043e-08 	0.000188463
0.66666667 	0.0015441398 	0.0006351903 	1.1652181e-07 	0.0016028507 	-1.0034141e-07 	0.00081683052
0.67708333 	0.0015523582 	0.00065776894 	-1.4236136e-08 	0.0016120333 	-2.2806446e-08 	0.00064851108
0.6875 	0.0015577325 	0.00067609945 	-1.501579e-09 	0.0016185776 	-2.6912813e-09 	0.00080261593
0.69791667 	0.0015607498 	0.00069086501 	7.6590142e-10 	0.0016221428 	-1.6234048e-08 	0.00082963719
0.70833333 	0.00156122 	0.00070205929 	-5.8084133e-09 	0.0016225142 	-1.1995528e-08 	0.00071621401
0.71875 	0.0015598942 	0.00071079813 	-3.778347e-10 	0.0016212589 	-2.318638e-09 	0.00082900956
0.72916667 	0.0015564686 	0.00071663138 	-2.0092315e-09 	0.0016173945 	-1.2329944e-08 	0.00082900219
0.73958333 	0.001551218 	0.00072020332 	-6.8673454e-09 	0.0016111283 	-1.6350791e-08 	0.00065311767
0.75 	0.0015445426 	0.00072221363 	-4.5927837e-08 	0.0016039215 	-1.659785e-07 	0.00082360691
0.76041667 	0.0015363051 	0.00072239012 	-9.7827524e-09 	0.001594023 	-2.7026778e-08 	0.00050816372
0.77083333 	0.0015267815 	0.00072087365 	-7.207475e-08 	0.0015837447 	-1.9834656e-07 	0.00081464813
0.78125 	0.0015161756 	0.00071669269 	-7.2547965e-09 	0.0015709914 	-1.9018748e-08 	0.00057516165
0.79166667 	0.0015044891 	0.00071161449 	-1.3025294e-08 	0.0015577619 	-3.0498004e-08 	0.00080352022
0.80208333 	0.0014918161 	0.00070529316 	-3.4047701e-08 	0.0015427445 	-7.7061063e-08 	0.00079105201
0.8125 	0.001478204 	0.00069829954 	-1.3463022e-08 	0.0015258398 	-3.0797606e-08 	0.0003958014
0.82291667 	0.0014634569 	0.00069106612 	-2.568733e-07 	0.0015090887 	-5.8157747e-07 	0.00077766216
0.83333333 	0.0014478589 	0.00068304062 	-1.5060751e-08 	0.0014898129 	-3.4299905e-08 	0.00032765613
0.84375 	0.0014309646 	0.00067472086 	-3.7368349e-09 	0.0014706297 	-8.4593103e-09 	0.00065367015
0.85416667 	0.0014128212 	0.00066569936 	-2.2963193e-07 	0.0014497294 	-5.1753298e-07 	0.00074902143
0.86458333 	0.0013936319 	0.00065605904 	-5.8578348e-09 	0.0014272514 	-1.3179155e-08 	0.00056508725
0.875 	0.0013735211 	0.00064584456 	-2.1018358e-08 	0.0014032698 	-4.7112647e-08 	0.00010143555
0.88541667 	0.00135277 	0.00063570329 	-3.4672193e-09 	0.0013802996 	-7.793863e-09 	0.00060743261
0.89583333 	0.0013331141 	0.00062576643 	-8.3089948e-08 	0.0013571529 	-1.8912366e-07 	0.00070581451
0.90625 	0.0013172028 	0.00061727082 	-1.2462331e-07 	0.001336505 	-2.91567e-07 	0.00069468981
0.91666667 	0.0013100823 	0.0006124918 	-8.0730089e-08 	0.0013231462 	-2.0519748e-07 	0.00068840451
0.92708333 	0.0013228362 	0.00061662209 	2.5420471e-08 	0.0013283584 	2.8837806e-08 	0.00069133481
0.9375 	0.0013816445 	0.00064222549 	5.3763877e-08 	0.0013796228 	1.0875533e-07 	0.00071235452
0.94791667 	0.0015512301 	0.00072184526 	6.9522914e-08 	0.0015423836 	1.4273756e-07 	0.00027877968
0.95833333 	0.001907635 	0.0008978337 	1.3446379e-08 	0.0018959411 	2.7815151e-08 	0.0009487909
0.96875 	0.0023655925 	0.0011197191 	1.1848381e-07 	0.0023510955 	2.6732909e-07 	5.1841817e-05
0.97916667 	0.0024874326 	0.0011907884 	-9.6992332e-08 	0.002478749 	-2.8588708e-07 	0.0013139855
0.98958333 	0.0011908069 	0.00055611215 	-9.8052052e-07 	0.0011886901 	-1.9727219e-06 	0.00065413103
