0.4742268 	0.28933917 	4.0745501e-05 	-5.9189098e-09
0.48453608 	0.93039359 	0.00054238672 	-2.4254437e-08
0.49484536 	1.2228322 	0.0012248291 	2.85563e-06
0.50515464 	1.3794785 	0.0018334925 	-2.2047363e-08
0.51546392 	1.4387139 	0.002102705 	1.4089703e-07
0.5257732 	1.457518 	0.0021563604 	-5.1336822e-07
0.53608247 	1.4632808 	0.0021155805 	-3.4770403e-07
0.54639175 	1.4645469 	0.0020577121 	-6.2030856e-08
0.55670103 	1.4640158 	0.0019824866 	-3.0265103e-08
0.56701031 	1.4625961 	0.0019002406 	-3.5362553e-07
0.57731959 	1.4606459 	0.0018138124 	-1.0796479e-06
0.58762887 	1.458333 	0.0017244628 	-1.7231077e-06
0.59793814 	1.4557505 	0.0016328817 	-3.7051206e-07
0.60824742 	1.4528868 	0.0015374689 	-1.6033736e-07
0.6185567 	1.4498892 	0.001443053 	-6.8199238e-07
0.62886598 	1.4466967 	0.0013457825 	-1.5480297e-06
0.63917526 	1.4433333 	0.0012456999 	-9.2345682e-08
0.64948454 	1.4398908 	0.0011465092 	-1.2010171e-06
0.65979381 	1.4363192 	0.0010454874 	-5.367067e-07
0.67010309 	1.4326243 	0.00094274489 	-9.2637072e-09
0.68041237 	1.4288483 	0.00084039493 	-1.7273334e-06
0.69072165 	1.4249549 	0.00073611582 	-2.0338015e-08
0.70103093 	1.421036 	0.00063405164 	-2.2222501e-06
0.71134021 	1.4169783 	0.00052975219 	-3.6070589e-09
0.72164948 	1.4129377 	0.00042908022 	-1.9859472e-06
0.73195876 	1.4088215 	0.00032806743 	6.8335734e-09
0.74226804 	1.4045755 	0.00022752828 	-1.2683522e-06
0.75257732 	1.4003057 	0.00012819867 	-6.4277085e-08
0.7628866 	1.3958552 	2.8709751e-05 	-7.4555164e-07
0.77319588 	1.391313 	-7.0833228e-05 	-1.703256e-07
0.78350515 	1.3866487 	-0.00016922539 	-8.3857549e-07
0.79381443 	1.3818837 	-0.00026718928 	1.6649756e-08
0.80412371 	1.3769364 	-0.00036436713 	-1.4567215e-06
0.81443299 	1.3718991 	-0.00046007853 	9.2030081e-08
0.82474227 	1.3665435 	-0.00055678075 	-1.3221201e-06
0.83505155 	1.3610251 	-0.0006515746 	-1.3571237e-07
0.84536082 	1.3552041 	-0.00074525683 	5.2749558e-08
0.8556701 	1.3489814 	-0.00083863511 	-1.1490746e-06
0.86597938 	1.3424151 	-0.00093097552 	-4.9709165e-07
0.87628866 	1.3354099 	-0.0010221064 	1.0915026e-07
0.88659794 	1.3277791 	-0.001113609 	6.1231334e-08
0.89690722 	1.3194161 	-0.0012041885 	-2.7528537e-07
0.90721649 	1.3100644 	-0.0012927794 	-5.5604782e-07
0.91752577 	1.2991587 	-0.0013773891 	-5.6184458e-07
0.92783505 	1.2854232 	-0.001451143 	-3.239102e-07
0.93814433 	1.2659106 	-0.0014966941 	-2.4376257e-08
0.94845361 	1.2328935 	-0.0014691359 	2.7325019e-07
0.95876289 	1.1709185 	-0.0012992334 	8.5578958e-07
0.96907216 	1.0595661 	-0.00095557515 	2.3826391e-07
0.97938144 	0.87362613 	-0.00053026346 	4.4275946e-07
0.98969072 	0.54345472 	-0.00014342152 	2.9777032e-07
