1.640171e-35 	0.59435471 	-4.0365546e-14 	-1.4671808e-20
0.010869565 	0.59493869 	-0.00055820355 	4.8146367e-08
0.02173913 	0.59665748 	-0.0011103684 	2.2992449e-08
0.032608696 	0.59966221 	-0.0016615404 	4.4661483e-09
0.043478261 	0.60394709 	-0.0022038598 	9.979997e-08
0.054347826 	0.60951759 	-0.0027456369 	8.7930386e-07
0.065217391 	0.61681851 	-0.0033042038 	1.0369176e-06
0.076086957 	0.62434414 	-0.0037786392 	6.2953353e-07
0.086956522 	0.63360941 	-0.0042666313 	5.8952501e-07
0.097826087 	0.64402964 	-0.004739335 	1.0696652e-06
0.10869565 	0.65554524 	-0.0052004739 	8.235721e-07
0.11956522 	0.66837994 	-0.0056279689 	1.2042878e-06
0.13043478 	0.68223253 	-0.0060314212 	2.42128e-06
0.14130435 	0.6969557 	-0.0064138751 	1.4810813e-07
0.15217391 	0.71309615 	-0.0067415514 	5.7480047e-06
0.16304348 	0.72961771 	-0.0070568355 	6.048568e-07
0.17391304 	0.74756723 	-0.0073183579 	6.8377466e-06
0.18478261 	0.76570342 	-0.0075682345 	1.8037443e-06
0.19565217 	0.78507594 	-0.0077561218 	8.3836444e-06
0.20652174 	0.80469163 	-0.0079335741 	3.6787844e-07
0.2173913 	0.82563959 	-0.0080250648 	1.2274545e-05
0.22826087 	0.84679939 	-0.0081147533 	1.1544008e-06
0.23913043 	0.86908647 	-0.0081094144 	1.2730585e-05
0.25 	0.89162666 	-0.0080897979 	3.119767e-06
0.26086957 	0.91517935 	-0.0080018952 	5.6258613e-06
0.27173913 	0.93928306 	-0.0078507845 	1.2888637e-05
0.2826087 	0.96421996 	-0.0076765228 	3.4131325e-06
0.29347826 	0.98916715 	-0.0073991063 	1.5704406e-05
0.30434783 	1.0146755 	-0.0070976096 	6.2717258e-06
0.31521739 	1.0411754 	-0.0067315446 	1.7799823e-06
0.32608696 	1.0673093 	-0.0062837095 	2.3097749e-05
0.33695652 	1.0936954 	-0.0058200117 	1.9777689e-06
0.34782609 	1.1208719 	-0.0052664745 	1.7941094e-06
0.35869565 	1.1463196 	-0.004685405 	2.3405845e-05
0.36956522 	1.171676 	-0.0040949779 	2.6753495e-06
0.38043478 	1.1964668 	-0.003460151 	2.9912413e-06
0.39130435 	1.2177498 	-0.0028766785 	1.1914761e-05
0.40217391 	1.2368182 	-0.0023539774 	8.2003317e-06
0.41304348 	1.2528048 	-0.0019137563 	4.0431089e-06
0.42391304 	1.2662533 	-0.0015010688 	2.9134668e-07
0.43478261 	1.2745797 	-0.0011762788 	1.1854122e-05
0.44565217 	1.2813971 	-0.00087701112 	1.1037942e-06
0.45652174 	1.2834343 	-0.00064991181 	3.8100034e-06
0.4673913 	1.285 	-0.00041124491 	1.876158e-06
0.47826087 	1.2851091 	-0.00019996371 	4.8361244e-06
0.48913043 	1.2842589 	8.8861595e-07 	2.0978704e-06
0.5 	1.2823692 	0.00020475566 	3.0580267e-06
0.51086957 	1.2804301 	0.00041885949 	2.0234604e-06
0.52173913 	1.2782829 	0.00060147019 	2.4226559e-06
0.5326087 	1.2759206 	0.00076388504 	2.4899252e-06
0.54347826 	1.273396 	0.00094168719 	2.1776377e-06
0.55434783 	1.2708047 	0.0011265997 	2.7125563e-06
0.56521739 	1.2681866 	0.0012911246 	7.4538909e-08
0.57608696 	1.2655181 	0.0014348003 	3.3911054e-06
0.58695652 	1.2627311 	0.0016237912 	4.7522494e-07
0.59782609 	1.2599109 	0.0017858786 	2.096961e-06
0.60869565 	1.2570744 	0.0019300494 	1.7366543e-06
0.61956522 	1.254145 	0.002093642 	1.3679649e-06
0.63043478 	1.2511205 	0.0022618654 	2.7403628e-06
0.64130435 	1.248058 	0.0024076158 	9.5997673e-07
0.65217391 	1.2449003 	0.0025637228 	1.3654622e-06
0.66304348 	1.2415972 	0.0027350779 	2.1257128e-06
0.67391304 	1.2382172 	0.0028790898 	7.4497692e-07
0.68478261 	1.234695 	0.0030365694 	8.2851939e-07
0.69565217 	1.2309812 	0.003202472 	1.6612193e-06
0.70652174 	1.2271278 	0.003340779 	7.3070317e-07
0.7173913 	1.2230412 	0.003510992 	1.5993052e-07
0.72826087 	1.2186697 	0.0036638556 	1.1848472e-08
0.73913043 	1.2139793 	0.0038000517 	3.5043074e-07
0.75 	1.20883 	0.0039701456 	1.4437531e-06
0.76086957 	1.2030395 	0.004106424 	-1.099034e-07
0.77173913 	1.1966756 	0.0042770842 	8.4673449e-08
0.7826087 	1.1885825 	0.0044240713 	-2.6049069e-07
0.79347826 	1.1792433 	0.0045901987 	-1.6907e-07
0.80434783 	1.1669871 	0.0047602129 	-2.4181137e-07
0.81521739 	1.1515631 	0.0049444101 	-3.8695975e-07
0.82608696 	1.1318216 	0.0051373337 	-3.8236581e-07
0.83695652 	1.1070854 	0.0053449281 	-3.0858738e-07
0.84782609 	1.0762814 	0.0055393768 	-1.0249253e-06
0.85869565 	1.0397144 	0.0057474148 	5.3369302e-07
0.86956522 	0.99570805 	0.0059053364 	-2.5092601e-06
0.88043478 	0.94463011 	0.0060724887 	1.8515806e-07
0.89130435 	0.88513466 	0.0061734798 	-5.6934632e-07
0.90217391 	0.81816912 	0.0061879527 	-2.6439329e-06
0.91304348 	0.7435167 	0.0061346 	-2.773278e-08
0.92391304 	0.6627381 	0.0059214544 	-1.6831577e-06
0.93478261 	0.57977133 	0.0055235879 	-4.442839e-07
0.94565217 	0.48900973 	0.0048802678 	-3.7695866e-06
0.95652174 	0.40365579 	0.0040166283 	-2.4374559e-06
0.9673913 	0.32144481 	0.0029268272 	-3.6260349e-07
0.97826087 	0.24473216 	0.0016938072 	-1.2705001e-06
0.98913043 	0.14758168 	0.00057254475 	-4.7441988e-07
