0.47777778 	0.00087683716 	-0.0004074153 	1.0439319e-08 	0.00087529976 	-2.189229e-08 	5.4145195e-05
0.48888889 	0.0030933121 	-0.0014639832 	-4.7474506e-07 	0.0030873358 	1.2067527e-06 	0.0009775319
0.5 	0.0032256627 	-0.0015128206 	3.3340864e-07 	0.0032160013 	-7.2914549e-07 	0.0010456143
0.51111111 	0.0026800997 	-0.001263429 	1.375029e-06 	0.0026689656 	-2.9892957e-06 	0.00089076211
0.52222222 	0.0019790001 	-0.00093670166 	-1.5724394e-08 	0.00196865 	3.548061e-08 	0.00039284565
0.53333333 	0.0014130409 	-0.00066409784 	1.8710292e-06 	0.0014059314 	-3.8259312e-06 	0.00043211335
0.54444444 	0.0010958596 	-0.00048728653 	1.7082621e-06 	0.0010921947 	-2.3011056e-06 	0.00034887504
0.55555556 	0.00096110372 	-0.00031995664 	1.0159968e-06 	0.0009625884 	-6.4675184e-07 	0.00030754851
0.56666667 	0.00092768208 	-0.00019353647 	6.9768403e-07 	0.00093429542 	-1.5920672e-07 	0.0002954491
0.57777778 	0.00093883128 	-8.9016731e-05 	8.3639617e-07 	0.00095034186 	4.5261899e-08 	0.0002991538
0.58888889 	0.00096582162 	2.7450752e-07 	1.1762453e-06 	0.00098228303 	2.3145777e-07 	0.0003095795
0.6 	0.00099796663 	7.7702808e-05 	9.1123747e-07 	0.0010186708 	2.369726e-07 	0.00032287705
0.61111111 	0.0010311542 	0.00014634853 	1.4164872e-07 	0.0010555104 	3.9217668e-08 	0.00033719053
0.62222222 	0.001063698 	0.00020761184 	-1.4696166e-09 	0.0010902832 	-3.6054815e-08 	8.1570166e-05
0.63333333 	0.0010938622 	0.00026180756 	4.9554277e-07 	0.0011236754 	1.2849787e-07 	0.00035169705
0.64444444 	0.0011222974 	0.00031136948 	5.4038928e-07 	0.0011540607 	1.1443063e-07 	0.00036570969
0.65555556 	0.0011490113 	0.00035691405 	2.4307091e-09 	0.0011813821 	-4.3411338e-08 	5.1714934e-05
0.66666667 	0.0011723195 	0.00039654795 	4.5801687e-07 	0.0012067761 	5.8172103e-08 	0.0003789098
0.67777778 	0.0011939528 	0.00043301199 	1.5723503e-07 	0.001229198 	-3.023647e-09 	0.00039078038
0.68888889 	0.0012130348 	0.00046540661 	4.0324593e-08 	0.0012488577 	-7.7544639e-10 	0.00039081786
0.7 	0.0012293251 	0.00049332948 	3.08987e-07 	0.0012653021 	-9.0459156e-08 	0.00040096952
0.71111111 	0.0012438946 	0.00051872417 	2.4826123e-09 	0.0012794705 	-2.2261509e-08 	0.0002263063
0.72222222 	0.0012550672 	0.00053926654 	2.4304842e-07 	0.0012908775 	-2.3128975e-07 	0.00040895114
0.73333333 	0.0012647931 	0.00055770044 	2.7209419e-09 	0.0012997373 	-2.6008736e-08 	0.00019636622
0.74444444 	0.0012714639 	0.00057254023 	1.2245975e-07 	0.0013063592 	-3.4094175e-07 	0.00041407321
0.75555556 	0.0012767691 	0.00058583521 	2.5178124e-09 	0.0013103954 	-2.7379617e-08 	0.00017922316
0.76666667 	0.0012793223 	0.00059517789 	-3.2473928e-08 	0.0013124504 	-4.6239158e-07 	0.00041621961
0.77777778 	0.0012807195 	0.00060071294 	-5.0002058e-09 	0.0013115363 	-4.3936079e-08 	1.962927e-05
0.78888889 	0.0012795417 	0.00060165326 	-1.5502481e-07 	0.0013095719 	-4.1699022e-07 	0.00041587777
0.8 	0.0012772151 	0.0006008029 	-1.0695471e-08 	0.0013053087 	-2.4221398e-08 	0.00041375159
0.81111111 	0.0012729204 	0.00059837068 	-3.591654e-08 	0.0012990302 	-8.1338057e-08 	0.00041373962
0.82222222 	0.0012673849 	0.00059533622 	-2.1109687e-07 	0.0012914333 	-4.7658498e-07 	0.00041054202
0.83333333 	0.0012613315 	0.00059198892 	-3.1770853e-09 	0.0012830337 	-1.0697418e-08 	0.00028518166
0.84444444 	0.0012555695 	0.00058884213 	-1.2860776e-08 	0.0012752397 	-2.9170544e-08 	0.00040707974
0.85555556 	0.0012521999 	0.00058661531 	-1.4523603e-07 	0.0012690584 	-3.3689131e-07 	0.000404451
0.86666667 	0.0012530514 	0.00058619494 	-6.119608e-08 	0.001266479 	-1.5264643e-07 	0.0004039439
0.87777778 	0.0012613471 	0.00058904742 	1.1370093e-09 	0.0012706063 	3.0736013e-11 	0.0004073632
0.88888889 	0.0012848724 	0.00059868948 	1.6147452e-09 	0.0012888046 	-1.7472295e-09 	0.00015013632
0.9 	0.0013351674 	0.00062082421 	9.3008794e-09 	0.0013339978 	1.3909408e-08 	2.4974174e-05
0.91111111 	0.0014332814 	0.00066556923 	1.8974415e-08 	0.0014278145 	3.5591396e-08 	2.5269375e-05
0.92222222 	0.0016090822 	0.00074804761 	1.8316516e-08 	0.0016006069 	3.5951717e-08 	0.00023228343
0.93333333 	0.0018869042 	0.00088111572 	3.8986937e-07 	0.0018766965 	8.0998144e-07 	0.00062646683
0.94444444 	0.002243942 	0.0010508674 	1.8257294e-06 	0.0022324482 	3.8679279e-06 	0.00071997083
0.95555556 	0.0026027431 	0.0012179893 	4.9216526e-09 	0.0025908874 	1.0225974e-08 	0.00066359745
0.96666667 	0.0028152652 	0.0013158815 	1.8522151e-07 	0.0028052198 	4.1448268e-07 	0.00090456453
0.97777778 	0.0026240878 	0.0012339023 	-3.7862492e-07 	0.0026169428 	-8.987054e-07 	0.00082777984
0.98888889 	0.0012378275 	0.00057880724 	-1.332088e-06 	0.001235356 	-2.7731778e-06 	0.00036743155
