0.47826087 	0.5718689 	0.00012367723 	-9.3502119e-09
0.48913043 	1.0306575 	0.00060301438 	-7.6898957e-08
0.5 	1.263515 	0.0011557678 	7.2846758e-09
0.51086957 	1.3907079 	0.0016115674 	5.9348194e-07
0.52173913 	1.4428731 	0.00182609 	-3.3428979e-07
0.5326087 	1.4605027 	0.0018619134 	-8.750623e-08
0.54347826 	1.4658694 	0.0018271745 	-6.8030182e-07
0.55434783 	1.4671392 	0.0017721398 	-6.0879747e-07
0.56521739 	1.4666422 	0.0017035307 	-6.6997703e-07
0.57608696 	1.4652383 	0.0016279841 	-1.0389379e-06
0.58695652 	1.4632868 	0.0015483146 	-7.1754666e-07
0.59782609 	1.4609476 	0.0014654979 	-2.8060512e-08
0.60869565 	1.4582692 	0.0013790626 	-1.6227007e-07
0.61956522 	1.4554244 	0.0012934795 	-3.4713671e-08
0.63043478 	1.4523528 	0.0012055859 	-1.4703487e-06
0.64130435 	1.4490742 	0.0011151178 	-5.4713209e-08
0.65217391 	1.4456484 	0.0010239729 	-4.13439e-08
0.66304348 	1.4421068 	0.00093274118 	-1.2478203e-06
0.67391304 	1.4383409 	0.00083788133 	-7.6219686e-08
0.68478261 	1.4345801 	0.00074593247 	-9.4048196e-07
0.69565217 	1.4306065 	0.00065086143 	-2.5941027e-08
0.70652174 	1.4265897 	0.00055699912 	-2.9076142e-07
0.7173913 	1.4224075 	0.00046179733 	-8.6720066e-09
0.72826087 	1.4182297 	0.00036860122 	-2.4347229e-07
0.73913043 	1.4138603 	0.00027367746 	-8.2258127e-10
0.75 	1.409459 	0.00017999394 	-3.571168e-07
0.76086957 	1.4049096 	8.5992051e-05 	7.9415149e-09
0.77173913 	1.4001983 	-9.1953553e-06 	-7.1576855e-08
0.7826087 	1.3953831 	-0.0001031311 	3.7071224e-09
0.79347826 	1.3904166 	-0.00019682753 	2.4013583e-08
0.80434783 	1.385245 	-0.00029074601 	-8.8296414e-07
0.81521739 	1.3799461 	-0.00038187144 	7.6531769e-08
0.82608696 	1.374306 	-0.00047464336 	-2.8436921e-07
0.83695652 	1.3684345 	-0.00056500531 	-3.3170638e-07
0.84782609 	1.3622738 	-0.00065353298 	9.7949244e-08
0.85869565 	1.3556478 	-0.00074339133 	2.8991777e-08
0.86956522 	1.3485687 	-0.00083195824 	-6.5824562e-07
0.88043478 	1.3409573 	-0.00091972618 	-4.2910007e-07
0.89130435 	1.3326465 	-0.0010067523 	1.0681164e-08
0.90217391 	1.3232738 	-0.0010915244 	5.4662896e-08
0.91304348 	1.3121495 	-0.001170813 	6.6168667e-08
0.92391304 	1.2976659 	-0.0012353512 	2.7385009e-08
0.93478261 	1.2756697 	-0.0012614187 	1.1381487e-07
0.94565217 	1.2376195 	-0.0012065302 	3.1990944e-07
0.95652174 	1.1684103 	-0.0010206698 	3.5252762e-07
0.9673913 	1.052216 	-0.0007180026 	7.8103802e-08
0.97826087 	0.86801716 	-0.00038951755 	5.0963507e-07
0.98913043 	0.54621561 	-0.00010546737 	2.5142074e-07
