0.4742268 	0.00012867586 	-3.856789e-05 	2.7220708e-09 	0.00012847006 	-6.3960406e-09 	3.8759067e-05
0.48453608 	0.0031147211 	-0.0015434481 	1.1580232e-08 	0.0031010316 	-1.8370563e-08 	0.0010972734
0.49484536 	0.0029429355 	-0.0014082522 	2.0385685e-06 	0.0029218218 	-4.2604656e-06 	0.0012210774
0.50515464 	0.0018778529 	-0.00088712892 	-1.4720478e-08 	0.0018598888 	2.9563685e-08 	0.00076761267
0.51546392 	0.0013438064 	-0.0006079734 	4.3216289e-07 	0.0013307234 	-4.1410587e-07 	0.00052661514
0.5257732 	0.001213072 	-0.00036162298 	2.2173732e-06 	0.0012089769 	-4.734834e-07 	0.0004942295
0.53608247 	0.0012235373 	-0.00017113273 	6.0041478e-07 	0.0012283274 	5.7329565e-08 	0.00049943927
0.54639175 	0.0012701114 	-2.691498e-05 	3.2038917e-08 	0.0012827957 	7.7909637e-09 	0.00051750625
0.55670103 	0.0013202125 	8.8051129e-05 	-1.369679e-09 	0.0013412317 	-1.7664225e-09 	0.0005310021
0.56701031 	0.0013669083 	0.00018492981 	2.3151454e-07 	0.0013951422 	6.9704973e-08 	0.00056060138
0.57731959 	0.0014087046 	0.00026928074 	6.469178e-07 	0.0014434039 	1.7449911e-07 	0.00058161027
0.58762887 	0.0014456987 	0.00034388855 	8.7198086e-07 	0.0014861919 	1.8724968e-07 	0.00060134914
0.59793814 	0.001478334 	0.00041038466 	1.3106944e-07 	0.001524031 	1.759579e-08 	0.00061948908
0.60824742 	0.0015065435 	0.00046887497 	-8.3470644e-08 	0.0015556787 	-1.0852905e-07 	2.0421433e-05
0.6185567 	0.0015301919 	0.00051934712 	2.076672e-07 	0.0015845025 	2.8251294e-09 	0.00063576448
0.62886598 	0.0015502342 	0.00056318811 	3.6908691e-07 	0.0016080444 	-6.8755233e-08 	0.0006497113
0.63917526 	0.0015670424 	0.00060115745 	-5.8264476e-08 	0.0016268927 	-7.8601019e-08 	0.0001463204
0.64948454 	0.00157995 	0.00063236392 	1.888899e-07 	0.0016432152 	-1.0834402e-07 	0.00066104056
0.65979381 	0.0015902129 	0.00065879563 	4.207412e-08 	0.0016554652 	-6.5417221e-08 	0.00066931093
0.67010309 	0.0015973418 	0.00067987649 	-9.5839302e-09 	0.0016638079 	-1.5453056e-08 	0.00054962506
0.68041237 	0.0016016396 	0.00069632822 	4.5530257e-08 	0.0016692619 	-3.117431e-07 	0.0006742482
0.69072165 	0.0016038045 	0.00070936224 	-2.3949753e-08 	0.0016711836 	-4.5851807e-08 	0.00028055569
0.70103093 	0.0016034992 	0.00071892694 	-5.3600632e-08 	0.0016716857 	-4.9791706e-07 	0.00067561052
0.71134021 	0.0016014528 	0.00072595616 	-1.8033749e-08 	0.0016685353 	-4.3783893e-08 	0.00025854286
0.72164948 	0.0015974664 	0.00073065676 	-1.2771811e-07 	0.0016646922 	-5.2616522e-07 	0.00067330968
0.73195876 	0.0015921318 	0.00073354086 	-6.5882031e-09 	0.0016580295 	-2.0953224e-08 	0.00045351736
0.74226804 	0.0015850637 	0.00073484639 	-1.1623937e-07 	0.0016502002 	-3.7174905e-07 	0.00066755558
0.75257732 	0.001576998 	0.00073494089 	-1.6391583e-10 	0.0016408052 	-6.2758391e-10 	0.00066042541
0.7628866 	0.0015673152 	0.00073364732 	-7.8957611e-08 	0.0016296278 	-2.2804924e-07 	0.00065936214
0.77319588 	0.0015566871 	0.00073169942 	-1.1030371e-08 	0.0016173949 	-3.1858457e-08 	0.00065933882
0.78350515 	0.0015449025 	0.00072880753 	-1.0928961e-07 	0.0016038602 	-2.8371792e-07 	0.00064984265
0.79381443 	0.0015324112 	0.00072449164 	-3.9530142e-09 	0.0015890961 	-1.1884568e-08 	0.00050417869
0.80412371 	0.0015189546 	0.00071842226 	-2.3615637e-07 	0.0015735373 	-5.5200052e-07 	0.00063949295
0.81443299 	0.0015049951 	0.0007115157 	-1.9978356e-08 	0.0015558777 	-4.606358e-08 	7.0762371e-05
0.82474227 	0.0014898392 	0.00070412423 	-2.3566877e-07 	0.0015388526 	-5.3515649e-07 	0.00062858812
0.83505155 	0.0014740146 	0.0006961335 	-1.657643e-08 	0.0015199319 	-3.7609658e-08 	0.00061729855
0.84536082 	0.0014570562 	0.00068747486 	-9.0860423e-09 	0.0014993189 	-2.0776579e-08 	0.00035996105
0.8556701 	0.0014387245 	0.00067837512 	-2.3355976e-07 	0.0014782528 	-5.2829915e-07 	0.00060557624
0.86597938 	0.0014192943 	0.00066863976 	-1.0185323e-07 	0.0014555979 	-2.2974135e-07 	0.00059357995
0.87628866 	0.0013987256 	0.00065818085 	-1.4600076e-08 	0.0014310142 	-3.2967287e-08 	0.00018056758
0.88659794 	0.0013770576 	0.00064742729 	-7.7657513e-09 	0.0014063188 	-1.7479988e-08 	0.0003592833
0.89690722 	0.0013551969 	0.00063651503 	-5.7583622e-08 	0.001381176 	-1.3035216e-07 	0.00056964478
0.90721649 	0.0013350263 	0.00062610866 	-1.2292089e-07 	0.0013565755 	-2.8215116e-07 	0.0005589208
0.91752577 	0.0013199268 	0.00061774895 	-1.1256111e-07 	0.0013357818 	-2.6742083e-07 	0.00055049569
0.92783505 	0.0013173645 	0.00061483104 	-3.9197663e-08 	0.0013259716 	-1.0681954e-07 	0.00054661004
0.93814433 	0.0013453084 	0.00062588227 	1.1982029e-08 	0.0013458186 	2.1316502e-08 	0.00055186021
0.94845361 	0.0014556769 	0.00067622299 	6.1021461e-08 	0.0014481333 	1.2563011e-07 	8.7059386e-05
0.95876289 	0.0017418544 	0.00081781009 	5.2018454e-07 	0.0017302872 	1.0243426e-06 	0.0007441203
0.96907216 	0.0022067995 	0.0010486921 	9.3728789e-08 	0.0021919355 	2.0634931e-07 	0.00029402521
0.97938144 	0.0024206883 	0.0011673334 	-2.5949323e-08 	0.00241012 	-1.282448e-07 	0.0010128846
0.98969072 	0.001181673 	0.00055242527 	-1.0228012e-06 	0.0011790311 	-2.0326688e-06 	0.000523835
