/*--------------------------------*- C++ -*----------------------------------*\
  =========                 |
  \\      /  F ield         | OpenFOAM: The Open Source CFD Toolbox
   \\    /   O peration     | Website:  https://openfoam.org
    \\  /    A nd           | Version:  7
     \\/     M anipulation  |
\*---------------------------------------------------------------------------*/
FoamFile
{
    version     2.0;
    format      ascii;
    class       volScalarField;
    location    "2000";
    object      k;
}
// * * * * * * * * * * * * * * * * * * * * * * * * * * * * * * * * * * * * * //

dimensions      [0 2 -2 0 0 0 0];

internalField   nonuniform List<scalar> 
15296
(
0.0016938154
0.0016884228
0.0016832375
0.0016782301
0.0016733723
0.0016686458
0.0016640377
0.0016595385
0.0016551406
0.001650838
0.0016466258
0.0016425
0.0016384572
0.0016344946
0.0016306094
0.0016268013
0.0016230611
0.0016193885
0.0016157845
0.0016121951
0.0016087859
0.0016058376
0.0016025918
0.0016005916
0.0015968404
0.0015851051
0.00156371
0.001542963
0.0015418754
0.001477435
0.0014515204
0.0014213274
0.001404065
0.0014098384
0.0014249909
0.0012846689
0.0011245041
0.00099983182
0.0016938747
0.00168848
0.0016832988
0.0016782943
0.0016734398
0.0016687168
0.0016641123
0.0016596166
0.001655222
0.0016509225
0.001646713
0.0016425896
0.0016385486
0.0016345876
0.0016307036
0.0016268966
0.0016231567
0.0016194838
0.0016158809
0.001612282
0.001608873
0.0016059978
0.0016026803
0.0016007459
0.0015970645
0.0015850457
0.0015626844
0.0015402739
0.001538024
0.0014697363
0.0014450786
0.0014163986
0.0013990933
0.0014036358
0.001419623
0.001280882
0.0011253663
0.00099418771
0.0016939995
0.001688604
0.0016834285
0.0016784286
0.0016735794
0.0016688625
0.0016642645
0.0016597752
0.0016553867
0.0016510927
0.0016468881
0.0016427687
0.001638731
0.0016347725
0.0016308903
0.0016270847
0.0016233446
0.0016196702
0.0016160695
0.0016124462
0.0016090383
0.00160633
0.0016028476
0.0016009844
0.0015974203
0.0015847908
0.0015601109
0.0015339139
0.0015291119
0.0014515628
0.0014295409
0.0014044929
0.0013874907
0.0013894918
0.0014069035
0.0012703644
0.0011234888
0.0010007299
0.0016941835
0.0016887923
0.0016836229
0.0016786286
0.0016737863
0.0016690776
0.0016644884
0.001660008
0.001655628
0.0016513419
0.0016471442
0.0016430306
0.0016389977
0.0016350428
0.0016311629
0.0016273595
0.0016236189
0.0016199418
0.0016163454
0.0016126793
0.0016092728
0.0016068367
0.0016030876
0.0016011576
0.0015977439
0.0015844205
0.0015560117
0.001523762
0.0015156674
0.0014236514
0.0014048376
0.001385582
0.0013696893
0.0013681654
0.0013877537
0.0012539242
0.0011187937
0.0010051518
0.0016944245
0.0016890446
0.0016838809
0.0016788928
0.0016740589
0.0016693602
0.0016647821
0.0016603133
0.0016559446
0.001651669
0.0016474807
0.0016433753
0.001639349
0.0016353994
0.0016315232
0.001627723
0.001623982
0.0016203009
0.0016167139
0.001612977
0.0016095742
0.0016075462
0.0016034057
0.0016010565
0.0015977239
0.0015839623
0.0015500867
0.0015084076
0.0014968104
0.001386582
0.0013696061
0.0013584821
0.0013451637
0.0013392439
0.0013607015
0.0012323014
0.0011114217
0.00098988015
0.0016948091
0.0016894524
0.001684295
0.0016793152
0.0016744926
0.0016698083
0.0016652467
0.0016607954
0.0016564442
0.0016521851
0.001648012
0.00164392
0.0016399051
0.0016359647
0.0016320951
0.0016283008
0.0016245603
0.0016208728
0.0016173084
0.0016134338
0.0016100439
0.0016087298
0.0016039146
0.0016003442
0.0015962899
0.0015831235
0.0015398739
0.0014795565
0.0014632118
0.0013342625
0.0013123038
0.001313429
0.0013057593
0.0012933986
0.0013150838
0.0011998483
0.0010980229
0.00096558347
0.0016954493
0.0016901332
0.0016849825
0.0016800119
0.0016752019
0.0016705336
0.0016659909
0.0016615602
0.0016572301
0.0016529915
0.0016488375
0.0016447627
0.0016407626
0.0016368347
0.0016329742
0.0016291878
0.0016254492
0.0016217537
0.0016182351
0.0016141235
0.001610783
0.0016105266
0.0016046397
0.001598752
0.0015906736
0.00158101
0.0015219731
0.0014208161
0.0013939889
0.0012833152
0.0012371845
0.0012530706
0.0012536224
0.001230353
0.0012405881
0.0011509492
0.0010650781
0.00090388189
0.0016963874
0.0016911025
0.001685963
0.001681002
0.0016762035
0.0016715501
0.0016670259
0.0016626162
0.001658308
0.0016540914
0.0016499584
0.001645903
0.0016419201
0.001638007
0.0016341577
0.0016303816
0.0016266466
0.0016229404
0.0016195048
0.0016150242
0.0016118103
0.0016130023
0.0016055876
0.0015960383
0.0015813443
0.0015771027
0.001494673
0.0013164656
0.0012425209
0.0012289333
0.0011508453
0.0011866038
0.0011993972
0.0011644469
0.0011393044
0.0010874326
0.0010001829
0.00077859689
0.0016977343
0.0016924498
0.0016873311
0.0016823801
0.0016775912
0.0016729508
0.0016684436
0.001664054
0.0016597681
0.0016555743
0.0016514639
0.0016474299
0.0016434668
0.0016395712
0.0016357359
0.001631973
0.0016282441
0.0016245222
0.0016212348
0.0016161728
0.0016132441
0.0016164817
0.0016068261
0.0015914841
0.001573218
0.0015717164
0.0014473668
0.0011556713
0.00092645269
0.0011374254
0.0010672522
0.001119033
0.0011446108
0.0011054532
0.0010214838
0.0010182189
0.00086339577
0.00055599202
0.0016995607
0.0016943114
0.0016892127
0.0016842708
0.0016794892
0.0016748589
0.001670366
0.0016659947
0.00166173
0.0016575592
0.0016534721
0.0016494612
0.0016455199
0.0016416449
0.0016378268
0.0016340812
0.0016303623
0.001626615
0.0016235855
0.001617609
0.0016152783
0.0016214137
0.0016084005
0.0015834048
0.0015672552
0.001563551
0.0013210918
0.00089993221
0.00050782165
0.00090015538
0.00097196867
0.0010444757
0.0010794719
0.0010413077
0.00090638395
0.00095457817
0.00055350811
0.00023744117
0.0017020115
0.0016968524
0.0016917703
0.0016868362
0.0016820594
0.0016774351
0.001672952
0.0016685951
0.0016643487
0.0016601986
0.0016561338
0.0016521457
0.0016482271
0.0016443744
0.0016405757
0.001636852
0.0016331474
0.0016293578
0.0016267598
0.0016193545
0.0016182168
0.0016282112
0.0016101553
0.0015674231
0.0015616466
0.0015331907
0.00094533194
0.00044504958
0.00017985652
0.00029552698
0.0007808898
0.00092450374
0.00097456562
0.00092835474
0.00078241994
0.000877359
0.00014449702
7.1929633e-06
0.0017053877
0.0017002585
0.0016952079
0.001690283
0.0016855072
0.0016808828
0.0016764023
0.0016720523
0.0016678172
0.0016636819
0.0016596341
0.0016556647
0.0016517656
0.0016479333
0.001644153
0.0016404537
0.0016367656
0.0016329059
0.0016309962
0.0016213736
0.0016224697
0.0016362867
0.0016110862
0.001530766
0.0015551599
0.0012076443
0.00030981354
4.1605842e-05
8.0316812e-06
6.6723947e-06
0.00033792144
0.00062442269
0.00073855674
0.00069215522
0.00061164261
0.00066119822
1.2772545e-05
1.7811974e-09
0.001709899
0.0017048169
0.0016997965
0.0016948786
0.0016900988
0.0016854664
0.001680978
0.0016766234
0.0016723879
0.0016682563
0.0016642154
0.0016602551
0.001656367
0.001652548
0.0016487795
0.0016451039
0.0016414296
0.0016374607
0.0016365987
0.0016235357
0.0016282529
0.001638392
0.0016072286
0.0014345149
0.0015273954
0.00035625958
5.4703294e-06
3.617026e-06
6.9138547e-07
1.0228177e-06
7.1268889e-05
0.00021604392
0.00031662544
0.0003042347
0.000433261
8.5958581e-05
1.0471665e-07
8.6225126e-10
0.0017158597
0.0017108951
0.0017058893
0.0017009736
0.0016961856
0.0016915365
0.001687028
0.001682654
0.0016784025
0.0016742589
0.0016702097
0.0016662441
0.0016623528
0.0016585345
0.0016547644
0.0016511085
0.0016474365
0.0016433208
0.0016439678
0.0016255266
0.0016322092
0.0016408203
0.0015546983
0.0011518643
0.0012078902
5.2229822e-05
8.5391451e-07
2.220446e-16
2.220446e-16
6.5974019e-08
9.0712448e-06
2.4841145e-05
4.3478727e-05
4.0708943e-05
0.00016656507
5.2212379e-06
2.0632114e-08
2.3274862e-10
0.0017239444
0.0017189172
0.0017139305
0.0017090211
0.001704221
0.0016995453
0.0016950019
0.0016905902
0.0016863021
0.0016821253
0.0016780465
0.0016740542
0.0016701386
0.0016663008
0.001662506
0.0016588609
0.0016551555
0.0016509034
0.0016534771
0.0016258732
0.00163186
0.0016588486
0.00072599528
0.00022975645
0.000119986
7.1164582e-07
5.8431889e-09
2.220446e-16
2.220446e-16
8.032512e-10
9.6328293e-08
9.6022435e-08
1.6046963e-07
2.3947067e-07
7.2731977e-06
6.3007307e-08
2.4331718e-09
1.0947974e-15
0.0017365478
0.0017314927
0.001726509
0.0017215966
0.0017167715
0.0017120484
0.0017074411
0.0017029563
0.0016985922
0.0016943406
0.0016901901
0.0016861296
0.0016821479
0.0016782505
0.0016743821
0.0016707344
0.0016668774
0.0016626869
0.0016671284
0.0016167382
0.0016308186
0.0015298866
0.0001069933
2.0213311e-05
9.9685902e-06
3.5790134e-08
3.7723329e-10
1.7794679e-12
2.7242842e-13
6.0580161e-11
5.6356243e-09
5.0072162e-10
1.3272222e-08
1.992144e-08
1.6511157e-08
8.5959825e-10
2.0496369e-12
2.220446e-16
0.0017553851
0.0017503812
0.001745393
0.0017404492
0.00173557
0.0017307678
0.0017260578
0.0017214522
0.0017169555
0.0017125655
0.001708275
0.0017040751
0.0016999538
0.0016959256
0.0016918901
0.0016882371
0.0016838354
0.0016806805
0.0016853529
0.0015743263
0.0016576641
0.00035271302
3.1072235e-07
3.7147899e-09
4.6065767e-13
3.8375263e-11
2.8918057e-11
2.3507238e-11
3.6003546e-12
9.0392996e-12
5.5030983e-11
2.5549691e-12
3.3195387e-10
5.6424805e-11
4.1960656e-09
2.638848e-13
2.220446e-16
2.220446e-16
0.0017796482
0.0017745881
0.0017695377
0.0017645184
0.0017595477
0.0017546331
0.0017497884
0.0017450274
0.001740359
0.0017357858
0.0017313051
0.0017269114
0.001722592
0.0017183763
0.0017140836
0.001710494
0.0017048545
0.0017046703
0.0016970367
0.00159232
0.00090934313
9.5889382e-06
1.5542872e-07
2.220446e-16
2.5465337e-12
2.9636423e-11
3.1059524e-11
1.6821531e-11
4.1308459e-13
1.6990323e-14
1.3653336e-14
1.4119829e-14
1.0324608e-12
1.2282607e-12
3.4160715e-10
5.7160039e-15
2.220446e-16
2.220446e-16
0.001810359
0.0018051221
0.0017999231
0.0017947588
0.0017896374
0.0017845588
0.0017795327
0.0017745722
0.0017696875
0.001764884
0.0017601627
0.0017555212
0.0017509456
0.0017464868
0.0017418361
0.0017384936
0.0017300601
0.0017373989
0.0017438458
0.0010986186
7.7174618e-05
1.0791896e-06
1.6442709e-08
3.8675219e-13
2.5375644e-11
3.0495899e-11
3.1163569e-11
4.8906788e-12
8.8532146e-15
1.8106706e-14
2.3080557e-14
2.0839297e-14
1.203603e-15
5.5754135e-13
3.5172268e-12
5.5446603e-14
2.220446e-16
2.220446e-16
0.0018484874
0.0018430484
0.0018376318
0.001832242
0.0018268919
0.0018215788
0.0018163081
0.0018110904
0.0018059348
0.0018008475
0.0017958308
0.0017908847
0.0017859944
0.0017812304
0.0017761408
0.0017732921
0.0017577677
0.0018219362
0.0013024784
0.0006706272
1.491559e-05
8.6612169e-09
4.8289446e-10
1.5195375e-11
2.9081245e-11
3.0915416e-11
3.3255446e-11
2.0901306e-11
8.1517797e-14
1.9996663e-14
2.3035826e-14
2.4832305e-14
5.0948263e-15
4.9423807e-14
3.8892306e-13
7.1814503e-15
2.220446e-16
2.220446e-16
0.0018952995
0.001889569
0.0018838465
0.001878143
0.0018724786
0.0018668505
0.0018612608
0.0018557173
0.001850227
0.0018447947
0.0018394231
0.0018341122
0.0018288496
0.0018236997
0.0018182472
0.0018147088
0.0018022346
0.001822092
0.0018664891
0.0013578272
3.7965496e-05
2.4363104e-07
4.6384586e-09
7.2145782e-11
3.0829093e-11
3.0800065e-11
3.3805129e-11
2.3027292e-11
7.8842923e-13
1.5053206e-14
2.0047166e-14
2.4192572e-14
1.2688658e-14
2.7407796e-16
1.0345231e-14
3.7744212e-15
2.220446e-16
2.220446e-16
0.0019521438
0.0019459649
0.001939821
0.001933707
0.0019276381
0.0019216078
0.001915615
0.0019096652
0.0019037637
0.0018979138
0.0018921172
0.0018863729
0.0018806732
0.0018750529
0.0018692684
0.0018645131
0.0018558264
0.0018527406
0.0019992661
0.00076063746
3.225019e-06
1.0692228e-07
2.4464336e-10
2.3838219e-10
6.0547159e-11
3.1034651e-11
3.2683526e-11
3.5188169e-11
9.2824202e-12
5.8350812e-14
3.8174233e-15
2.5567474e-14
2.2963362e-14
1.6259106e-14
5.4162127e-15
7.5316392e-14
7.0219981e-15
2.220446e-16
0.0020202016
0.0020134959
0.0020068523
0.0020002427
0.0019936775
0.0019871496
0.0019806572
0.0019742063
0.0019678018
0.0019614458
0.0019551392
0.0019488792
0.0019426626
0.001936493
0.001930294
0.0019243722
0.0019179179
0.0019059254
0.0019803596
0.001833297
6.8853021e-06
1.8415985e-07
2.5042374e-10
2.4725517e-10
2.302135e-10
6.3710611e-11
3.2732265e-11
3.2349079e-11
5.7217484e-12
4.6890079e-14
1.8558595e-15
2.480961e-14
3.1080413e-14
1.9572124e-14
1.0942419e-14
1.5959354e-13
7.8562551e-14
2.8050819e-16
0.00210077
0.0020935682
0.0020863654
0.0020791627
0.0020719906
0.0020648515
0.0020577466
0.0020506836
0.002043668
0.0020367015
0.002029784
0.0020229114
0.0020160812
0.0020092842
0.0020025142
0.0019956981
0.0019897032
0.0019762058
0.0019805213
0.0020148216
0.00023157898
9.0162229e-07
2.7321396e-08
2.5981189e-10
2.6263376e-10
1.7576749e-10
4.3043702e-11
1.4567234e-11
5.3523523e-13
3.3979842e-14
8.7595004e-15
1.6525158e-14
3.6401357e-14
4.993286e-14
2.6908656e-14
6.7320635e-13
1.5745294e-13
1.5202754e-15
0.0021959944
0.0021879224
0.0021799209
0.0021719493
0.0021640206
0.0021561313
0.0021482802
0.0021404751
0.0021327221
0.0021250227
0.0021173758
0.0021097769
0.0021022197
0.0020947015
0.0020871914
0.0020797291
0.0020723381
0.0020661054
0.0020217306
0.0023375094
0.00032172806
1.2196352e-07
1.0971914e-07
2.680874e-10
2.7366126e-10
2.5265906e-10
5.3709913e-11
4.1657352e-13
5.4555653e-13
1.6687596e-13
8.5480825e-14
3.6946191e-13
1.2251412e-13
8.8330972e-14
7.8860627e-14
4.0604491e-15
3.4609209e-15
2.5494637e-16
0.0023067399
0.0022978024
0.0022889056
0.002280023
0.0022711794
0.0022623784
0.0022536213
0.0022449176
0.0022362745
0.002227694
0.0022191739
0.0022107094
0.0022022902
0.0021939203
0.0021855424
0.0021773152
0.0021686477
0.002162616
0.0021386021
0.0022031235
0.0021657166
0.0002422955
1.0633063e-06
4.2098011e-08
2.6419819e-10
2.7783715e-10
1.1907747e-10
1.1547852e-10
1.0055151e-11
2.1075813e-13
2.6896485e-14
3.8480552e-14
1.492472e-14
9.2037425e-14
4.1019821e-14
3.2526992e-14
7.3863918e-14
2.4548471e-14
0.0024349371
0.0024248285
0.0024147903
0.0024047784
0.002394812
0.0023848954
0.0023750313
0.0023652313
0.0023555047
0.0023458542
0.0023362774
0.0023267688
0.0023173164
0.0023079206
0.0022985407
0.0022892655
0.0022797504
0.0022715354
0.0022600714
0.0022178601
0.0025654376
0.00043573941
2.5893783e-05
1.0873611e-06
5.7158321e-07
1.5402224e-10
8.2816721e-11
1.1174352e-08
3.2893449e-13
6.5602522e-13
1.2582386e-13
2.3481979e-14
1.0888628e-15
3.5014277e-14
4.4158163e-14
1.0908805e-13
2.2261616e-13
1.0579023e-13
0.0025819821
0.002570462
0.0025590182
0.0025476039
0.0025362407
0.0025249376
0.0025137011
0.0025025464
0.0024914852
0.0024805217
0.0024696533
0.002458873
0.0024481688
0.0024375327
0.0024269504
0.0024164072
0.0024059682
0.0023954446
0.0023864514
0.0023641501
0.002403821
0.0025386312
0.0010986436
4.4534305e-06
5.4748498e-06
8.0903353e-07
1.0630565e-08
1.1441801e-07
3.954222e-10
5.2411344e-13
5.1967159e-13
6.3387604e-14
5.2939524e-13
4.8497083e-12
2.9853254e-14
4.4170066e-14
1.0631446e-13
3.6852962e-14
0.0027497416
0.0027363388
0.0027230452
0.0027098072
0.0026966452
0.0026835706
0.002670593
0.0026577303
0.0026449963
0.0026323954
0.0026199241
0.0026075733
0.0025953289
0.0025831778
0.0025711108
0.002559098
0.0025472486
0.0025351218
0.0025250708
0.002506502
0.0024938707
0.0025674822
0.0022777305
0.00036778463
5.5627952e-05
8.9662753e-06
6.9545955e-06
1.4854601e-06
1.1978104e-06
6.4758048e-09
2.3921002e-08
2.5741499e-10
4.3237317e-12
4.807037e-11
3.6379397e-13
5.2597205e-15
1.7980523e-15
1.1828512e-13
0.0029393568
0.0029235328
0.0029078513
0.0028922599
0.0028767826
0.0028614355
0.0028462333
0.0028311981
0.0028163453
0.0028016792
0.0027871945
0.0027728784
0.0027587134
0.0027446822
0.0027307705
0.0027169654
0.0027032793
0.0026897175
0.0026763161
0.0026635319
0.00264455
0.0026473483
0.0026759803
0.0025310439
0.0016017689
0.000916749
0.00092438801
0.00048842261
1.9724261e-05
1.3445873e-06
2.4344726e-07
2.6917187e-09
1.4867573e-08
7.3877595e-10
1.541241e-10
1.6578771e-10
1.9205388e-12
6.6964434e-11
0.0031517889
0.0031328201
0.0031140438
0.0030954139
0.0030769575
0.0030586948
0.0030406472
0.0030228411
0.0030052933
0.0029880072
0.0029709744
0.0029541775
0.0029375937
0.0029212004
0.0029049793
0.0028889173
0.0028730153
0.0028572978
0.0028416591
0.0028267361
0.0028092387
0.0027935123
0.0028127326
0.0027280947
0.0026890626
0.0025674345
0.0024525068
0.0025716855
0.00089165688
3.4100546e-05
1.5772186e-06
8.7096896e-09
1.018554e-07
2.7982264e-07
1.144314e-07
8.9636796e-10
1.3420902e-10
6.9729726e-10
0.0033881195
0.0033649729
0.0033421064
0.0033194866
0.0032971396
0.0032750848
0.0032533494
0.0032319631
0.0032109419
0.0031902864
0.0031699835
0.0031500091
0.0031303332
0.0031109268
0.0030917665
0.003072837
0.003054137
0.0030356671
0.0030174502
0.0029993529
0.0029820212
0.0029613525
0.0029438114
0.0029454147
0.0029297652
0.0029099489
0.0028684961
0.0028909693
0.002755375
0.0023397745
0.00032316735
2.84926e-05
3.7422833e-05
2.7358396e-05
5.7265986e-06
8.9563052e-07
4.6951543e-08
6.8220609e-09
0.0036400609
0.0036115952
0.0035835089
0.0035557971
0.0035284868
0.003501597
0.0034751647
0.0034492252
0.0034237943
0.00339887
0.003374434
0.0033504542
0.003326892
0.0033037105
0.0032808807
0.0032583845
0.0032362164
0.0032143797
0.0031928707
0.0031716782
0.0031508384
0.0031302293
0.0031085305
0.0030893573
0.0030726513
0.0030583618
0.0030340993
0.0030097308
0.0029831648
0.0030051753
0.002758449
0.0021223007
0.0015615665
0.001091789
0.001152812
0.00051384912
1.1595048e-05
2.9445988e-06
0.0038895232
0.0038547209
0.0038203747
0.0037865299
0.0037532274
0.0037204965
0.0036883961
0.0036569751
0.0036262539
0.003596231
0.0035668834
0.0035381697
0.0035100405
0.0034824487
0.0034553574
0.003428744
0.0034025993
0.0033769233
0.0033517141
0.0033269601
0.0033026612
0.0032787602
0.0032550975
0.0032322171
0.0032092966
0.0031885838
0.0031677771
0.0031381805
0.0031393825
0.003110651
0.003120412
0.0030311751
0.0029679481
0.0027888053
0.0026963155
0.0025072837
0.0004338904
2.353815e-05
0.0041266032
0.0040844727
0.0040428034
0.004001757
0.0039614244
0.0039218696
0.0038831895
0.0038454525
0.0038086852
0.0037728849
0.0037380198
0.0037040337
0.00367086
0.0036384353
0.00360671
0.0035756522
0.0035452462
0.0035154868
0.0034863699
0.0034578795
0.0034300145
0.0034027191
0.0033758986
0.0033497561
0.0033242506
0.0032998046
0.0032760377
0.0032523639
0.0032262925
0.0032076112
0.0032115326
0.0031871317
0.0031811551
0.0031413969
0.0030747999
0.0030542172
0.0022138408
0.00041220244
0.0043505066
0.0042994917
0.0042490664
0.0041995405
0.0041510486
0.0041036838
0.0040575719
0.0040127866
0.0039693467
0.0039272354
0.0038863995
0.0038467566
0.0038082132
0.0037706818
0.0037340934
0.0036984023
0.0036635834
0.0036296242
0.0035965152
0.0035642374
0.0035327772
0.003502088
0.0034720981
0.0034428786
0.003414408
0.0033867768
0.0033598742
0.003333536
0.003307614
0.0032801605
0.0032595823
0.0032470644
0.0032372324
0.003222457
0.0031803061
0.0032532334
0.0025486722
0.0021654545
0.0045611996
0.0044994173
0.0044385575
0.0043791608
0.0043213801
0.0042652986
0.0042110283
0.0041586081
0.0041080189
0.0040592074
0.0040120821
0.0039665213
0.0039223949
0.0038795842
0.0038379967
0.0037975704
0.0037582697
0.0037200744
0.0036829692
0.0036469303
0.0036119344
0.0035779351
0.0035448669
0.0035127452
0.0034815346
0.0034512162
0.0034216986
0.0033928127
0.0033647797
0.0033367227
0.0033094249
0.0032852519
0.0032667841
0.0032530436
0.0032235077
0.0032487888
0.0031513346
0.0029578495
0.0047586071
0.0046839968
0.0046112943
0.0045410356
0.0044732038
0.0044077788
0.0043448118
0.0042842837
0.0042261283
0.0041702522
0.0041165221
0.0040647747
0.0040148404
0.0039665677
0.0039198396
0.0038745786
0.0038307394
0.0037882956
0.0037472261
0.0037075017
0.0036690891
0.0036319362
0.003595976
0.0035611905
0.0035275313
0.003494924
0.0034632871
0.0034324457
0.0034024887
0.0033731667
0.00334428
0.0033164296
0.0032912635
0.0032693967
0.0032453038
0.003232822
0.0032175817
0.0031649173
0.004944539
0.0048562579
0.0047707007
0.0046885456
0.0046096652
0.0045339773
0.0044614864
0.0043921162
0.0043257534
0.0042622604
0.0042014577
0.0041431341
0.0040870753
0.0040330931
0.0039810446
0.0039308367
0.0038824156
0.0038357491
0.0037908099
0.0037475605
0.0037059543
0.0036659263
0.0036273977
0.0035903207
0.0035546278
0.0035202197
0.003487002
0.0034548167
0.0034236506
0.0033934135
0.0033638934
0.0033349865
0.0033071719
0.0032811887
0.0032555644
0.0032330238
0.0032103434
0.0031929602
0.0051202195
0.0050177084
0.0049183258
0.0048231291
0.0047320231
0.0046449618
0.0045619451
0.0044828542
0.0044075319
0.0043357931
0.0042674041
0.0042020976
0.0041396077
0.0040797048
0.0040222195
0.0039670443
0.0039141191
0.0038634061
0.0038148688
0.0037684547
0.0037240949
0.0036816998
0.0036411658
0.0036024108
0.003565341
0.0035298369
0.0034957888
0.0034630504
0.0034315596
0.0034012418
0.0033719389
0.0033434237
0.0033156834
0.0032890625
0.0032627901
0.0032383813
0.0032132997
0.0031922466
0.0052851258
0.0051668278
0.0050522022
0.0049426918
0.0048382173
0.0047387822
0.0046443788
0.0045548429
0.0044699708
0.0043895246
0.0043132093
0.004240695
0.0041716599
0.0041058341
0.004043026
0.0039831208
0.0039260562
0.0038717882
0.0038202628
0.0037713981
0.0037250847
0.0036811892
0.0036395658
0.0036000884
0.0035626306
0.0035270524
0.0034932304
0.0034610234
0.0034303469
0.0034011138
0.0033731853
0.0033463261
0.0033203633
0.0032953734
0.0032707717
0.0032471052
0.0032238461
0.0031998622
0.0054386331
0.00530172
0.0051696363
0.0050441177
0.0049249761
0.0048121864
0.0047056652
0.0046051584
0.0045103884
0.0044210433
0.0043367511
0.004257109
0.0041817374
0.0041103328
0.0040426944
0.003978712
0.0039183252
0.0038614749
0.003808068
0.0037579622
0.0037109749
0.0036668998
0.0036255282
0.0035866807
0.003550196
0.0035159164
0.0034837089
0.0034534355
0.0034249984
0.0033982927
0.0033731765
0.0033494119
0.0033267682
0.0033051405
0.0032840856
0.0032633775
0.0032438245
0.0032199544
0.0055788309
0.0054200043
0.0052678868
0.0051244087
0.0049891588
0.0048620002
0.0047426928
0.0046308374
0.0045260405
0.0044278799
0.0043358787
0.0042495448
0.0041684412
0.004092246
0.0040207703
0.0039539209
0.0038916307
0.0038337927
0.0037802228
0.0037306605
0.0036847991
0.003642324
0.0036029466
0.0035664348
0.003532601
0.0035012803
0.003472339
0.0034456417
0.0034210781
0.00339852
0.0033778057
0.0033586768
0.0033408694
0.0033241391
0.0033081422
0.0032921521
0.0032777411
0.0032560251
0.0057036245
0.0055194844
0.00534458
0.0051809927
0.0050280478
0.0048854514
0.0047527434
0.0046293246
0.0045146278
0.0044080632
0.0043090018
0.0042168414
0.0041310968
0.0040514588
0.0039777777
0.0039099751
0.0038479316
0.0037914078
0.003740028
0.0036933231
0.0036508024
0.0036120194
0.0035766121
0.0035443199
0.0035149558
0.0034883683
0.0034644317
0.00344301
0.0034239721
0.0034071552
0.0033923629
0.0033792986
0.0033676675
0.00335711
0.0033473366
0.0033373176
0.0033290824
0.0033110988
0.0058135255
0.0055996214
0.0053983015
0.0052118094
0.0050392119
0.004880003
0.0047334054
0.0045985134
0.004474467
0.0043603953
0.0042554419
0.004158877
0.0040702055
0.003989187
0.0039157326
0.0038497254
0.0037908648
0.0037386101
0.0036922385
0.0036509714
0.0036141039
0.003581085
0.0035515363
0.0035252291
0.0035020209
0.0034817936
0.0034644294
0.0034497765
0.0034376648
0.0034278797
0.0034201776
0.0034142138
0.0034096645
0.0034060764
0.0034031892
0.003399815
0.003398156
0.0033853191
0.0059107714
0.0056601403
0.0054271656
0.0052141
0.0050196247
0.0048428252
0.0046823699
0.0045367984
0.004404709
0.0042847539
0.0041757612
0.0040769085
0.0039877992
0.0039083442
0.0038384797
0.0037778695
0.0037257581
0.0036810393
0.0036424774
0.0036089519
0.0035796192
0.003553951
0.0035316747
0.0035126768
0.0034968951
0.0034842412
0.0034745793
0.0034677092
0.0034633956
0.0034613561
0.0034612966
0.0034628251
0.0034656
0.0034691004
0.0034730939
0.0034763675
0.0034809597
0.0034744234
0.0059951101
0.0056982516
0.0054270084
0.0051833327
0.0049652068
0.0047708357
0.0045978212
0.0044436375
0.0043059062
0.0041825576
0.0040721092
0.003973846
0.0038876914
0.0038137538
0.0037517662
0.0037007397
0.0036590157
0.0036246471
0.0035958619
0.0035713765
0.0035504708
0.0035328715
0.0035185548
0.0035075679
0.0034999057
0.0034954529
0.0034939976
0.0034952471
0.0034988803
0.0035045459
0.0035119084
0.003520541
0.0035301101
0.003540062
0.0035502124
0.0035594528
0.0035693209
0.0035697646
0.0060620125
0.0057072075
0.0053906271
0.0051131591
0.0048713758
0.0046616551
0.004479506
0.0043204283
0.0041804962
0.0040568459
0.0039480549
0.0038540345
0.0037752974
0.0037119065
0.0036627011
0.0036252556
0.0035965282
0.0035737356
0.003554957
0.0035392641
0.0035264819
0.003516812
0.0035105083
0.0035076922
0.0035082888
0.0035120462
0.0035186069
0.0035275594
0.0035385046
0.0035510453
0.0035648249
0.0035794055
0.0035945101
0.0036096003
0.0036245975
0.0036386036
0.0036523546
0.0036599026
0.0061060984
0.0056792366
0.0053101222
0.0049977556
0.004735706
0.0045162904
0.0043308628
0.0041716535
0.00403298
0.0039119322
0.0038082979
0.0037233897
0.0036581204
0.0036113574
0.0035795961
0.0035580688
0.0035424101
0.0035298105
0.0035192096
0.0035107767
0.0035051844
0.0035030474
0.0035046507
0.0035099187
0.0035185064
0.0035299217
0.003543642
0.0035591713
0.0035760836
0.0035939853
0.003612566
0.0036314438
0.0036504541
0.0036690791
0.0036873932
0.0037047337
0.0037207424
0.0037353459
0.0061219331
0.0056148682
0.0051939059
0.0048542539
0.0045823122
0.0043623929
0.0041796041
0.0040229645
0.0038866452
0.0037697946
0.0036747935
0.0036041592
0.0035574453
0.0035301112
0.0035151082
0.0035057976
0.0034980976
0.0034908399
0.0034847889
0.0034813405
0.0034816032
0.003486035
0.0034944905
0.0035064456
0.0035212231
0.0035381496
0.0035566493
0.0035762558
0.0035966182
0.003617434
0.003638517
0.0036595642
0.0036805157
0.0037008268
0.0037207014
0.0037396782
0.0037562504
0.0037768548
0.0061179749
0.0055357615
0.0050749598
0.0047216679
0.004449691
0.0042333913
0.0040529504
0.0038967731
0.0037610824
0.0036479726
0.0035618626
0.00350499
0.0034742041
0.003461375
0.0034570558
0.0034543422
0.0034504934
0.0034461044
0.0034432182
0.00344373
0.0034486302
0.0034579642
0.0034711515
0.0034873551
0.0035057385
0.0035255952
0.0035463963
0.0035677625
0.0035894491
0.003611255
0.0036330852
0.0036546794
0.0036760526
0.0036966292
0.0037167273
0.0037360749
0.0037521248
0.0037774832
0.0060932276
0.0054320154
0.0049419118
0.0045872527
0.0043211057
0.0041077499
0.0039260875
0.0037672183
0.0036309844
0.0035223632
0.003446577
0.0034039274
0.0033875328
0.0033859438
0.0033885525
0.0033894353
0.0033877218
0.0033855535
0.0033856694
0.0033899093
0.003398822
0.0034119659
0.0034284153
0.0034471717
0.0034673831
0.0034884145
0.0035098471
0.0035314186
0.0035529983
0.0035744764
0.0035958324
0.0036168297
0.0036375435
0.0036573577
0.0036767263
0.0036955185
0.003710279
0.0037394756
0.0060440371
0.0053094211
0.0048078707
0.0044615518
0.0041989194
0.0039812378
0.0037925495
0.0036288378
0.0034929992
0.0033912158
0.0033275772
0.0032990277
0.0032947841
0.0033011459
0.0033077216
0.0033103982
0.0033101584
0.0033101558
0.0033132243
0.0033207608
0.0033327607
0.0033483806
0.0033665161
0.0033861689
0.0034065875
0.003427276
0.0034479536
0.0034684785
0.0034888213
0.003508942
0.0035288689
0.0035483666
0.0035675618
0.0035857842
0.003603664
0.0036210938
0.0036340174
0.0036658462
0.0059742212
0.0051826933
0.0046882081
0.0043479069
0.0040753275
0.0038427449
0.0036435427
0.0034766875
0.0033451258
0.0032537629
0.0032038676
0.0031885047
0.0031937936
0.0032052729
0.003213894
0.0032175865
0.0032187656
0.0032209768
0.0032266999
0.0032367314
0.0032505885
0.0032672049
0.0032854763
0.0033045313
0.0033237888
0.0033429164
0.0033617699
0.0033803105
0.0033985847
0.003416593
0.0034343885
0.0034517192
0.0034687616
0.0034847748
0.0035006179
0.0035160251
0.0035268184
0.0035599332
0.0058892341
0.005072242
0.0045914836
0.0042355917
0.0039332093
0.003679233
0.0034724171
0.0033087719
0.0031875313
0.0031103289
0.0030748944
0.0030709736
0.0030830648
0.0030973936
0.0031069046
0.0031113364
0.0031139424
0.0031181389
0.003125818
0.0031372134
0.0031515418
0.0031677078
0.0031847466
0.0032019861
0.0032190362
0.0032357207
0.0032520093
0.0032679374
0.0032835979
0.0032990034
0.0033142119
0.0033289432
0.0033434287
0.0033568348
0.0033703134
0.0033831964
0.0033918558
0.0034247869
0.0058014143
0.0049971089
0.004507043
0.0040993677
0.003752568
0.0034805694
0.003275999
0.0031251492
0.0030207423
0.0029603702
0.0029387299
0.0029436889
0.0029598036
0.0029750673
0.0029845777
0.0029894257
0.0029931338
0.0029986559
0.0030072504
0.0030187304
0.0030322038
0.0030466929
0.0030614482
0.0030760149
0.0030901793
0.0031038933
0.0031172079
0.0031302016
0.0031429857
0.0031555615
0.0031679799
0.0031799263
0.0031916979
0.0032023375
0.0032133731
0.0032234219
0.0032303267
0.0032614211
0.0057303933
0.0049550965
0.0044005538
0.0039074889
0.0035150446
0.0032387281
0.0030509635
0.002923095
0.002840306
0.0027970147
0.0027866139
0.0027969827
0.0028141481
0.0028284267
0.00283688
0.0028414484
0.0028454978
0.0028513572
0.0028597228
0.0028701443
0.0028817542
0.0028937624
0.002905647
0.002917147
0.0029281885
0.0029388153
0.0029491268
0.0029592163
0.0029691929
0.0029790312
0.0029887725
0.0029980678
0.0030072985
0.0030153499
0.0030242261
0.0030314815
0.0030375678
0.0030650621
0.0056817398
0.0049000776
0.0042198102
0.0036216949
0.0031967157
0.0029383346
0.0027855826
0.002689593
0.0026294592
0.00260013
0.0025966943
0.0026086943
0.0026242017
0.002635786
0.002642045
0.002645372
0.0026487467
0.0026538543
0.0026609441
0.0026694324
0.0026785472
0.002687674
0.0026964862
0.0027048746
0.0027128667
0.002720568
0.0027281004
0.0027355523
0.0027430192
0.0027504368
0.0027578447
0.0027648529
0.0027719678
0.0027778265
0.002785153
0.0027898106
0.002796765
0.0028181898
0.0056244643
0.0047722772
0.0038938501
0.0031811816
0.0027540689
0.0025428605
0.0024283725
0.0023565495
0.0023095398
0.0022859099
0.0022828993
0.0022916342
0.0023021751
0.0023090736
0.0023120885
0.0023136788
0.0023162152
0.0023206829
0.002326849
0.0023339864
0.0023414074
0.0023486727
0.0023555958
0.002362162
0.0023684536
0.0023746014
0.0023807269
0.002386907
0.0023932301
0.0023996168
0.0024061347
0.0024124107
0.0024190953
0.0024246902
0.0024325422
0.0024370948
0.0024477835
0.0024644898
0.0053165059
0.0044122758
0.0032971741
0.0025020826
0.0021095636
0.0019406977