/*--------------------------------*- C++ -*----------------------------------*\
  =========                 |
  \\      /  F ield         | OpenFOAM: The Open Source CFD Toolbox
   \\    /   O peration     | Website:  https://openfoam.org
    \\  /    A nd           | Version:  7
     \\/     M anipulation  |
\*---------------------------------------------------------------------------*/
FoamFile
{
    version     2.0;
    format      ascii;
    class       volScalarField;
    location    "2000";
    object      p;
}
// * * * * * * * * * * * * * * * * * * * * * * * * * * * * * * * * * * * * * //

dimensions      [0 2 -2 0 0 0 0];

internalField   nonuniform List<scalar> 
15296
(
0.26278547
0.26074356
0.25989826
0.25920116
0.2584026
0.25759917
0.25683897
0.2561142
0.25542342
0.25476898
0.25414986
0.2535622
0.25300536
0.2524717
0.2519755
0.25146027
0.25098868
0.25008768
0.24908658
0.24863791
0.24846465
0.24825302
0.24816667
0.24809427
0.24808965
0.24819684
0.24854849
0.24933652
0.25076836
0.2529832
0.25646623
0.26206304
0.27097037
0.28537829
0.30938238
0.35006085
0.42506024
0.58253454
0.26276583
0.2607426
0.25989705
0.25920063
0.2584028
0.25759966
0.25683954
0.25611478
0.25542398
0.25476946
0.25415025
0.25356251
0.25300557
0.25247183
0.25197562
0.25146082
0.25099204
0.25009365
0.24909059
0.24863836
0.24846417
0.24825317
0.24816717
0.24809459
0.24808865
0.24819276
0.24853861
0.24931614
0.25073589
0.25293988
0.25640628
0.26196667
0.27080041
0.28507213
0.30886559
0.34919934
0.4234873
0.57850852
0.2627593
0.26074419
0.2598979
0.25920187
0.25840439
0.2576015
0.2568416
0.25611705
0.25542643
0.25477207
0.254153
0.25356537
0.25300855
0.25247489
0.25197885
0.25146417
0.25099674
0.2501003
0.24909592
0.24864089
0.24846595
0.24825454
0.24816788
0.24809493
0.24808818
0.24818981
0.24853042
0.2492995
0.25071792
0.25290746
0.25634929
0.26187106
0.27063482
0.28478282
0.30840753
0.348379
0.42183401
0.57389099
0.26275238
0.26074581
0.25989855
0.259203
0.25840589
0.25760325
0.25684355
0.25611921
0.25542875
0.25477453
0.25415558
0.25356806
0.25301134
0.25247773
0.25198186
0.25146733
0.2510014
0.25010696
0.24910114
0.24864325
0.24846756
0.24825582
0.24816857
0.24809527
0.24808769
0.2481865
0.2485215
0.2492804
0.25069422
0.25287704
0.25629184
0.26177449
0.27046623
0.2844833
0.30788913
0.34755719
0.42021889
0.56919608
0.26274548
0.26074769
0.25989908
0.25920411
0.25840738
0.25760497
0.25684548
0.25612133
0.25543104
0.25477695
0.25415812
0.2535707
0.25301407
0.25248053
0.25198482
0.25147045
0.25100607
0.25011361
0.24910631
0.24864554
0.24846912
0.24825706
0.24816924
0.24809561
0.24808723
0.24818313
0.2485128
0.24926108
0.25066034
0.25285619
0.2562353
0.26167904
0.27030017
0.28418642
0.30733577
0.34673134
0.41863435
0.56457488
0.26273628
0.26075062
0.25989963
0.2592055
0.2584093
0.25760717
0.25684794
0.25612404
0.25543395
0.25478003
0.25416135
0.25357406
0.25301755
0.25248408
0.25198857
0.25147448
0.2510121
0.2501222
0.24911295
0.24864842
0.24847106
0.24825864
0.2481701
0.24809604
0.24808669
0.24817906
0.24850267
0.24923902
0.25060926
0.2528515
0.25616437
0.26155837
0.27009293
0.28381917
0.30664007
0.34566238
0.41659587
0.55888113
0.26272554
0.26075476
0.25990023
0.2592073
0.25841176
0.25760999
0.25685108
0.25612749
0.25543767
0.25478396
0.25416547
0.25357834
0.25302199
0.25248862
0.25199336
0.25147962
0.25101985
0.25013315
0.24912134
0.24865202
0.24847352
0.24826061
0.24817119
0.24809659
0.24808615
0.24817444
0.24849118
0.24921514
0.25055226
0.25285923
0.25607913
0.26140828
0.26983907
0.28337656
0.30581679
0.34431158
0.41397183
0.55191046
0.26271402
0.26076002
0.25990078
0.25920937
0.25841457
0.25761316
0.25685461
0.25613137
0.25544185
0.25478839
0.25417012
0.25358317
0.25302699
0.25249375
0.25199878
0.25148546
0.25102869
0.2501455
0.24913067
0.24865599
0.24847626
0.24826284
0.24817246
0.24809723
0.24808575
0.24816977
0.24847917
0.24919103
0.25050204
0.25279067
0.25599879
0.26124273
0.26956116
0.28289895
0.30495171
0.34280226
0.41100272
0.54429868
0.26270135
0.26076667
0.25990122
0.25921172
0.25841777
0.25761673
0.25685856
0.25613573
0.25544654
0.25479335
0.25417532
0.25358859
0.2530326
0.25249949
0.25200484
0.25149205
0.25103872
0.25015938
0.24914099
0.2486603
0.24847929
0.24826565
0.24817407
0.24809799
0.24808558
0.2481647
0.24846619
0.24916535
0.25045509
0.25261582
0.25594338
0.26106049
0.26925484
0.28237824
0.30403001
0.34112905
0.40775099
0.53605811
0.26268817
0.26077495
0.25990148
0.25921436
0.25842141
0.25762073
0.25686299
0.25614061
0.25545179
0.25479891
0.25418115
0.25359467
0.25303889
0.25250595
0.25201167
0.25149953
0.25105017
0.25017506
0.24915244
0.248665
0.24848278
0.24826924
0.24817628
0.24809892
0.24808628
0.2481585
0.24845175
0.24913695
0.25040634
0.25247339
0.25591229
0.26085609
0.26891194
0.28179954
0.30302431
0.33923149
0.40422285
0.52712244
0.26267437
0.26078525
0.25990156
0.25921739
0.2584256
0.25762528
0.25686801
0.25614613
0.25545773
0.2548052
0.25418776
0.25360155
0.25304602
0.25251327
0.25201939
0.25150806
0.25106337
0.2501929
0.24916522
0.24867011
0.24848713
0.24827272
0.24817949
0.24810004
0.24808434
0.24815104
0.24843554
0.24910514
0.25035186
0.25237038
0.25579461
0.26061655
0.26852341
0.28115033
0.30190845
0.33702727
0.40035437
0.51742284
0.2626588
0.26079784
0.25990138
0.25922081
0.25843039
0.25763039
0.25687362
0.25615232
0.25546438
0.25481225
0.25419515
0.25360926
0.25305401
0.25252147
0.25202804
0.2515177
0.25107848
0.25021305
0.24917928
0.24867545
0.24849233
0.2482645
0.24818322
0.2481013
0.24807657
0.24814333
0.24841758
0.24906975
0.25029042
0.2522719
0.25550404
0.26033793
0.26808939
0.28042797
0.30070515
0.33462634
0.39611663
0.50700588
0.26264228
0.26081311
0.25990086
0.25922462
0.25843584
0.25763609
0.25687986
0.25615919
0.25547178
0.25482008
0.25420338
0.25361784
0.2530629
0.25253062
0.25203768
0.25152854
0.25109575
0.25023578
0.24919456
0.24868051
0.24849377
0.24820546
0.24818813
0.24810278
0.24807326
0.24813532
0.24839774
0.24903051
0.25022221
0.25216496
0.25522395
0.26003377
0.2676131
0.27963499
0.29938664
0.33210203
0.39151279
0.49590212
0.26262452
0.26083162
0.25989995
0.25922884
0.25844207
0.2576425
0.25688683
0.25616688
0.25548006
0.25482885
0.25421261
0.25362748
0.25307287
0.2525409
0.25204847
0.25154083
0.2511157
0.2502616
0.24921125
0.24868425
0.2484659
0.24822737
0.2481935
0.2481043
0.24807117
0.24812623
0.24837517
0.24898619
0.25014577
0.25204206
0.2550035
0.25971038
0.26708912
0.27876099
0.29784374
0.32935527
0.3864634
0.48401445
0.2626024
0.26085427
0.25989872
0.25923343
0.25844926
0.25764975
0.25689466
0.25617553
0.25548936
0.25483871
0.25422298
0.25363833
0.2530841
0.2525525
0.25206059
0.25155485
0.25113888
0.25029045
0.24923003
0.24868758
0.24830667
0.24828361
0.24819847
0.24810596
0.24806967
0.24811634
0.24835002
0.24893658
0.25006019
0.25190412
0.25478705
0.25935509
0.26650662
0.27778585
0.29615412
0.32631981
0.38092081
0.47134299
0.26257195
0.26088599
0.25989735
0.2592391
0.25845894
0.25765936
0.25690493
0.25618687
0.25550157
0.25485167
0.25423663
0.25365262
0.25309889
0.25256781
0.25207647
0.25157362
0.25117078
0.25032675
0.24926168
0.2486952
0.24823449
0.24831862
0.24820333
0.24810633
0.24806606
0.24810199
0.24831569
0.24887009
0.24994654
0.25172283
0.25449928
0.25888069
0.26574051
0.27651089
0.29401537
0.32240203
0.37378544
0.45558991
0.26254435
0.2609211
0.25989716
0.25924579
0.25847077
0.25767098
0.25691722
0.25620044
0.25551622
0.25486723
0.25425306
0.25366986
0.25311675
0.25258629
0.2520956
0.25159602
0.25121206
0.25037108
0.2493233
0.24871854
0.2484139
0.24834429
0.24821251
0.24811041
0.24806385
0.2480859
0.24827476
0.24878991
0.24980974
0.25150353
0.25415074
0.25831402
0.26482707
0.27499691
0.29146896
0.3177836
0.36545246
0.43797378
0.26251901
0.26095542
0.25989888
0.25925245
0.25848322
0.25768317
0.25692992
0.25621447
0.25553139
0.25488338
0.25427015
0.25368784
0.2531354
0.2526056
0.25211537
0.25161953
0.25125613
0.25043741
0.24941233
0.24875478
0.24844259
0.2483448
0.24821455
0.24811232
0.24806013
0.2480675
0.2482298
0.24870354
0.24966454
0.2512723
0.25378543
0.25772442
0.26387985
0.27343503
0.28886226
0.31311651
0.35705173
0.42103627
0.26249355
0.2609899
0.25990262
0.25925896
0.25849619
0.25769582
0.25694287
0.25622877
0.25554689
0.25489994
0.25428772
0.2537064
0.25315467
0.25262559
0.25213536
0.25164381
0.25131095
0.25054778
0.24951625
0.24878666
0.24844607
0.24834026
0.24821579
0.24811409
0.24805727
0.24804984
0.24818404
0.24861394
0.24951381
0.25103209
0.25340576
0.25711482
0.26290423
0.27183562
0.28620901
0.30842725
0.34862965
0.40484007
0.26246795
0.26102487
0.25990849
0.25926534
0.25850952
0.25770883
0.25695589
0.25624314
0.25556254
0.2549167
0.2543056
0.25372536
0.25317439
0.25264609
0.25215533
0.2516657
0.25139484
0.25077037
0.24960776
0.24876722
0.24844334
0.24835354
0.24822493
0.24811646
0.24805227
0.24802852
0.24813295
0.24851685
0.24935396
0.25078017
0.25300995
0.25648463
0.26190131
0.27020297
0.28351665
0.30374467
0.34023263
0.38941287
0.26244187
0.26106033
0.25991666
0.25927165
0.25852312
0.25772212
0.25696886
0.25625742
0.25557817
0.25493354
0.25432364
0.25374462
0.25319446
0.2526671
0.25217442
0.25168894
0.25142627
0.25111972
0.24986284
0.24874848
0.24839662
0.24834742
0.24823206
0.24812394
0.24805283
0.24801056
0.24808204
0.24841625
0.2491881
0.25051914
0.25259989
0.25583495
0.26087173
0.26853859
0.28078694
0.2990814
0.33188319
0.37471994
0.2624152
0.26109616
0.25992733
0.25927796
0.25853677
0.25773549
0.25698155
0.25627133
0.25559352
0.25495017
0.25434157
0.2537639
0.25321463
0.25268844
0.25219216
0.2517126
0.25136447
0.25117319
0.25035567
0.2489353
0.24838783
0.24831783
0.24821711
0.24811989
0.24804761
0.2479882
0.2480255
0.24830717
0.24901228
0.25024628
0.25217395
0.25516582
0.25981804
0.26685027
0.27803337
0.29446932
0.32365175
0.36078768
0.26238913
0.2611323
0.25994057
0.2592843
0.25855019
0.25774868
0.25699361
0.25628449
0.25560817
0.25496618
0.25435901
0.25378283
0.25323456
0.2527098
0.25220906
0.25173684
0.25126023
0.25095848
0.25044986
0.24920956
0.2485129
0.2483466
0.24822445
0.24812532
0.24804736
0.24796803
0.24796799
0.24819296
0.24882975
0.24996491
0.25173518
0.25448059
0.25874484
0.26514656
0.27526962
0.28993487
0.31560616
0.34767277
0.26236473
0.26116921
0.25995665
0.2592908
0.25856314
0.25776137
0.25700471
0.25629649
0.25562172
0.25498119
0.25437556
0.25380104
0.25325393
0.25273076
0.25222635
0.25175957
0.25119408
0.25082138
0.25049431
0.24948316
0.2486413
0.24835466
0.24822845
0.24813352
0.24804981
0.24794792
0.24790619
0.24806883
0.24863648
0.2496724
0.25128167
0.25377799
0.25765111
0.26342736
0.27249634
0.28547794
0.30775927
0.33537503
0.26233981
0.26120654
0.25997559
0.25929753
0.25857529
0.25777317
0.25701441
0.25630686
0.25563368
0.25499472
0.25439078
0.25381809
0.2532724
0.25275076
0.25224523
0.25177601
0.25122094
0.25079482
0.2506742
0.24992979
0.24875725
0.24828107
0.24819121
0.24813035
0.24805086
0.24792849
0.24784246
0.24793514
0.24843173
0.2493671
0.25081102
0.25305669
0.25653749
0.26169604
0.26972028
0.28110443
0.30012704
0.3238267
0.26231694
0.26124572
0.25999786
0.25930464
0.25858635
0.25778359
0.25702219
0.25631501
0.25564347
0.2550062
0.25440411
0.25383345
0.2532895
0.25276933
0.25226497
0.25178771
0.2512773
0.25075728
0.25050746
0.2503604
0.24922767
0.24831076
0.24815729
0.24813442
0.24805875
0.24790985
0.24777731
0.24779471
0.24822341
0.24905946
0.25033268
0.25232558
0.25541432
0.2599682
0.26696741
0.27684655
0.29278612
0.31298524
0.26229559
0.26128663
0.26002329
0.2593121
0.25859588
0.257792
0.25702735
0.25632021
0.25565035
0.2550149
0.25441487
0.25384646
0.25330458
0.25278606
0.25228378
0.2518014
0.25131558
0.25075138
0.25042942
0.2504862
0.24968398
0.24850392
0.24809889
0.24812579
0.24808372
0.24789611
0.24769916
0.2476251
0.24799043
0.24873445
0.24983908
0.25158333
0.25428245
0.25824664
0.26424994
0.27271843
0.28580234
0.30288074
0.26227995
0.26133137
0.26005244
0.25932007
0.25860352
0.25779765
0.25702911
0.25632169
0.25565353
0.25502009
0.25442236
0.25385649
0.25331704
0.25280052
0.25230053
0.25181786
0.25133573
0.25083162
0.25037809
0.25019819
0.25009416
0.2491151
0.24809262
0.24804725
0.24810657
0.24792407
0.2476537
0.2474628
0.24776369
0.24840384
0.24932938
0.25083406
0.25315356
0.25654436
0.26158056
0.26871652
0.27918098
0.29350609
0.26227185
0.26138142
0.26008552
0.25932852
0.2586088
0.25779969
0.25702655
0.25631854
0.25565214
0.25502093
0.25442581
0.25386281
0.25332617
0.25281206
0.2523148
0.25183326
0.25135581
0.25087652
0.25037198
0.25006936
0.25018183
0.24977913
0.2484349
0.24799975
0.24801592
0.24788824
0.24757008
0.24723574
0.24753003
0.24808743
0.24880404
0.25005575
0.25200234
0.25484849
0.25896237
0.26483908
0.27293835
0.28480429
0.2622748
0.26143935
0.26012307
0.25933745
0.25861118
0.25779699
0.25701848
0.25630967
0.25564514
0.25501644
0.25442433
0.25386462
0.25333124
0.25282
0.25232588
0.25184641
0.25137515
0.2509039
0.25045978
0.25004614
0.24988627
0.24990267
0.24904459
0.24843169
0.24814029
0.24787377
0.2475755
0.24695884
0.24719595
0.24775958
0.24832235
0.24932635
0.25087351
0.25318309
0.25642047
0.2611023
0.26710823
0.27671483
0.26229634
0.26150836
0.2601654
0.2593467
0.2586099
0.25778817
0.25700356
0.25629393
0.25563146
0.25500568
0.25441708
0.25386117
0.25333153
0.2528237
0.25233306
0.25185665
0.25138998
0.25092925
0.25048649
0.25007058
0.24974197
0.24951698
0.24944791
0.24906863
0.24846668
0.24789908
0.2476854
0.24709328
0.24690811
0.2472602
0.24769222
0.24858878
0.24978614
0.25157466
0.25397399
0.25751956
0.26174714
0.26917851
0.26234889
0.2615922
0.26021254
0.25935609
0.25860392
0.25777131
0.25698001
0.2562699
0.25560984
0.25498752
0.25440312
0.25385166
0.25332636
0.2528225
0.25233578
0.25186292
0.25140074
0.25094694
0.25050789
0.25009879
0.24968946
0.24933719
0.24940677
0.24900363
0.24838774
0.24787295
0.2477466
0.24766557
0.24730396
0.24715199
0.24701701
0.24771667
0.24865819
0.25004067
0.25161751
0.25404953
0.25685989
0.26246863
0.26244645
0.26169209
0.26026182
0.25936507
0.25859264
0.25774521
0.25694723
0.25623748
0.25558024
0.25496197
0.25438248
0.25383606
0.25331561
0.25281622
0.2523337
0.25186468
0.25140653
0.25095768
0.25052213
0.25010624
0.24971301
0.24933689
0.24903854
0.24859755
0.24815998
0.24782465
0.24754686
0.24786874
0.24764797
0.24731643
0.24699474
0.24704217
0.24748433
0.24860536
0.24953512
0.25079293
0.25244142
0.25653371
0.26258984
0.26180564
0.26030776
0.25937137
0.2585755
0.25771018
0.25690674
0.25619874
0.25554483
0.25493115
0.25435708
0.25381604
0.25330066
0.25280594
0.25232767
0.25186241
0.25140778
0.25096255
0.25052894
0.25011118
0.24971167
0.24931946
0.24898197
0.24856468
0.24812558
0.24781429
0.24740072
0.24739325
0.24724385
0.24716931
0.24731019
0.24697388
0.24669235
0.24714041
0.24754369
0.24832867
0.24896386
0.25175799
0.26276924
0.26193041
0.26034753
0.25937466
0.25855362
0.2576683
0.25686122
0.25615637
0.25550619
0.25489752
0.25432918
0.25379362
0.25328334
0.25279327
0.25231913
0.25185742
0.25140588
0.2509633
0.25053102
0.25011111
0.24970622
0.24930798
0.24893871
0.2485266
0.24809056
0.24774365
0.2473706
0.24706892
0.24693595
0.24669124
0.24675811
0.24661372
0.24619605
0.24606225
0.24600835
0.24657193
0.24628943
0.24805043
0.26298504
0.26206055
0.26037526
0.25937248
0.25852544
0.25761941
0.25681152
0.25611139
0.2554655
0.25486232
0.25429997
0.25376996
0.25326478
0.25277934
0.2523092
0.25185084
0.25140203
0.25096158
0.25053013
0.25010866
0.24969905
0.24929417
0.24890695
0.24849587
0.24806371
0.24768651
0.24729477
0.24697234
0.24666937
0.24621484
0.24602655
0.24583068
0.2457049
0.24530991
0.24510674
0.24522777
0.24385749
0.24465769
0.26325775
0.26219576
0.26039244
0.25936827
0.2584924
0.25756494
0.2567592
0.25606506
0.25542391
0.25482665
0.25427045
0.25374597
0.25324587
0.25276497
0.2522987
0.25184351
0.25139717
0.25095847
0.25052762
0.25010487
0.24969136
0.24928141
0.24888141
0.24846636
0.248034
0.24763445
0.24722995
0.24685698
0.24650105
0.24602631
0.24563797
0.2452729
0.24503062
0.24447945
0.24400616
0.24394616
0.24178415
0.24177414
0.26359432
0.26231543
0.26038854
0.25935908
0.25845266
0.25750502
0.25670514
0.25601819
0.25538226
0.25479134
0.25424134
0.25372234
0.25322723
0.25275078
0.25228824
0.25183602
0.25139194
0.25095475
0.25052435
0.25010057
0.2496839
0.24926968
0.24886068
0.24844114
0.24800674
0.24759093
0.24717014
0.24676079
0.24635741
0.24586316
0.24539548
0.2449197
0.24445231
0.24382088
0.2429039
0.2425823
0.24004312
0.239658
0.26403833
0.26243173
0.26037117
0.2593494
0.25840772
0.25744141
0.25665078
0.25597173
0.25534141
0.25475708
0.25421323
0.25369957
0.25320935
0.25273721
0.25227823
0.25182881
0.25138678
0.25095091
0.25052089
0.25009627
0.24967705
0.2492593
0.24884367
0.24841948
0.24798184
0.24755277
0.24711713
0.24667927
0.24623583
0.24571756
0.24518856
0.24462569
0.24401024
0.24326446
0.24213162
0.24146571
0.23855557
0.23807409
0.26452098
0.26251624
0.26033349
0.25933674
0.25835612
0.25737469
0.25659682
0.25592618
0.25530187
0.25472434
0.25418648
0.25367798
0.25319251
0.25272452
0.25226893
0.25182213
0.25138198
0.25094727
0.25051758
0.25009228
0.24967099
0.24925031
0.2488296
0.24840111
0.24795986
0.24752008
0.24707096
0.24661063
0.24613435
0.24558984
0.24501006
0.24437945
0.24365108
0.24279965
0.24150683
0.24056505
0.23749334
0.2368642
0.26505176
0.2625713
0.26028193
0.25932355
0.25829854
0.25730631
0.25654408
0.25588203
0.2552641
0.25469341
0.25416129
0.25365777
0.25317687
0.25271287
0.2522605
0.25181612
0.25137767
0.25094399
0.25051457
0.25008871
0.24966574
0.24924263
0.24881794
0.24838561
0.24794072
0.2474921
0.24703121
0.24655255
0.24604948
0.24548076
0.24485851
0.24417063
0.24335192
0.24240902
0.24098352
0.23983152
0.23663961
0.2358267
0.26562995
0.26257982
0.26021445
0.25930825
0.25823426
0.25723707
0.2564929
0.25583953
0.25522834
0.25466444
0.25413778
0.25363901
0.25316251
0.25270231
0.25225296
0.25181082
0.25137389
0.2509411
0.25051191
0.25008556
0.24966121
0.24923607
0.24880819
0.24837252
0.2479242
0.24746828
0.24699726
0.24650354
0.24597856
0.24538827
0.24473056
0.24399499
0.24310296
0.24208259
0.24054851
0.23923532
0.23592768
0.23495127
0.26627064
0.2625319
0.26013511
0.25929153
0.25816391
0.25716818
0.25644369
0.25579892
0.25519479
0.25463751
0.25411599
0.25362173
0.25314943
0.25269283
0.25224629
0.25180618
0.25137058
0.25093852
0.25050949
0.25008271
0.24965721
0.24923036
0.24879991
0.24836137
0.24790993
0.24744794
0.24696832
0.24646218
0.24591925
0.24531026
0.24462306
0.24384798
0.24289633
0.24181133
0.24018822
0.23875185
0.23533819
0.23424123
0.26698042
0.26241455
0.26004729
0.25927275
0.25808808
0.25710077
0.25639675
0.25576047
0.25516364
0.25461269
0.25409594
0.25360594
0.25313761
0.25268438
0.25224043
0.2518021
0.2513676
0.2509361
0.25050714
0.25007995
0.24965348
0.24922522
0.24879267
0.24835169
0.2478975
0.24743046
0.24694362
0.24642725
0.24586962
0.24524471
0.24453312
0.24372558
0.24272547
0.24158753
0.239891
0.23836153
0.23485361
0.23367038
0.26776516
0.26221824
0.25995648
0.25925147
0.25800798
0.25703595
0.25635233
0.25572441
0.25513502
0.25459001
0.25407763
0.25359161
0.25312698
0.25267685
0.25223518
0.25179834
0.2513647
0.25093358
0.2505046
0.25007703
0.24964976
0.24922033
0.24878608
0.24834307
0.24788649
0.24741528
0.24692242
0.24639766
0.24582805
0.24518982
0.2444582
0.24362426
0.2425849
0.24140432
0.23964726
0.23804844
0.23445753
0.23321742
0.26862462
0.26193407
0.25986817
0.25922651
0.25792503
0.25697461
0.25631056
0.25569093
0.25510899
0.25456947
0.25406106
0.2535787
0.25311745
0.25267006
0.2522303
0.25179462
0.25136156
0.25093065
0.25050161
0.25007375
0.24964585
0.24921551
0.24877991
0.24833523
0.24787663
0.247402
0.24690419
0.24637261
0.24579332
0.24514412
0.24439623
0.24354107
0.2424701
0.24125585
0.2394491
0.23779996
0.23413608
0.23286566
0.26955742
0.26155563
0.25978842
0.25919621
0.25784072
0.25691724
0.25627138
0.25566008
0.25508554
0.25455102
0.25404617
0.25356708
0.25310877
0.25266365
0.25222535
0.25179045
0.25135776
0.25092698
0.25049795
0.25006993
0.24964163
0.24921062
0.248774
0.24832797
0.24786769
0.24739028
0.24688847
0.24635142
0.24576442
0.24510637
0.24434545
0.24347352
0.2423774
0.24113722
0.23929006
0.237606
0.23387788
0.23260204
0.27056126
0.26107713
0.25972355
0.25915902
0.25775708
0.25686452
0.25623498
0.2556321
0.25506479
0.25453476
0.25403298
0.25355662
0.25310061
0.25265714
0.25221982
0.25178543
0.25135306
0.25092255
0.25049374
0.25006582
0.24963738
0.24920593
0.24876852
0.24832141
0.24785976
0.24738014
0.24687516
0.2463338
0.24574078
0.24507581
0.24430472
0.24341993
0.24230416
0.24104462
0.23916485
0.23745833
0.23367298
0.23241499
0.27163763
0.2604944
0.25967904
0.25911279
0.25767513
0.25681627
0.2562012
0.25560712
0.25504689
0.25452072
0.25402125
0.25354672
0.25309213
0.25264964
0.25221298
0.25177915
0.25134739
0.25091754
0.25048929
0.25006171
0.24963328
0.24920153
0.24876349
0.2483155
0.24785276
0.24737141
0.24686399
0.24631938
0.24572183
0.2450517
0.24427298
0.24337869
0.24224782
0.24097449
0.23906828
0.23734971
0.23351134
0.23229572
0.27262085
0.25990879
0.25966195
0.2590671
0.2576082
0.25677877
0.25617445
0.25558799
0.25503344
0.25450977
0.25401129
0.25353735
0.2530833
0.25264148
0.25220571
0.25177298
0.25134238
0.25091354
0.25048599
0.25005873
0.24963026
0.2491982
0.24875965
0.24831102
0.24784752
0.24736506
0.24685608
0.24630941
0.24570902
0.24503567
0.24425203
0.24335186
0.24221093
0.24092989
0.23900447
0.23728439
0.23339923
0.23224413
0.27341283
0.25941137
0.25965445
0.25902696
0.25755837
0.25675097
0.25615489
0.25557478
0.2550243
0.25450186
0.25400337
0.25352929
0.25307552
0.25263453
0.25220003
0.2517687
0.25133933
0.25091135
0.25048423
0.25005704
0.24962839
0.24919601
0.24875706
0.248308
0.24784403
0.2473609
0.24685097
0.24630306
0.24570092
0.24502558
0.24423889
0.24333509
0.24218797
0.2409023
0.23896511
0.23724474
0.23333034
0.23221853
0.27415459
0.25892885
0.25964999
0.25898756
0.25751478
0.25672623
0.25613796
0.25556395
0.25501683
0.25449496
0.25399597
0.25352159
0.25306824
0.25262844
0.25219553
0.25176573
0.25133751
0.25091016
0.25048322
0.25005591
0.24962697
0.24919425
0.24875496
0.24830558
0.24784129
0.24735769
0.2468471
0.24629829
0.24569489
0.24501809
0.24422919
0.24332279
0.24217124
0.24088234
0.2389368
0.23721668
0.23328108
0.23220589
0.27484149
0.25846736
0.25964655
0.25894921
0.25747618
0.25670414
0.25612368
0.25555556
0.2550112
0.25448938
0.25398958
0.25351484
0.2530621
0.25262369
0.25219241
0.25176398
0.2513366
0.25090955
0.25048253
0.25005495
0.24962568
0.24919266
0.24875311
0.24830352
0.24783902
0.24735512
0.24684408
0.24629464
0.24569035
0.24501254
0.2442221
0.2433139
0.24215927
0.24086827
0.23891692
0.23719762
0.23324648
0.23220373
0.27547582
0.25803317
0.25964228
0.25891196
0.25744239
0.25668552
0.25611297
0.25555024
0.25500783
0.25448545
0.25398455
0.25350941
0.25305733
0.25262028
0.25219042
0.25176301
0.2513361
0.25090907
0.25048181
0.2500539
0.24962434
0.2491911
0.24875139
0.24830169
0.2478371
0.24735302
0.2468417
0.24629185
0.24568696
0.2450085
0.24421704
0.24330767
0.242151
0.24085874
0.23890356
0.23718539
0.23322319
0.23220921
0.27605046
0.25762968
0.25963527
0.25887704
0.25741522
0.25667245
0.25610708
0.25554839
0.25500665
0.25448294
0.2539806
0.25350499
0.25305349
0.2526176
0.25218885
0.2517621
0.25133536
0.25090819
0.25048065
0.25005247
0.24962271
0.24918936
0.2487496
0.24829989
0.24783529
0.24735114
0.24683967
0.24628958
0.24568434
0.2450055
0.24421344
0.24330338
0.24214549
0.2408526
0.23889514
0.23717822
0.23320862
0.23221988
0.27656314
0.2572591
0.25962569
0.25884952
0.25739872
0.25666683
0.25610584
0.25554888
0.25500643
0.2544809
0.25397707
0.253501
0.25305003
0.25261508
0.25218714
0.25176081
0.25133412
0.25090678
0.25047904
0.2500507
0.24962086
0.2491875
0.24874778
0.24829813
0.24783359
0.24734945
0.24683792
0.24628772
0.24568231
0.2450033
0.24421095
0.24330057
0.24214207
0.24084899
0.23889043
0.23717474
0.2332006
0.23223378
0.27700615
0.25692244
0.25962083
0.25883803
0.25739482
0.25666694
0.25610673
0.25554962
0.25500564
0.25447798
0.2539727
0.25349632
0.25304589
0.25261178
0.2521845
0.25175847
0.25133182
0.25090439
0.25047655
0.25004819
0.2496184
0.24918514
0.24874554
0.24829601
0.24783159
0.24734752
0.24683602
0.24628583
0.24568039
0.24500138
0.244209
0.24329859
0.24213996
0.24084704
0.2388883
0.23717377
0.23319743
0.23224921
0.27736776
0.25663192
0.25963865
0.25884613
0.25739845
0.25666722
0.25610476
0.25554674
0.25500203
0.25447329
0.25396689
0.25349018
0.25304015
0.25260672
0.25217999
0.25175426
0.25132767
0.25090022
0.25047237
0.25004404
0.24961433
0.2491812
0.24874174
0.24829235
0.24782806
0.2473441
0.24683268
0.24628256
0.24567719
0.2449983
0.24420603
0.24329577
0.24213732
0.24084479
0.23888645
0.23717304
0.23319631
0.23226381
0.27760398
0.25641978
0.25968613
0.25885893
0.25739619
0.25666028
0.25609678
0.25553791
0.2549928
0.2544638
0.253957
0.25348037
0.25303087
0.2525981
0.2521719
0.25174645
0.25131998
0.25089257
0.25046475
0.25003648
0.24960687
0.24917385
0.2487345
0.24828523
0.24782103
0.24733715
0.24682581
0.24627576
0.24567049
0.24499172
0.24419961
0.24328955
0.24213136
0.24083929
0.23888151
0.23716909
0.23319285
0.23227253
0.27771646
0.25629783
0.25972965
0.25885842
0.25738186
0.25664403
0.25608177
0.25552328
0.2549782
0.25444911
0.25394246
0.25346631
0.25301745
0.25258527
0.25215946
0.25173422
0.25130785
0.25088051
0.25045278
0.25002461
0.24959511
0.24916219
0.24872294
0.24827376
0.24780964
0.24732582
0.24681454
0.24626456
0.24565937
0.24498073
0.24418876
0.24327889
0.24212094
0.24082926
0.23887196
0.23716031
0.23318454
0.23227025
0.27782648
0.25618215
0.25973814
0.25884244
0.25735945
0.25662222
0.2560621
0.25550524
0.25496098
0.25443223
0.25392586
0.25345008
0.25300163
0.25256978
0.25214416
0.25171901
0.25129269
0.25086539
0.2504377
0.25000958
0.24958012
0.24914724
0.24870803
0.24825887
0.24779477
0.24731097
0.24679971
0.24624975
0.2456446
0.24496601
0.24417412
0.24326435
0.24210655
0.24081506
0.2388581
0.23714668
0.23317176
0.2322576
0.27800697
0.25603684
0.25972251
0.25881977
0.25733638
0.25660127
0.25604353
0.25548851
0.25494534
0.25441721
0.25391126
0.25343581
0.25298762
0.25255595
0.25213043
0.25170531
0.251279
0.2508517
0.250424
0.24999587
0.24956638
0.24913348
0.24869423
0.24824503
0.24778089
0.24729706
0.24678575
0.24623575
0.24563057
0.24495196
0.24416006
0.24325028
0.2420925
0.24080105
0.23884423
0.23713277
0.23315842
0.23224123
0.27825391
0.25591592
0.25970421
0.2588034
0.25732377
0.25659129
0.25603522
0.25548131
0.25493888
0.25441126
0.25390567
0.25343048
0.25298245
0.25255088
0.25212543
0.25170035
0.25127405
0.25084675
0.25041905
0.2499909
0.2495614
0.24912847
0.2486892
0.24823997
0.24777581
0.24729194
0.24678061
0.24623059
0.24562539
0.24494676
0.24415485
0.24324507
0.24208731
0.24079587
0.23883913
0.23712766
0.23315363
0.23223347
0.27850127
0.25585589
0.25969314
0.25879638
0.25731981
0.25658891
0.25603371
0.25548029
0.25493816
0.25441078
0.2539054
0.25343035
0.25298243
0.25255093
0.25212552
0.25170047
0.25127419
0.25084692
0.25041922
0.24999109
0.24956159
0.24912867
0.24868941
0.24824018
0.24777603
0.24729217
0.24678084
0.24623084
0.24562565
0.24494705
0.24415517
0.24324544
0.24208773
0.24079637
0.23883974
0.2371284
0.23315454
0.23223287
0.93532524
0.30622001
0.2078177
0.17956299
0.14100785
0.11489988
0.094427718
0.075922257
0.057544058
0.038732438
0.020832735
0.0036084196
-0.013368487
-0.030073136
-0.046342415
-0.062031354
-0.077009063
-0.091144647
-0.10430806
-0.11637082
-0.12720063
-0.13665345
-0.14455045
-0.15065857
-0.15463024
-0.15553205
0.93376079
0.31171256
0.20890646
0.17987787
0.14131193
0.11511801
0.09460074
0.076077226
0.057694981
0.038873598
0.020959387
0.0037239845
-0.013262102
-0.029976228
-0.046255565
-0.061954859
-0.07694298
-0.091088827
-0.10426214
-0.11633426
-0.12717267
-0.1366332
-0.14453682
-0.15065023
-0.15462566
-0.15552878
0.93245148
0.31888207
0.21118567
0.1804888
0.14171036
0.11537787
0.094793818
0.076242844
0.057848382
0.039009872
0.021079033
0.0038317334
-0.01316377
-0.029887119
-0.046175894
-0.06188469
-0.076882224
-0.091037254
-0.10421937
-0.11629976
-0.12714577
-0.13661309
-0.14452255
-0.15064065
-0.15461947
-0.1555241
0.92984732
0.32545795
0.21433371
0.18157446
0.14232825
0.11574918
0.095056079
0.076458555
0.058030895
0.039164356
0.021212695
0.003950079
-0.013057093
-0.029791195
-0.046090465
-0.061809498
-0.076816957
-0.090981526
-0.10417269
-0.11626152
-0.12711525
-0.13658947
-0.14450489
-0.15062787
-0.15461036
-0.15551721
0.92588476
0.33135877
0.21770642
0.18297185
0.14317523
0.11625914
0.095410389
0.076733695
0.058243562
0.039346298
0.021369006
0.0040862925
-0.012935778
-0.029682915
-0.045994386
-0.061724973
-0.076743399
-0.090918346
-0.10411925
-0.11621709
-0.12707903
-0.13656058
-0.14448236
-0.15061062
-0.15459723
-0.15550725
0.91944548
0.33804349
0.22193163
0.18491092
0.14446861
0.11708893
0.095996184
0.077156922
0.0585618
0.039626884
0.021606253
0.0042899481
-0.012756561
-0.029524143
-0.045853975
-0.061601427
-0.076635495
-0.090824986
-0.10403935
-0.11614955
-0.12702268
-0.13651419
-0.14444467
-0.15058028
-0.15457289
-0.15548851
0.90989189
0.34540988
0.22716124
0.18746138
0.14629842
0.11835997
0.096923746
0.077817954
0.059077213
0.040077254
0.021982429
0.00460967
-0.012477942
-0.029278891
-0.045637629
-0.061410833
-0.076468203
-0.090678936
-0.10391267
-0.11604043
-0.12692936
-0.13643491
-0.14437772
-0.15052398
-0.15452581
-0.15545183
0.89757309
0.35235833
0.23273332
0.19026021
0.1483758
0.1198895
0.098085436
0.078696572
0.059792097
0.040690475
0.022496139
0.0050462592
-0.012098687
-0.0289458
-0.045343734
-0.061151128
-0.076238844
-0.090476776
-0.10373496
-0.11588466
-0.12679316
-0.13631607
-0.1442742
-0.15043398
-0.15444821
-0.15539055
0.88251454
0.35879644
0.23860987
0.19329252
0.15065485
0.12160928
0.099433753
0.079775517
0.060696137
0.04147438
0.023163824
0.0056192246
-0.011598375
-0.028504637
-0.044952757
-0.060803641
-0.075929606
-0.09020148
-0.10348988
-0.11566646
-0.12659879
-0.13614276
-0.14411959
-0.15029619
-0.15432672
-0.15529342
0.86437579
0.36460375
0.2447948