/*--------------------------------*- C++ -*----------------------------------*\
| =========                 |                                                 |
| \\      /  F ield         | OpenFOAM: The Open Source CFD Toolbox           |
|  \\    /   O peration     | Version:  2.4.0                                 |
|   \\  /    A nd           | Web:      www.OpenFOAM.org                      |
|    \\/     M anipulation  |                                                 |
\*---------------------------------------------------------------------------*/
FoamFile
{
    version     2.0;
    format      ascii;
    class       volScalarField;
    location    "2000";
    object      nut;
}
// * * * * * * * * * * * * * * * * * * * * * * * * * * * * * * * * * * * * * //

dimensions      [0 2 -1 0 0 0 0];

internalField   nonuniform List<scalar> 
15296
(
3.5812316e-05
0.0076280965
0.10835903
0.23095257
0.34109274
0.42435709
0.48589722
0.53376477
0.57286239
0.60567314
0.63354103
0.65728101
0.67736081
0.69402892
0.70746372
0.71786913
0.72546844
0.7306208
0.73374286
0.73525345
0.73558247
0.73514345
0.73429611
0.73331357
0.73238931
0.73169834
0.73153627
0.73249057
0.73528606
0.73984803
0.74560169
0.75243947
0.76287089
0.79075926
0.86490862
1.0749329
1.8439468
8.200957
9.6742077e-05
0.0073726157
0.10793181
0.23042762
0.34057187
0.4239059
0.48551287
0.53342976
0.57256466
0.60540644
0.6333025
0.65706996
0.67717828
0.69387699
0.70734408
0.71778261
0.72541466
0.73059796
0.73374777
0.73528213
0.73563034
0.73520588
0.73436864
0.73339236
0.7324709
0.73177886
0.7316099
0.73254952
0.73532654
0.73987509
0.74562778
0.75246625
0.76283433
0.79045419
0.86374524
1.0713315
1.8243385
6.9263491
0.00013781352
0.0068660621
0.1070732
0.22940451
0.33960853
0.4230994
0.48484158
0.53285367
0.57205894
0.60495886
0.63290734
0.65672533
0.67688524
0.69363846
0.7071622
0.71765813
0.7253464
0.73058265
0.73377997
0.73535507
0.73573654
0.73533786
0.73451916
0.73355513
0.73264024
0.73194877
0.73177248
0.73269524
0.73545164
0.73998836
0.74575159
0.75261943
0.76297384
0.79039033
0.86284553
1.0679341
1.8033155
6.994026
0.00014843843
0.0061053438
0.10578173
0.22786891
0.3381785
0.42191219
0.48386015
0.53201491
0.57132432
0.60430974
0.63233487
0.65622613
0.67645996
0.69329038
0.7068935
0.71746915
0.72523507
0.7305442
0.73380685
0.73543805
0.73586555
0.73550294
0.73471068
0.73376464
0.73286011
0.73217119
0.73198789
0.73289292
0.73562828
0.74015717
0.74594525
0.75287485
0.76327582
0.79057838
0.86228839
1.0650176
1.783603
7.2052826
0.00011982467
0.0050715488
0.10403267
0.22577216
0.33622471
0.42028946
0.48251961
0.53086937
0.57032001
0.60342077
0.63154884
0.65553788
0.67586946
0.69280105
0.70650739
0.7171859
0.72505176
0.73045432
0.73380067
0.73550381
0.73599056
0.73567471
0.73491714
0.73399517
0.73310511
0.73242098
0.73223115
0.73311769
0.73583174
0.74035803
0.74618778
0.75321547
0.76372987
0.79101433
0.86207722
1.0625981
1.7665249
7.2401179
5.5254595e-05
0.0034137347
0.10125432
0.22240052
0.33306585
0.41765469
0.48033839
0.52900186
0.56867821
0.60196227
0.63025335
0.65439643
0.67488096
0.69196968
0.70583531
0.71667178
0.72469051
0.73023559
0.73370956
0.73552245
0.73609986
0.73585589
0.73515208
0.73426793
0.73340123
0.73272596
0.73252843
0.73339033
0.73607639
0.74060625
0.74651043
0.75370732
0.76444445
0.79180851
0.86213579
1.0599537
1.7469516
7.3302442
4.0637246e-06
0.00097828695
0.097328997
0.21748927
0.32838233
0.41369424
0.47703166
0.52615128
0.56615269
0.59969836
0.62822095
0.65258149
0.67327991
0.69058606
0.70467008
0.71572146
0.72394704
0.72968388
0.73332924
0.73528945
0.73598881
0.73584184
0.73521117
0.7343792
0.73354564
0.73288413
0.73267785
0.73350788
0.73615716
0.74070095
0.74672188
0.75417167
0.76524733
0.79275737
0.86215384
1.0565129
1.7231602
7.7435273
2.35249e-05
0.00066546844
0.092552531
0.21131804
0.32237121
0.40852841
0.47267424
0.52236907
0.56277848
0.59664945
0.62545844
0.65008676
0.67104675
0.68861661
0.70296358
0.71427205
0.72274396
0.72870793
0.73255595
0.73469032
0.73553414
0.73550247
0.73495944
0.73419092
0.73339882
0.73275597
0.73254138
0.73333489
0.73593991
0.74050919
0.74668569
0.75446319
0.76598555
0.79371243
0.86206925
1.0525129
1.6960537
7.9371286
6.3936424e-05
0.00070833529
0.086999581
0.20374221
0.31480565
0.40190702
0.46702612
0.51743338
0.55834897
0.5926198
0.6217788
0.6467332
0.6680102
0.68589795
0.70056041
0.71217598
0.72094127
0.7271745
0.73126257
0.73360321
0.73461854
0.7347242
0.73428645
0.73359528
0.73285516
0.73223763
0.73201604
0.73276789
0.73531939
0.73992474
0.74630109
0.75449581
0.76660168
0.79464434
0.86186202
1.0479304
1.6646924
7.48253
2.3936223e-05
0.00090260946
0.080746746
0.19465456
0.3054674
0.39356172
0.45981769
0.51109118
0.55262555
0.58738142
0.61696198
0.64230787
0.66396461
0.68223224
0.69727118
0.70925267
0.71836728
0.72492021
0.72929338
0.73187913
0.73309886
0.73336873
0.73305783
0.73246117
0.73178631
0.73120283
0.73097652
0.73168071
0.73416741
0.7388147
0.74543994
0.75415887
0.76702216
0.7955152
0.86149265
1.042696
1.628606
6.9085911
2.2791946e-05
0.0011579912
0.073888389
0.18400508
0.29416178
0.38322254
0.45075705
0.50306037
0.54534424
0.58068211
0.61076269
0.6365722
0.6586798
0.67739645
0.69288068
0.70529541
0.7148242
0.7217557
0.72646692
0.72934359
0.73080657
0.73127234
0.73111379
0.73063197
0.73003829
0.72949985
0.72927242
0.72992058
0.7323196
0.73701572
0.74393813
0.75329926
0.767126
0.79623282
0.86085103
1.0366654
1.5876655
6.2121869
3.7405943e-05
0.001397103
0.066536617
0.17183947
0.28076241
0.37065699
0.43956784
0.49306074
0.53623281
0.57225783
0.60292427
0.62927623
0.65191411
0.67115449
0.68716081
0.70008671
0.71010595
0.71748779
0.72259866
0.72581995
0.72756849
0.72826174
0.72827907
0.72792976
0.72743059
0.72694558
0.72671746
0.72729642
0.72957827
0.73430746
0.74157455
0.75175701
0.76677976
0.79668209
0.8598407
1.0298159
1.5427216
5.432944
0.00015966082
0.0015858005
0.058791485
0.15828229
0.26520439
0.35565835
0.42597251
0.48079651
0.52500118
0.5618275
0.59316941
0.62014045
0.64338027
0.66322233
0.67983437
0.69335863
0.70395364
0.71186874
0.7174486
0.72107397
0.72315362
0.724108
0.72432608
0.72412813
0.72373827
0.7233171
0.72309077
0.72359141
0.72573528
0.73043173
0.73802405
0.74909983
0.76547841
0.79637535
0.85834848
1.0221302
1.4948683
4.6452777
0.00024737015
0.0017363778
0.050713207
0.14351941
0.24748633
0.33804436
0.40968163
0.46593656
0.51131347
0.54906125
0.58117318
0.60884219
0.63275707
0.65327546
0.67057194
0.68477705
0.69603157
0.70456233
0.71069038
0.71478825
0.71726039
0.71852899
0.71899198
0.7189819
0.71873213
0.71840071
0.71819448
0.71861928
0.72060104
0.72519186
0.73298705
0.74478488
0.76247664
0.79450864
0.85618451
1.0134752
1.444785
3.9126487
0.00034127278
0.0018494331
0.042320111
0.12779554
0.22772161
0.31772649
0.39046224
0.44817543
0.4948425
0.53363165
0.56661112
0.59505737
0.61971848
0.64098568
0.65904541
0.67401797
0.68602429
0.69526449
0.70203278
0.70668794
0.70962768
0.71127464
0.71203554
0.71225673
0.71218342
0.71197295
0.71181101
0.71216837
0.71396628
0.71837757
0.7262552
0.73862043
0.7574455
0.79059962
0.85296292
1.0037032
1.3934994
3.2789932
0.00073635641
0.0021754785
0.031739429
0.10804965
0.20189276
0.29028347
0.36389409
0.42327257
0.47157351
0.51173697
0.54586734
0.57533421
0.60096569
0.62320527
0.64226222
0.65824902
0.67126214
0.68146495
0.68911639
0.69454915
0.69814913
0.7003366
0.70152765
0.70208639
0.70227564
0.70225554
0.70218622
0.70248674
0.70405185
0.70816733
0.71599129
0.72882927
0.74878807
0.78321145
0.84723379
0.99064397
1.3331952
2.6815799
0.0028588824
0.0021417558
0.020355612
0.087096117
0.17299929
0.25801777
0.33146476
0.39210431
0.44201477
0.48367953
0.51911303
0.54973664
0.57645825
0.59978766
0.61997157
0.63712456
0.6513203
0.66268047
0.6714182
0.67782902
0.68227562
0.68516917
0.68693128
0.68794462
0.68849495
0.68875243
0.6888537
0.68915291
0.69048388
0.69419608
0.7017467
0.71477027
0.73557967
0.77116343
0.83745084
0.97411827
1.2704459
2.2020705
0.0074148359
0.001951237
0.009301242
0.067757875
0.14527511
0.22575978
0.29789031
0.35898394
0.41006587
0.45303598
0.48968731
0.5214156
0.54917773
0.57354544
0.59481059
0.61310152
0.62847786
0.64102346
0.65090288
0.65836807
0.66374886
0.66743782
0.66985482
0.67139667
0.67237271
0.67296994
0.67331079
0.67368562
0.67484372
0.67813786
0.68525587
0.69816672
0.71945959
0.75597351
0.82457005
0.95611304
1.214401
1.8723426
0.0073242357
0.0012442969
0.00080678434
0.050329843
0.11897105
0.19416961
0.26398298
0.32464388
0.37629862
0.42023775
0.45792955
0.49065627
0.51937493
0.54470126
0.56697269
0.58634116
0.60286292
0.61659154
0.62764426
0.63622382
0.64261938
0.64719368
0.65035528
0.65250782
0.65398196
0.65498686
0.65564205
0.65618206
0.6572573
0.66017148
0.66675925
0.67931696
0.70078012
0.73802872
0.80880523
0.93660784
1.1643216
1.6416028
0.0073285983
0.00028337629
0.0030104825
0.035079084
0.094196395
0.16362255
0.23039811
0.28979965
0.34133342
0.38577144
0.42421691
0.45776242
0.48730615
0.51347636
0.53664655
0.55699713
0.57459141
0.58946287
0.60168674
0.61141492
0.61888817
0.62443005
0.62842661
0.63127711
0.63332824
0.63481368
0.63586133
0.63666306
0.63776643
0.64038317
0.64640871
0.65843341
0.67979013
0.71757303
0.79026896
0.91545749
1.1189953
1.4758082
0.0062821551
0.0030538796
0.003131969
0.021148034
0.071138202
0.134272
0.19754305
0.25505995
0.30579453
0.35017126
0.38897459
0.42307075
0.45324533
0.48009921
0.5040223
0.52522085
0.54377271
0.55970242
0.57305208
0.58392542
0.59251068
0.59908391
0.60399627
0.6076314
0.61034142
0.61238319
0.61390195
0.61506306
0.61631718
0.61875403
0.62424685
0.6356218
0.65662497
0.69470868
0.76892685
0.89238708
1.0770343
1.3526604
0.0057442284
0.007246232
0.0027591517
0.0079051452
0.050036614
0.10619757
0.16559821
0.22088191
0.27029359
0.31405297
0.3527481
0.3870441
0.41758653
0.44491201
0.46940052
0.4912735
0.51062536
0.52748139
0.54186163
0.55382876
0.5635193
0.57115631
0.57704532
0.58154132
0.58499056
0.5876652
0.58973281
0.59134862
0.59288123
0.59528384
0.60033806
0.61101767
0.63146074
0.66957046
0.74475386
0.86717128
1.0373088
1.2580287
0.0056087174
0.0069961902
0.0017853393
0.0039107418
0.031903083
0.079582431
0.13457713
0.18748076
0.23529732
0.27800936
0.31613952
0.35023748
0.38082577
0.40835879
0.43318264
0.45551814
0.47547216
0.49307661
0.50834045
0.52129574
0.53203299
0.54072164
0.54761465
0.55302611
0.55728249
0.56066104
0.5633509
0.56550904
0.56744296
0.56997109
0.57473405
0.58474829
0.60448325
0.64231755
0.71775025
0.83962304
0.99883406
1.1823735
0.0057299396
0.0067021526
0.011290208
0.0038521511
0.016497726
0.054935998
0.1045565
0.15484597
0.20102272
0.2424811
0.27970361
0.31322826
0.34351645
0.37095499
0.39584672
0.41839812
0.43872071
0.4568543
0.47280551
0.48658733
0.49825409
0.50792637
0.5158027
0.52214781
0.52725495
0.53139325
0.53476548
0.53753893
0.539981
0.54279148
0.5474413
0.55688836
0.5758358
0.61308719
0.68791278
0.8095297
0.96067963
1.1191436
0.0059033789
0.0069825445
0.0092154875
0.0021680042
0.0011667416
0.033114821
0.075892351
0.12289242
0.16743945
0.20767083
0.24384638
0.27653811
0.306223
0.33326672
0.35794356
0.38044347
0.40087682
0.41929002
0.43569286
0.45008992
0.46251129
0.47303813
0.4818186
0.48906504
0.49502767
0.49995365
0.50404758
0.50748769
0.51051907
0.51374548
0.5184669
0.5275038
0.54564825
0.58202893
0.65531044
0.77669462
0.9219952
1.0637996
0.0061510321
0.0075052561
0.0090849797
0.011187591
0.0050813067
0.016585782
0.049478071
0.091727542
0.13440543
0.17354841
0.20875839
0.24055174
0.26945795
0.29587584
0.32008709
0.34228031
0.36256792
0.38100343
0.39760361
0.41237315
0.42532994
0.43652795
0.44607426
0.45413212
0.46090472
0.4666063
0.47143038
0.47555965
0.47922821
0.48296874
0.4879267
0.49673677
0.514126
0.549393
0.62021988
0.74095362
0.88205787
1.0132044
0.0064375108
0.00806025
0.0097766324
0.010728754
0.023408165
0.0014858642
0.026733755
0.062142894
0.10190563
0.13993729
0.17438846
0.20541977
0.23355986
0.25926341
0.28285571
0.30455142
0.32447988
0.34270879
0.35926711
0.37416697
0.38742458
0.39907944
0.40920979
0.41793857
0.42542439
0.43184341
0.43736737
0.44217356
0.44648854
0.45079478
0.45611072
0.46486426
0.48160555
0.51556048
0.58318739
0.70198209
0.84022193
0.96507642
0.0067295142
0.0086761102
0.010565861
0.01218506
0.016129907
0.0053815942
0.010593254
0.035934604
0.070401267
0.10669643
0.14050544
0.17101796
0.19857685
0.22365312
0.24662349
0.26774983
0.28719806
0.30506375
0.32139747
0.33622699
0.3495761
0.36148097
0.37200336
0.38123712
0.38930382
0.39634266
0.40249823
0.40793322
0.41286457
0.41773672
0.42347061
0.43228702
0.44849565
0.48097056
0.54488115
0.65954513
0.79585966
0.91754218
0.0070116701
0.0092974175
0.011481813
0.013715699
0.015728841
0.025729116
0.002007392
0.016141105
0.041868708
0.07423937
0.10696534
0.13711662
0.16435376
0.18903026
0.2115367
0.23217717
0.25116294
0.26863008
0.28466259
0.29931376
0.31262391
0.32463478
0.33540137
0.34499846
0.35351943
0.3610718
0.36777343
0.37376749
0.37925764
0.38465423
0.39080351
0.39972873
0.41546749
0.44636296
0.50618361
0.61437176
0.74867662
0.86911991
0.0072970594
0.0099328165
0.012527753
0.015088045
0.017498799
0.021501065
0.02503566
0.0077392715
0.020678669
0.044802617
0.074258915
0.10363191
0.13068182
0.15520934
0.17750488
0.19787473
0.21656102
0.23374005
0.24953617
0.26403719
0.27730801
0.28940236
0.30037375
0.31028317
0.31920097
0.32720762
0.33439748
0.34089403
0.34688613
0.35274947
0.3592677
0.36827405
0.38352235
0.41271212
0.46823132
0.56814045
0.69860574
0.81853462
0.0076528353
0.010660893
0.013649496
0.016576334
0.019453497
0.022628504
0.026103373
0.025139884
0.013794467
0.0241627
0.045324904
0.071389087
0.09764902
0.12206343
0.14435181
0.16469881
0.18333293
0.20045075
0.21621153
0.23073982
0.24412912
0.2564473
0.26774583
0.27806964
0.28746344
0.29597901
0.30368804
0.31069586
0.31717798
0.32347523
0.3303114
0.33932877
0.35398551
0.3812547
0.43246263
0.52273079
0.64617759
0.76465584
0.0080095192
0.01143256
0.014815834
0.018151916
0.021396721
0.024665173
0.02794971
0.030982507
0.028871414
0.02064181
0.027412062
0.044552632
0.066839935
0.090107825
0.11220852
0.13262256
0.15139958
0.16870159
0.18469975
0.1995454
0.21335523
0.22620469
0.23813318
0.24915746
0.25928388
0.26852518
0.27692504
0.28457034
0.29162569
0.29839921
0.30555284
0.3145311
0.32847105
0.35357367
0.40019666
0.48124283
0.5934392
0.70687434
0.0082917787
0.012174055
0.015975441
0.019696849
0.023269626
0.026714929
0.030100065
0.033419646
0.036171495
0.034546803
0.028772181
0.032368553
0.045200177
0.063502438
0.083684567
0.10355823
0.12232348
0.13986303
0.1562797
0.17171564
0.18628603
0.20005059
0.21301308
0.22513845
0.23636908
0.24665588
0.25600833
0.26450229
0.27230269
0.27969711
0.2872889
0.29631932
0.30956995
0.33246213
0.37455383
0.4468516
0.54594839
0.64878094
0.0086003518
0.012908918
0.017067272
0.021080125
0.024868557
0.028439592
0.031912164
0.035381812
0.038717561
0.041419395
0.040551285
0.037091795
0.039411678
0.048954765
0.063766605
0.081039499
0.098781751
0.1161033
0.13278296
0.14884317
0.16433925
0.17926468
0.19352952
0.20702658
0.2196742
0.23140268
0.2421421
0.25189102
0.26075869
0.26896859
0.27704228
0.28606429
0.29846433
0.31890737
0.3555571
0.41707589
0.50147746
0.59201724
0.0087960805
0.013512797
0.017981671
0.022185829
0.026061841
0.029679223
0.033209826
0.036784444
0.040376626
0.043754737
0.046259416
0.046054241
0.044688472
0.046783816
0.05483781
0.0672673
0.082262181
0.098335014
0.1147168
0.13112271
0.14742398
0.16351799
0.17927089
0.19434536
0.20827745
0.22076166
0.23191179
0.24190874
0.2509186
0.2591649
0.26711438
0.27569862
0.28695081
0.30472273
0.33563792
0.38671659
0.45786313
0.5368819
0.0089861662
0.014040966
0.018713532
0.022970261
0.026811928
0.030413984
0.03398121
0.037608948
0.041258156
0.044768827
0.04795139
0.050249918
0.050890271
0.051893747
0.054588281
0.061667775
0.072813906
0.08656045
0.10185531
0.11817235
0.13513661
0.15211604
0.16831645
0.18347133
0.1972835
0.20951849
0.22031498
0.22991317
0.23853449
0.24641474
0.25396862
0.26196019
0.27204022
0.28729565
0.31310266
0.35527525
0.41494705
0.4834018
0.0091001479
0.014459767
0.019225582
0.023395829
0.027117895
0.030678587
0.034264156
0.037889536
0.041476683
0.044927378
0.048191618
0.051152375
0.053448288
0.055587204
0.057663785
0.062175715
0.069795884
0.080630164
0.094191162
0.10947487
0.12562422
0.14186799
0.15734266
0.17169675
0.18474626
0.19636083
0.20662442
0.21573691
0.22392424
0.23141269
0.23856403
0.24598591
0.25499598
0.26800576
0.28935056
0.32386978
0.3735352
0.43236114
0.0091838911
0.01477098
0.019485514
0.023455779
0.027032761
0.030562144
0.034149199
0.03771897
0.041183584
0.044519762
0.047733304
0.050799414
0.053597405
0.056294764
0.059025341
0.062896085
0.068741239
0.077291314
0.088640265
0.10204105
0.11657105
0.1313996
0.14572065
0.15904853
0.17117547
0.18202604
0.19167586
0.20028795
0.20806628
0.21520643
0.22201333
0.22895148
0.23705608
0.24816131
0.26572838
0.29374503
0.33471071
0.38480233
0.0091966796
0.014941565
0.01947495
0.023198341
0.026667581
0.030192625
0.033753777
0.037218797
0.040540756
0.043743508
0.046845271
0.049845835
0.052712281
0.055526661
0.058425542
0.061971451
0.066881344
0.073873115
0.08330258
0.094834249
0.10768075
0.12098437
0.13397492
0.14614421
0.15727605
0.16732127
0.17635247
0.18449626
0.19192058
0.19877623
0.20531064
0.21186139
0.21923367
0.22878508
0.24325498
0.26586435
0.29936511
0.34161612
0.0091759589
0.014968358
0.019219966
0.02272939
0.026163384
0.029691105
0.033171189
0.036485672
0.039647564
0.04269428
0.045646559
0.048512509
0.051289109
0.05402928
0.05685138
0.060099558
0.064331036
0.070200886
0.07815115
0.088052227
0.099277187
0.11104669
0.12265699
0.13363118
0.14376735
0.15302728
0.16147192
0.16918776
0.17630098
0.18291249
0.18921712
0.19544494
0.20222214
0.21052635
0.22251729
0.24073393
0.26795056
0.30328013
0.0091306189
0.014851415
0.018791764
0.022183518
0.025636598
0.029118555
0.032440022
0.035567967
0.038551612
0.041422999
0.044199314
0.046891898
0.049510784
0.052098254
0.054753585
0.05772245
0.061449443
0.066514623
0.073346924
0.081884244
0.091637209
0.1019596
0.11224073
0.12206155
0.13124905
0.13976678
0.14765501
0.15495852
0.16176364
0.16812446
0.17419292
0.18011243
0.18637585
0.19366705
0.20369346
0.21840727
0.24043704
0.26977753
0.0090969111
0.014605265
0.0182904
0.021670968
0.025124328
0.028456521
0.031558009
0.034483417
0.037277679
0.039958403
0.042537765
0.045030483
0.047456144
0.049856349
0.052319609
0.055045556
0.05841101
0.062927215
0.068951387
0.0763999
0.084896195
0.093940666
0.10301741
0.11177621
0.12008137
0.12789398
0.13523115
0.14210045
0.14855645
0.1546151
0.16039725
0.16597944
0.17175846
0.17819664
0.18665612
0.19860313
0.21641829
0.24067388
0.0090419958
0.014264003
0.017814153
0.021222713
0.02456427
0.027646658
0.030516404
0.033241409
0.035839273
0.038314875
0.040679804
0.042954558
0.04516805
0.047366896
0.049638192
0.052164261
0.055287463
0.059459634
0.064930329
0.071545954
0.079031481
0.087012381
0.095043354
0.10284799
0.11033377
0.11745982
0.12422491
0.13060947
0.13664737
0.14232721
0.14774941
0.15294108
0.15823075
0.16391672
0.1711002
0.18085887
0.19527873
0.21527828
0.0089610583
0.013885829
0.01740504
0.020759079
0.023841223
0.02665605
0.029318601
0.031849091
0.034241137
0.036497245
0.038635004
0.040682884
0.042678585
0.044675954
0.046767473
0.049136592
0.052113517
0.056095587
0.061201538
0.067195852
0.073908968
0.081032846
0.088163863
0.095110675
0.10182503
0.10826647
0.11442459
0.12026466
0.12581039
0.13103293
0.13602036
0.14076449
0.14554492
0.15054034
0.15665394
0.1646622
0.17634813
0.19281219
0.008834485
0.01351166
0.017001168
0.020120901
0.022892044
0.02549491
0.027975714
0.030308406
0.032481269
0.034506593
0.036412541
0.038235544
0.040020034
0.04182664
0.043757464
0.046009175
0.048912416
0.052807397
0.057677131
0.063246235
0.069383977
0.075766968
0.082088392
0.088247895
0.094222052
0.099972716
0.10548985
0.11073385
0.11572589
0.1204274
0.12491919
0.12916895
0.1334197
0.13776459
0.14295334
0.14953577
0.15900506
0.1725343
0.0086456693
0.013117963
0.016435493
0.01919873
0.021744398
0.024190436
0.026494392
0.02861486
0.030556047
0.032347431
0.034027617
0.035638209
0.03722702
0.038859887
0.040651334
0.042818621
0.04569671
0.049560698
0.054293255
0.059602605
0.065238185
0.070904127
0.076471634
0.081890455
0.087142229
0.092195781
0.09704837
0.10166213
0.10605978
0.1101984
0.1141541
0.11787918
0.12158724
0.12531222
0.12968029
0.13507638
0.14272622
0.15380757
0.0083506418
0.012591005
0.015541337
0.018033616
0.020454719
0.02276293
0.024871762
0.026762226
0.028467375
0.030032625
0.031502329
0.032918948
0.034330558
0.035807057
0.037477428
0.039583386
0.042460014
0.046307639
0.050942928
0.055981555
0.061087551
0.066103777
0.070978124
0.075683072
0.080222058
0.084577248
0.088755799
0.092724376
0.096508573
0.10006451
0.10346437
0.1066519
0.10981479
0.11294827
0.1165742
0.12096264
0.12709632
0.13611912
0.0078790361
0.011765966
0.014339518
0.016725909
0.019069335
0.021215973
0.02309975
0.024750054
0.026226143
0.027580816
0.028858184
0.030098253
0.031347446
0.032679543
0.034240139
0.036295601
0.03916923
0.042973007
0.047435352
0.052116184
0.056715871
0.061116843
0.065311851
0.069312598
0.073146795
0.076810347
0.08031928
0.083644957
0.086815398
0.08978783
0.092630236
0.095282847
0.097909044
0.10048087
0.10342852
0.10694567
0.11179668
0.11907181
0.0071772588
0.010583536
0.012992974
0.015366063
0.017607093
0.019540432
0.021174948
0.022587068
0.023847074
0.025005969
0.026104033
0.027177455
0.028270534
0.029461869
0.03091558
0.032917966
0.035761094
0.039454972
0.043649169
0.047901598
0.051945528
0.055704005
0.059211592
0.062512226
0.065653506
0.068641461
0.071497647
0.074196864
0.076768479
0.079171822
0.081470131
0.083603337
0.085711823
0.087754812
0.090081219
0.092834365
0.096586643
0.10236451
0.0063802223
0.0093774903
0.011796043
0.014157864
0.016233588
0.017929833
0.019333401
0.020539675
0.021615261
0.02260587
0.023547901
0.024474049
0.025426894
0.026490592
0.027845666
0.029784853
0.032549966
0.036058375
0.039915313
0.043701851
0.047195551
0.050359255
0.053258683
0.055957747
0.058513849
0.060936752
0.063249066
0.065427633
0.067501522
0.069432936
0.071279529
0.072983827
0.074665583
0.076280849
0.078111972
0.080277065
0.083196244
0.087842114
0.0057705525
0.0085134969
0.010936502
0.013226865
0.015124782
0.016624781
0.01785244
0.01890314
0.019837528
0.020697603
0.021517243
0.022326442
0.023166351
0.024125499
0.025394801
0.027261539
0.029916213
0.033210271
0.036732968
0.040096759
0.043120715
0.045800377
0.048222379
0.050460375
0.052574176
0.054572858
0.0564784
0.058268185
0.059971533
0.061551522
0.063063226
0.064448671
0.06581692
0.067117048
0.068593608
0.070336662
0.072677808
0.076531203
0.0053001287
0.0078237536
0.010192471
0.012339738
0.014033063
0.015342171
0.016405031
0.017309175
0.018109485
0.01884508
0.019547518
0.02024394
0.020973875
0.021829299
0.023006228
0.02477487
0.027270105
0.030293581
0.033438614
0.036358943
0.038917124
0.041138065
0.043122491
0.04494662
0.046667716
0.048291547
0.049838848
0.05128682
0.052665589
0.053937695
0.055157628
0.056264237
0.057361977
0.058388082
0.0595651
0.060946424
0.062808185
0.065993028
0.005000914
0.0073056389
0.0095359429
0.011476483
0.012952898
0.014078983
0.014985397
0.015749903
0.016422596
0.01703998
0.017631047
0.018219788
0.018843889
0.019597249
0.02067452
0.022318503
0.024609242
0.027316135
0.030053343
0.032523044
0.034631247
0.036427207
0.03801839
0.039477011
0.040854177
0.042150734
0.043386384
0.044537409
0.045635709
0.046641363
0.047611047
0.048476636
0.04934537
0.050135065
0.051064088
0.052134671
0.053603429
0.056219856
0.0048558382
0.0069150203
0.0089247881
0.010612786
0.011872729
0.012823766
0.013580789
0.01421279
0.01476546
0.015272319
0.015759287
0.016246939
0.016770852
0.017424641
0.018394452
0.019887923
0.021935848
0.024293073
0.026608012
0.028635433
0.03032213
0.031734907
0.032980617
0.034122226
0.035202693
0.036217348
0.0371856
0.03808209
0.038941605
0.039719712
0.040478309
0.041138213
0.041817049
0.042404741
0.043133273
0.043937022
0.045089044
0.047217554
0.0048042569
0.0065686173
0.0082999344
0.0097257076
0.010778556
0.011562335
0.012177865
0.012686233
0.013128345
0.013534048
0.013925676
0.014320275
0.014750973
0.015308272
0.016162815
0.017482708
0.019258731
0.021247753
0.023142548
0.024751441
0.026056517
0.027134011
0.028083576
0.02895551
0.029784184
0.03055969
0.031302023
0.031983611
0.032643032
0.03322968
0.033813264
0.034300233
0.034824907
0.035242232
0.035812722
0.036388454
0.037290501
0.038995645
0.0047535313
0.0061717516
0.0076190668
0.0088002335
0.0096561091
0.01028182
0.010766085
0.011161916
0.011504715
0.011819994
0.012126179
0.012436856
0.012782248
0.013246539
0.013978895
0.015107136
0.016593356
0.018210961
0.019703836
0.020931539
0.021903451
0.022696789
0.023398913
0.024046082
0.02466482
0.025240907
0.025795585
0.026298833
0.026793334
0.027221618
0.02766253
0.028006762
0.028408713
0.028685076
0.02913376
0.029517076
0.030226033
0.031560144
0.0045954622
0.0056708069
0.0068718603
0.0078224532
0.0084927475
0.0089725169
0.0093384116
0.0096347062
0.0098906702
0.010127071
0.010358351
0.010594882
0.010863404
0.011238588
0.011843887
0.012769345
0.013960331
0.015218524
0.016342093
0.017236342
0.017928371
0.018488791
0.018989557
0.019453423
0.019900468
0.020313533
0.020715221
0.021073402
0.021434264
0.021734237
0.02206061
0.022289905
0.022595533
0.022758718
0.023114591
0.023339623
0.023901672
0.024908845
0.0042343284
0.0050718565
0.0060477942
0.0067792827
0.0072784845
0.0076276282
0.0078901931
0.0081011184
0.0082832612
0.0084525449
0.0086196201
0.0087920009
0.0089922929
0.0092828995
0.0097594897
0.010479403
0.011382657
0.012307578
0.013106012
0.013720897
0.014187225
0.01456332
0.0149047
0.015222638
0.015532287
0.015815208
0.016094742
0.016337771
0.016592198
0.016790959
0.017026499
0.017166485
0.017396735
0.017473493
0.01775765
0.017858587
0.01830836
0.019028685
0.003660244
0.0043774804
0.0051331517
0.0056588008
0.0060050661
0.0062414061
0.0064168932
0.0065569581
0.0066781691
0.0067918155
0.0069051516
0.0070232438
0.0071639591
0.0073754955
0.0077259184
0.008246647
0.008882201
0.0095121178
0.010037536
0.010429299
0.010721579
0.010957312
0.011176328
0.011381393
0.011583932
0.011766045
0.011950407
0.012104912
0.012276112
0.012397999
0.01256206
0.012636457
0.012806802
0.012823314
0.013048823
0.013061064
0.013421113
0.013895144
0.0030454041
0.0036541089
0.0042088946
0.0045653305
0.0047931449
0.0049452064
0.0050570633
0.0051459559
0.0052232548
0.0052965092
0.0053703981
0.0054481667
0.0055430852
0.0056899527
0.0059340949
0.0062902773
0.0067134733
0.0071203129
0.0074493591
0.0076879055
0.0078639655
0.0080064234
0.0081428548
0.0082712271
0.0084002139
0.0085139228
0.0086327688
0.0087278223
0.0088410252
0.0089123918
0.0090255369
0.0090595652
0.0091853006
0.0091692133
0.0093473881
0.0093107506
0.0096005935
0.0098915035
0.0025100186
0.0030008828
0.0033869677
0.0036149219
0.0037570042
0.0038498826
0.0039178314
0.0039717033
0.0040189241
0.0040642598
0.0041105799
0.0041598241
0.0042211598
0.0043180311
0.0044787966
0.0047091847
0.0049768204
0.0052281528
0.0054270464
0.0055684812
0.005672468
0.0057570121
0.0058410295
0.0059205758
0.0060021064
0.0060725854
0.0061489696
0.0062071032
0.0062819321
0.0063231855
0.0064012978
0.0064142981
0.0065068056
0.0064792903
0.0066178054
0.0065639502
0.0067965886
0.0069672361
0.001852481
0.0021875805
0.0023925725
0.0024978537
0.002562621
0.0026039845
0.0026343689
0.0026585043
0.0026801276
0.0027014805
0.0027238647
0.0027480672
0.0027789646
0.002828678
0.0029104559
0.0030248199
0.0031544854
0.0032738661
0.0033670035
0.0034323946
0.0034806073
0.0035200803
0.0035621908
0.0036028125
0.0036457916
0.0036822929
0.0037238597
0.0037538125
0.0037961329
0.003816118
0.0038626602
0.0038649936
0.0039239596
0.0038996668
0.0039924417
0.0039431833
0.0041134796
0.0041946484
0.00099828605
0.0011451173
0.0011753568
0.0011791792
0.0011844507
0.0011881622
0.001191612
0.0011946411
0.001198016
0.0012020813
0.0012069824
0.0012126833
0.0012204655
0.0012333846
0.0012539779
0.0012814372
0.0013119625
0.0013404002
0.001363096
0.0013791153
0.0013910006
0.0014009084
0.0014142369
0.0014283551
0.0014441406
0.0014580375
0.0014744615
0.0014867179
0.0015041804
0.0015131597
0.0015329667
0.0015358619
0.0015615859
0.0015556852
0.001596213
0.0015749257
0.0016758022
0.0017180622
8.0298071e-05
8.242593e-05
7.4922167e-05
7.1279879e-05
6.9350502e-05
6.8173358e-05
6.7364944e-05
6.6824394e-05
6.6493894e-05
6.6333617e-05
6.6275407e-05
6.6265578e-05
6.6350778e-05
6.6676992e-05
6.73237e-05
6.8252726e-05
6.9343508e-05
7.0392804e-05
7.1193174e-05
7.1758253e-05
7.2275868e-05
7.3003953e-05
7.4252012e-05
7.5937223e-05
7.7860796e-05
8.0066212e-05
8.2321147e-05
8.4873809e-05
8.722163e-05
9.0109405e-05
9.2323819e-05
9.5870628e-05
9.771213e-05
0.00010318798
0.00010437319
0.00011111982
0.00012149066
0.00015150512
0.00397669
0.043280286
0.00054730385
0.00057466153
0.00025295508
0.00018452104
0.00012664256
0.00010747611
9.8314334e-05
9.3414287e-05
9.2539907e-05
9.2794775e-05
9.4586182e-05
9.6736194e-05
9.9444e-05
0.00010213353
0.00010492143
0.00010755798
0.00011021177
0.00011263989
0.00011513782
0.00011724744
0.00011969596
0.0001214757
0.00012425888
0.00012671059
0.010293508
0.04323171
0.0039769814
0.0022642055
0.0018185996
0.0015130593
0.0014340783
0.0013212185
0.0013042002
0.0012628869
0.0012642532
0.0012569604
0.0012657021
0.0012715163
0.0012841267
0.0012952027
0.00130924
0.001322652
0.001338832
0.0013543355
0.0013734066
0.001389913
0.0014130669
0.0014296215
0.0014611338
0.0014851075
0.020385537
0.043067614
0.0081865603
0.0050455044
0.0042770075
0.00356965
0.0034294093
0.0032040378
0.0031798937
0.0031032399
0.0031132083
0.0031022883
0.0031225016
0.0031347387
0.0031603535
0.0031825705
0.0032115988
0.0032399388
0.0032755323
0.0033105037
0.0033548092
0.0033938604
0.0034494497
0.0034901464
0.0035668695
0.0036270516
0.032845746
0.043580407
0.012922782
0.0087830227
0.007277288
0.0060321861
0.0056826918
0.0053129888
0.0052529104
0.0051408232
0.0051565189