/*--------------------------------*- C++ -*----------------------------------*\
| =========                 |                                                 |
| \\      /  F ield         | OpenFOAM: The Open Source CFD Toolbox           |
|  \\    /   O peration     | Version:  2.4.0                                 |
|   \\  /    A nd           | Web:      www.OpenFOAM.org                      |
|    \\/     M anipulation  |                                                 |
\*---------------------------------------------------------------------------*/
FoamFile
{
    version     2.0;
    format      ascii;
    class       volSymmTensorField;
    location    "2000";
    object      R;
}
// * * * * * * * * * * * * * * * * * * * * * * * * * * * * * * * * * * * * * //

dimensions      [0 2 -2 0 0 0 0];

internalField   nonuniform List<symmTensor> 
15296
(
(0.00022854542 -1.1797807e-06 -2.2150006e-09 0.00023403256 -1.9153386e-08 0.00023274611)
(1.1050404 -0.0040847758 -1.4984923e-05 1.11086 -6.1423495e-05 1.1056607)
(33.790207 -0.12126017 -0.0011921488 33.922355 -0.012580828 33.769993)
(84.786137 -0.25275483 0.037842846 85.030977 0.19569604 84.879647)
(120.48322 -0.23872126 0.089425804 120.36186 0.61638005 121.0497)
(136.19449 -0.16811778 0.10810017 135.69932 0.86504019 137.13192)
(140.72637 -0.11376576 0.11189098 139.99185 0.98282937 141.86252)
(141.1599 -0.088066131 0.11228222 140.3278 1.0244589 142.37998)
(140.49026 -0.076997811 0.11259371 139.62864 1.0347665 141.74268)
(139.53969 -0.070135661 0.11218008 138.66403 1.038169 140.80836)
(138.4455 -0.064457008 0.11128039 137.55901 1.0389086 139.72341)
(137.19477 -0.059361005 0.10991382 136.2992 1.0381048 138.47777)
(135.7538 -0.054977326 0.10851109 134.85366 1.0341073 137.03718)
(134.10642 -0.051342618 0.10735229 133.20773 1.0261782 135.38554)
(132.26941 -0.048503284 0.10666216 131.3791 1.0138782 133.53967)
(130.28832 -0.045530842 0.10506332 129.40574 1.0042929 131.55226)
(128.22738 -0.043067972 0.10372718 127.35701 0.99264134 129.48331)
(126.16421 -0.041314864 0.10304558 125.31115 0.97803097 127.4094)
(124.17404 -0.039327334 0.10147471 123.33472 0.9680295 125.41281)
(122.31978 -0.038012639 0.10060813 121.49749 0.95594149 123.55018)
(120.64872 -0.037123625 0.10016003 119.84412 0.94374361 121.87052)
(119.18885 -0.036585175 0.10006299 118.40171 0.93199042 120.40235)
(117.94829 -0.035909069 0.099506135 117.17446 0.92423535 119.15716)
(116.91451 -0.035540798 0.099266204 116.15367 0.91695098 118.11921)
(116.06242 -0.035218798 0.098948958 115.3127 0.91177674 117.2651)
(115.38471 -0.035164343 0.099253131 114.64754 0.90632017 116.58631)
(114.93343 -0.035163397 0.0998868 114.20863 0.90276641 116.13753)
(114.85456 -0.035582467 0.10100908 114.14158 0.90124155 116.06407)
(115.32503 -0.036637713 0.10009429 114.6114 0.90892346 116.54211)
(116.43762 -0.038184325 0.10079959 115.69244 0.93350716 117.66834)
(117.92257 -0.044479992 -0.10151479 117.21339 -0.88404358 119.08732)
(119.63095 -0.037485675 -0.09421381 118.78556 -0.96638321 120.84435)
(121.93528 -0.042657299 0.09689485 121.13664 0.91789709 123.09882)
(126.21615 0.01541272 0.11494542 125.40019 1.1323115 127.90732)
(131.14333 0.063673644 -0.19935635 131.23499 -1.1710713 133.66948)
(135.68886 0.7321251 -0.22790578 138.90538 -1.8889244 142.36227)
(127.89811 0.75990756 0.53637372 129.36841 1.2572805 132.82769)
(111.09897 9.1085494 22.115216 104.4288 -9.7695855 101.98799)
(0.00058424298 -1.2262336e-05 -3.550948e-08 0.00064581217 -5.1054491e-10 0.00062346741)
(1.0600871 -0.0086395006 -2.3859464e-05 1.0837264 -1.5450956e-05 1.0729019)
(33.413075 -0.26675476 -0.00088853948 33.970402 -0.0029134861 33.702687)
(84.012963 -0.5902716 0.048435773 85.561365 0.045803678 84.860829)
(119.61446 -0.68155187 0.10828124 121.92082 0.11632911 121.00691)
(135.43706 -0.60450996 0.12926966 137.93741 0.14246866 137.05378)
(140.10223 -0.51740993 0.13352107 142.54709 0.14896061 141.75756)
(140.60039 -0.47163436 0.13410259 143.00663 0.1493658 142.26482)
(139.95233 -0.45100628 0.13515943 142.3546 0.14856592 141.62583)
(139.01478 -0.43787896 0.13492121 141.41248 0.14747982 140.6922)
(137.93484 -0.42617116 0.13384451 140.31753 0.14621078 139.60847)
(136.70031 -0.41497735 0.13186391 139.05998 0.14473767 138.36486)
(135.27532 -0.40438061 0.1299081 137.60863 0.14307262 136.92714)
(133.64177 -0.39449015 0.12861078 135.94923 0.14125115 135.27887)
(131.81483 -0.38543802 0.12849312 134.09993 0.13932329 133.4365)
(129.84256 -0.37718256 0.12615739 132.10863 0.13715132 131.4533)
(127.78627 -0.36983396 0.12427095 130.03887 0.13491998 129.38811)
(125.72291 -0.36351716 0.12387313 127.96812 0.13278406 127.31703)
(123.73174 -0.35811926 0.12122912 125.97279 0.13061227 125.32329)
(121.87276 -0.35370276 0.12003452 124.11425 0.1286496 123.46237)
(120.19476 -0.35017342 0.11973469 122.44007 0.12693966 121.78353)
(118.72639 -0.34746016 0.12014916 120.97838 0.12548961 120.31547)
(117.47794 -0.34546258 0.11931481 119.73809 0.12419523 119.07048)
(116.43534 -0.3441845 0.11903521 118.7062 0.12313174 118.03245)
(115.57401 -0.34357948 0.1184128 117.85844 0.12223549 117.17831)
(114.88371 -0.3436627 0.11899398 117.18917 0.12157164 116.49872)
(114.41537 -0.34473875 0.12002953 116.75265 0.12115966 116.04799)
(114.31448 -0.34749311 0.12186631 116.69412 0.12116036 115.97103)
(114.76895 -0.35323114 0.11906106 117.17873 0.12149434 116.44718)
(115.88727 -0.3588444 0.1173075 118.28757 0.12549492 117.57434)
(117.38174 -0.36065139 -0.12737728 119.71251 -0.12145377 118.98489)
(119.17935 -0.35172341 -0.1070755 121.35736 -0.12837687 120.74861)
(121.45474 -0.35350566 0.11987067 123.64198 0.12490353 122.98513)
(125.42794 -0.3315271 0.11786915 128.67618 0.13270675 127.74112)
(128.85149 -0.41251296 -0.24764455 136.02333 -0.13288401 133.47371)
(128.76086 -0.029179992 -0.14015861 149.66825 -0.094498455 142.14646)
(124.49159 0.42792972 0.71405179 136.7847 0.091654159 132.2574)
(132.91421 -5.3310905 19.986337 85.266937 7.7072767 142.31735)
(0.00067064028 -3.8627273e-05 -3.6265652e-07 0.0010643398 -6.4836154e-09 0.00090653083)
(0.97937771 -0.0097019661 -3.5516006e-05 1.0144071 -1.0001169e-05 0.99900489)
(32.793152 -0.3428165 -0.0011629637 33.751213 -0.0018703912 33.319869)
(82.766011 -0.79865989 0.057885438 85.584273 0.028077751 84.35032)
(117.87337 -0.98384182 0.14924798 122.21949 0.077680312 120.38111)
(133.54365 -0.92286462 0.19294618 138.38362 0.099436799 136.38743)
(138.21666 -0.8213943 0.20872091 143.02721 0.10658169 141.07669)
(138.73692 -0.76330085 0.21398189 143.50316 0.10805789 141.58706)
(138.09903 -0.73643486 0.21725606 142.87144 0.1079628 140.95899)
(137.17002 -0.7194404 0.21849713 141.9451 0.10753384 140.03535)
(136.1037 -0.70397967 0.21831358 140.8597 0.10691742 138.96093)
(134.88804 -0.6888089 0.21676503 139.60754 0.10613174 137.7268)
(133.48649 -0.67394281 0.21479504 138.16007 0.10513929 136.30052)
(131.87917 -0.65955451 0.21322521 136.50462 0.1039635 134.66605)
(130.07937 -0.64589798 0.21275591 134.66047 0.10262489 132.83987)
(128.13073 -0.63362098 0.21015797 132.6739 0.10122873 130.87016)
(126.09546 -0.62246547 0.20777606 130.60984 0.099727661 128.81866)
(124.05002 -0.61257854 0.20694557 128.54605 0.098208379 126.76172)
(122.07095 -0.60446816 0.20406052 126.55648 0.096793561 124.7776)
(120.2213 -0.59757113 0.20240039 124.70427 0.095414 122.92638)
(118.54951 -0.59193508 0.20179235 123.03639 0.094186836 121.25617)
(117.08454 -0.5875006 0.2020372 121.58097 0.093117487 119.79563)
(115.83595 -0.58443426 0.20118648 120.3461 0.092236435 118.55508)
(114.79137 -0.58240127 0.20081857 119.32005 0.091475086 117.52107)
(113.92519 -0.58150751 0.20021311 118.47861 0.090859277 116.66954)
(113.22587 -0.58162827 0.20091627 117.81823 0.090358732 115.99261)
(112.74065 -0.58350311 0.20246818 117.39371 0.090062209 115.54269)
(112.61422 -0.58816539 0.20518082 117.3498 0.090042199 115.46418)
(113.04096 -0.59785313 0.20292498 117.84269 0.090334111 115.93191)
(114.14182 -0.60775102 0.19641868 118.94315 0.094311703 117.04159)
(115.69158 -0.60611294 -0.21311839 120.35211 -0.088117832 118.48132)
(117.50846 -0.59817212 -0.1848454 121.93322 -0.096641825 120.1923)
(119.78526 -0.59501193 0.20592155 124.24052 0.090436233 122.45851)
(123.18763 -0.58978767 0.22622161 129.61422 0.10366307 127.10539)
(124.93404 -0.73966836 -0.44878511 138.36533 -0.10241081 132.94914)
(119.66894 -0.63621009 -0.67000318 156.30255 -0.11898331 141.67139)
(118.92811 0.041992227 0.90788482 140.78191 0.090484207 131.95492)
(156.80869 -9.9669594 2.3618628 81.178308 1.4897944 138.80723)
(0.00052128999 -8.0388028e-05 -7.7964493e-07 0.0014608549 -1.0898962e-08 0.0010789204)
(0.86816602 -0.0080813479 -3.6627484e-05 0.90127398 -6.3358398e-06 0.8867401)
(32.079578 -0.37317775 -0.001222901 33.348979 -0.0013738508 32.787825)
(81.4945 -0.90472996 0.053465302 85.435663 0.017958159 83.732264)
(116.39265 -1.1094786 0.15019565 122.64614 0.054048414 119.99092)
(132.10697 -1.0294861 0.20084918 139.21866 0.071451602 136.23672)
(136.89043 -0.90153876 0.22111235 144.04483 0.077758105 141.06902)
(137.47683 -0.8265268 0.22835016 144.59973 0.079281305 141.64955)
(136.86445 -0.79148592 0.23254983 144.01482 0.079274154 141.05877)
(135.94995 -0.76988801 0.23479876 143.12134 0.079076496 140.15995)
(134.90007 -0.7508915 0.23544968 142.05845 0.078765203 139.10514)
(133.70512 -0.73252023 0.23460265 140.82164 0.078381101 137.88816)
(132.32749 -0.71475093 0.23299709 139.38427 0.077795306 136.47759)
(130.74518 -0.69774942 0.23151848 137.73485 0.076974517 134.85736)
(128.96912 -0.681824 0.23094709 135.89368 0.075873399 133.0437)
(127.04175 -0.66715586 0.2287635 133.90971 0.07500471 131.08451)
(125.02346 -0.65389468 0.22643389 131.84673 0.074000647 129.04114)
(122.98961 -0.64235762 0.2254641 129.78257 0.072805713 126.98984)
(121.01782 -0.63256078 0.22302328 127.79333 0.071980882 125.00903)
(119.17092 -0.62444851 0.22124558 125.94025 0.071006182 123.15913)
(117.49827 -0.61792841 0.22051933 124.2711 0.070062834 121.48868)
(116.02957 -0.61289201 0.22065257 122.81449 0.069167601 120.02688)
(114.7757 -0.60921957 0.22003652 121.57975 0.068580582 118.78457)
(113.72428 -0.60679879 0.21966257 120.55445 0.068021107 117.74865)
(112.84953 -0.60554953 0.21916926 119.71544 0.067628748 116.89522)
(112.13728 -0.60542925 0.21977057 119.06004 0.067208235 116.21636)
(111.63197 -0.60712588 0.22143732 118.64519 0.066943954 115.7642)
(111.47736 -0.6121532 0.22441172 118.61587 0.066833282 115.68296)
(111.87748 -0.62337121 0.22291139 119.1239 0.067338067 116.14736)
(112.97027 -0.63499781 0.21427618 120.23515 0.072170599 117.25649)
(114.54853 -0.64148956 -0.23278467 121.60867 -0.062680175 118.69676)
(116.42529 -0.62807134 -0.20498903 123.1891 -0.074685361 120.41832)
(118.68212 -0.62367105 0.22802056 125.50606 0.064522443 122.69258)
(121.68049 -0.55001776 0.25731017 131.3271 0.082764355 127.40867)
(122.13314 -0.61662812 -0.49719692 141.18132 -0.07228706 133.37759)
(113.18333 -0.3662937 -0.85765416 162.78251 -0.11662746 142.60495)
(114.20032 -0.0059173197 0.84929619 145.86391 0.061004804 132.93677)
(164.47563 -10.619899 0.28297402 77.494683 -0.58988831 136.03182)
(0.00073598009 -8.6761662e-05 -5.0906542e-07 0.0013235171 -6.5590469e-08 0.0010872168)
(0.72161219 -0.0054711863 -2.8470602e-05 0.74330202 -3.6612589e-06 0.73364125)
(31.215891 -0.38213649 -0.0012440512 32.639872 -0.001056633 32.016567)
(80.069818 -0.97664691 0.043403299 84.760754 0.011689607 82.751195)
(114.79817 -1.2362741 0.13174068 122.41853 0.038156976 119.20078)
(130.58501 -1.1723517 0.18008121 139.39458 0.051438247 135.71025)
(135.49137 -1.0370453 0.20011094 144.4338 0.056307557 140.71635)
(136.15692 -0.95223555 0.207361 145.09015 0.057467001 141.38845)
(135.58121 -0.91165278 0.21145879 144.56771 0.057416175 140.84951)
(134.68757 -0.88715217 0.21414059 143.72084 0.057290362 139.98659)
(133.65764 -0.86592641 0.21534434 142.69386 0.057099964 138.96095)
(132.48596 -0.84533844 0.2151575 141.48533 0.056880767 137.76992)
(131.13523 -0.82522341 0.21400781 140.07067 0.056492795 136.38361)
(129.5819 -0.80573553 0.21273259 138.43937 0.055898503 134.78598)
(127.83474 -0.78725 0.21209996 136.61257 0.055035936 132.99296)
(125.93376 -0.77009664 0.21059116 134.64038 0.054466747 131.0514)
(123.93791 -0.75447927 0.20858733 132.58648 0.053772185 129.02256)
(121.92141 -0.74081495 0.20758495 130.52912 0.05286296 126.98263)
(119.96151 -0.72922407 0.20588617 128.54521 0.052354491 125.00961)
(118.12184 -0.71960597 0.20419365 126.69577 0.051655668 123.16486)
(116.45236 -0.71186953 0.20342283 125.02907 0.050953015 121.49732)
(114.98361 -0.70589038 0.20342731 123.57421 0.050258323 120.03679)
(113.72733 -0.70154219 0.20312756 122.3412 0.049862888 118.79448)
(112.67189 -0.69864296 0.20278864 121.31766 0.049455595 117.75799)
(111.79124 -0.69706669 0.20245012 120.48107 0.049196417 116.9035)
(111.0693 -0.69672869 0.20283348 119.8298 0.048866002 116.22321)
(110.54748 -0.69850775 0.20435558 119.42239 0.048659513 115.76876)
(110.36805 -0.70440291 0.20719206 119.40461 0.048543229 115.68426)
(110.74099 -0.71800225 0.2065635 119.92568 0.048965973 116.14452)
(111.81814 -0.73329682 0.19882959 121.04809 0.053611634 117.25159)
(113.41861 -0.74214415 -0.21379493 122.41306 -0.043925647 118.70185)
(115.32889 -0.72826821 -0.19327807 123.99883 -0.055758046 120.43284)
(117.57857 -0.7153327 0.21189507 126.34203 0.045131761 122.72614)
(120.29539 -0.61023005 0.24533609 132.41754 0.062003365 127.46416)
(120.17323 -0.64074242 -0.45217646 142.66703 -0.049088743 133.44154)
(109.66338 -0.60987827 -0.84646222 165.65612 -0.092345999 142.7802)
(110.75688 -0.54928124 0.67716189 149.15412 0.045847632 133.43842)
(162.07931 -11.355622 0.16069151 82.383594 -0.22910926 136.06581)
(0.00093756455 -6.9403445e-06 -4.3444745e-08 0.00097722546 -7.0166253e-09 0.00096232436)
(0.49089262 -0.0019736012 -1.1541009e-05 0.49638131 -8.4550069e-07 0.4936021)
(30.029442 -0.34548775 -0.001220445 31.333702 -0.00080990177 30.760052)
(78.349186 -0.96190088 0.029360645 83.120574 0.0067121171 81.078016)
(113.12716 -1.2710664 0.098758605 121.17598 0.025017221 117.78086)
(129.14681 -1.2400635 0.13883733 138.69099 0.034776271 134.70181)
(134.25291 -1.1115624 0.15589033 144.0807 0.038407655 139.9959)
(135.04157 -1.0225603 0.16208903 144.91646 0.039253619 140.82441)
(134.5313 -0.97825206 0.16544803 144.49912 0.039149893 140.37457)
(133.67607 -0.95217506 0.16810109 143.73044 0.039061617 139.5736)
(132.67682 -0.93019093 0.16962829 142.76777 0.03895917 138.59845)
(131.53605 -0.90886826 0.17006581 141.61399 0.038872971 137.45229)
(130.21893 -0.88777776 0.16947237 140.24663 0.038651771 136.10759)
(128.70125 -0.86699032 0.1685054 138.65561 0.038243548 134.54841)
(126.98998 -0.84690311 0.16783045 136.86238 0.037565912 132.79015)
(125.12253 -0.828001 0.16712375 134.91749 0.037236781 130.87839)
(123.15587 -0.81058275 0.16567018 132.8849 0.036802477 128.87407)
(121.16279 -0.79518352 0.16470663 130.84346 0.036121762 126.85332)
(119.21983 -0.78207214 0.16390584 128.87099 0.03587228 124.89384)
(117.39131 -0.77114278 0.16249798 127.02925 0.035409192 123.05821)
(115.72794 -0.76231635 0.16172709 125.36731 0.034900669 121.39609)
(114.26141 -0.75546296 0.16155947 123.91517 0.034360595 119.93823)
(113.0047 -0.7504528 0.16158316 122.68362 0.034116892 118.69659)
(111.94724 -0.74702562 0.16132311 121.66074 0.033836278 117.65966)
(111.0631 -0.74496604 0.16116832 120.82437 0.033688779 116.80382)
(110.33483 -0.74409444 0.16127883 120.17348 0.033433555 116.12121)
(109.801 -0.74544079 0.16244561 119.76763 0.033267768 115.6628)
(109.60144 -0.75157695 0.16481259 119.75428 0.033134151 115.57275)
(109.94826 -0.76701409 0.16529003 120.28442 0.033515408 116.02712)
(111.00402 -0.78631993 0.1618342 121.42278 0.038089009 117.13282)
(112.60506 -0.79917596 -0.16637319 122.80892 -0.028005044 118.6005)
(114.52959 -0.78689079 -0.16061912 124.43264 -0.039924239 120.35395)
(116.77956 -0.76240865 0.16721987 126.81618 0.028715436 122.67652)
(119.45701 -0.61455774 0.20619126 132.93332 0.044699651 127.41532)
(119.75692 -0.55723549 -0.33899584 142.66623 -0.028869546 133.2747)
(110.63491 -0.67196217 -0.70540896 164.43387 -0.07061107 142.41978)
(109.95814 -1.1504967 0.42003598 150.28644 0.027466465 133.74994)
(156.14879 -11.567701 -0.054045664 89.919534 -0.088997386 135.81492)
(0.00041887466 1.9960798e-08 -1.6998028e-10 0.00041920949 1.0317657e-10 0.0004191902)
(0.16688205 0.00011007137 4.8953831e-07 0.16685659 2.7124012e-07 0.16669947)
(28.414798 -0.27847262 -0.0011151229 29.425214 -0.00059972975 28.973369)
(76.082067 -0.88463231 0.016621642 80.434265 0.003251754 78.565058)
(111.0739 -1.2369703 0.065555828 118.83993 0.015152928 115.56044)
(127.50918 -1.2501371 0.096188282 137.05699 0.022078474 133.06407)
(132.93193 -1.1391969 0.10960381 142.96786 0.024721415 138.7949)
(133.91497 -1.0504424 0.11447904 144.08701 0.025327681 139.87059)
(133.51665 -1.003621 0.11690636 143.8334 0.025187801 139.56365)
(132.73079 -0.97672374 0.11922447 143.18448 0.025113514 138.86194)
(131.78373 -0.95494316 0.1208367 142.32167 0.025065622 137.96715)
(130.69029 -0.93393353 0.12171725 141.25473 0.025068755 136.89161)
(129.42053 -0.91288573 0.1216074 139.96382 0.024971346 135.61142)
(127.95078 -0.89171519 0.12092717 138.43897 0.024706709 134.11099)
(126.28678 -0.87079209 0.12020447 136.7015 0.024175639 132.40518)
(124.46342 -0.8506901 0.1201688 134.80204 0.024011579 130.53834)
(122.53539 -0.83187637 0.11928136 132.80499 0.023772995 128.57086)
(120.57385 -0.81503733 0.11837927 130.79012 0.023270329 126.57886)
(118.65449 -0.80057161 0.118349 128.83655 0.023197583 124.64019)
(116.84224 -0.78846822 0.11729458 127.00757 0.022918302 122.81877)
(115.18879 -0.77865956 0.1165357 125.35352 0.022560012 121.16546)
(113.72731 -0.77101779 0.11618793 123.90576 0.022140056 119.71239)
(112.47248 -0.76538284 0.11644943 122.67624 0.022001056 118.47272)
(111.41508 -0.76143733 0.11628327 121.65372 0.021817647 117.43606)
(110.52969 -0.75881764 0.11628974 120.81629 0.021751174 116.57905)
(109.79787 -0.75720869 0.11616504 120.16285 0.021559664 115.89353)
(109.25533 -0.75772543 0.11692597 119.75329 0.021425081 115.42943)
(109.03855 -0.76358508 0.11872737 119.7374 0.02127634 115.33091)
(109.359 -0.78036895 0.12026621 120.27219 0.021609146 115.77689)
(110.38717 -0.80373025 0.12226249 121.43012 0.025995369 116.88129)
(111.97223 -0.82235023 -0.11385634 122.86019 -0.01589241 118.37123)
(113.89714 -0.81239822 -0.12459899 124.55061 -0.02750473 120.16037)
(116.14969 -0.77562239 0.11652952 126.98109 0.016245427 122.51539)
(118.93357 -0.58184007 0.16255255 132.98423 0.031024433 127.22746)
(120.17881 -0.42803297 -0.21815449 141.63382 -0.013841383 132.85014)
(114.00474 -0.66169288 -0.53238769 160.64461 -0.050918842 141.55694)
(111.08957 -1.7591117 0.1852409 149.73681 0.010149301 133.85948)
(149.60012 -11.846773 -0.14558036 98.283821 0.018647514 136.09598)
(3.3598471e-05 5.5432472e-07 -5.1975029e-10 3.8142764e-05 2.3087567e-10 3.6467195e-05)
(0.085780811 0.00041363184 1.6188077e-07 0.08877407 4.4626159e-07 0.087447513)
(26.461749 -0.20242774 -0.00090289479 27.150329 -0.0004258736 26.832446)
(73.269645 -0.7768044 0.0080613082 76.952511 0.0012674274 75.361025)
(108.54839 -1.1644346 0.040534515 115.59214 0.0088404304 112.61065)
(125.55518 -1.2268817 0.063134034 134.58821 0.013776488 130.80629)
(131.41604 -1.1415502 0.073354978 141.142 0.015738183 137.09535)
(132.67175 -1.0575551 0.077034818 142.63216 0.016192823 138.50193)
(132.43827 -1.009676 0.078602329 142.59357 0.016041701 138.3898)
(131.75931 -0.98257113 0.080415623 142.09903 0.015969242 137.82319)
(130.89179 -0.96167396 0.081898066 141.36497 0.015948517 137.03704)
(129.86647 -0.94177086 0.082975358 140.41122 0.01599955 136.05621)
(128.66074 -0.92157587 0.083187512 139.22121 0.015980286 134.8618)
(127.25283 -0.90077358 0.082718174 137.78492 0.015813844 133.439)
(125.64818 -0.87964562 0.081935325 136.12293 0.015389796 131.80217)
(123.87969 -0.8588371 0.082289229 134.28538 0.015317862 129.9944)
(121.99979 -0.83897826 0.081853729 132.33704 0.015205235 128.07544)
(120.07826 -0.82091987 0.081005794 130.35883 0.014827462 126.12158)
(118.18973 -0.80523852 0.081455838 128.43136 0.014850351 124.21097)
(116.39975 -0.79204186 0.080739638 126.62016 0.014695424 122.40922)
(114.7611 -0.7813015 0.080004999 124.97731 0.014441299 120.76865)
(113.30868 -0.77290781 0.079497735 123.53595 0.014106849 119.32315)
(112.05901 -0.76668683 0.07986066 122.3095 0.014027385 118.08744)
(111.00456 -0.76225523 0.079776466 121.28773 0.013908851 117.05245)
(110.1208 -0.75908063 0.079894431 120.44876 0.013891597 116.19522)
(109.38882 -0.75666015 0.079627567 119.79064 0.013749725 115.50691)
(108.84175 -0.75612704 0.080039317 119.3726 0.013639538 115.03602)
(108.61222 -0.76130243 0.081301319 119.3468 0.013483406 114.92652)
(108.90874 -0.77889367 0.083500198 119.87996 0.013751723 115.3616)
(109.90559 -0.80600766 0.09005938 121.05665 0.017798026 116.46335)
(111.46405 -0.83051855 -0.071014867 122.54559 -0.0081845562 117.97825)
(113.37822 -0.82395858 -0.094423018 124.31966 -0.01898778 119.81039)
(115.63408 -0.77677555 0.074252199 126.7978 0.0083193794 122.19673)
(118.58707 -0.55218586 0.12541757 132.58355 0.021582999 126.8499)
(120.84938 -0.33481605 -0.1243792 139.98682 -0.0050521635 132.1669)
(118.09063 -0.66843057 -0.37900217 155.6162 -0.036384787 140.27296)
(113.67537 -2.242874 0.039432218 147.73461 -0.0017774631 133.71769)
(139.29061 -11.682752 -0.21021012 110.02625 0.05551363 135.86474)
(-1.7228178e-05 -3.8240877e-05 -5.0555112e-08 8.2127877e-05 -5.3853207e-08 5.9557792e-05)
(0.078971976 0.00050003991 -2.4237418e-06 0.084743843 5.9407897e-07 0.082276231)
(24.171072 -0.13130568 -0.00062983194 24.582058 -0.00027820653 24.380894)
(69.776901 -0.6513774 0.0030040632 72.70002 0.00021010958 71.424391)
(105.33732 -1.062565 0.023248549 111.42962 0.0048360231 108.84094)
(123.06588 -1.1748963 0.039432139 131.27177 0.0083337735 127.82949)
(129.50592 -1.1212541 0.047094778 138.59263 0.0098157201 134.80763)
(131.13036 -1.0463815 0.049820396 140.55283 0.010175937 136.6428)
(131.1272 -0.99891691 0.050703027 140.79047 0.010031456 136.78842)
(130.60261 -0.97198102 0.051970096 140.49028 0.0099551897 136.39997)
(129.85061 -0.95235569 0.053198204 139.91673 0.00994446 135.75595)
(128.92174 -0.9341329 0.054289399 139.10467 0.010016762 134.89829)
(127.80319 -0.91546981 0.054693023 138.04218 0.010046213 133.81486)
(126.47661 -0.8957331 0.054385492 136.7192 0.0099494704 132.49229)
(124.94811 -0.87502854 0.053562179 135.15506 0.0096080793 130.94446)
(123.24915 -0.85401179 0.054067091 133.39861 0.0095817608 129.21312)
(121.43016 -0.83345396 0.05396578 131.51469 0.0095493669 127.35721)
(119.5598 -0.81437492 0.053181912 129.58544 0.0092631575 125.45331)
(117.71155 -0.79756162 0.053857721 127.69312 0.0093300275 123.58003)
(115.95168 -0.78328327 0.05344681 125.90617 0.009260406 121.80499)
(114.33417 -0.77158585 0.052767393 124.27891 0.0090819538 120.18235)
(112.89588 -0.76240168 0.052145509 122.84685 0.0088115789 118.74819)
(111.65543 -0.75556194 0.052500893 121.62532 0.0087627886 117.51922)
(110.60729 -0.75062268 0.052481753 120.60547 0.0086875695 116.48798)
(109.72819 -0.74686604 0.052667781 119.76536 0.0086990221 115.63201)
(108.9992 -0.74354066 0.052348259 119.10145 0.0085975291 114.94156)
(108.45114 -0.74168941 0.052494036 118.67109 0.0085077254 114.46307)
(108.21258 -0.74562815 0.053274815 118.62828 0.0083488392 114.33993)
(108.48774 -0.76323339 0.055674216 119.15212 0.0085411401 114.76074)
(109.45131 -0.79343499 0.065155299 120.34324 0.012140317 115.85687)
(110.97738 -0.8238781 -0.039461296 121.89846 -0.0033954618 117.39777)
(112.8751 -0.82186307 -0.070181079 123.767 -0.013017771 119.27794)
(115.13305 -0.76731299 0.042309383 126.29351 0.0033935143 121.6944)
(118.26151 -0.52640605 0.094835238 131.81494 0.014941724 126.2647)
(121.37147 -0.2730419 -0.059902675 138.07265 -0.00012768176 131.26312)
(121.75241 -0.64945624 -0.25570142 150.43798 -0.025656409 138.73054)
(117.06278 -2.5008021 -0.02763512 144.87865 -0.0083386218 133.41184)
(128.32949 -10.992565 -0.19491936 122.12235 0.060166885 134.63283)
(-4.1080393e-05 -0.00016273258 -1.1619998e-07 8.2731691e-05 -2.5421466e-07 0.00010357056)
(0.083268785 0.00039894777 -3.7179307e-06 0.088956844 6.1826588e-07 0.086511651)
(21.599704 -0.075617571 -0.00036601969 21.804186 -0.00016251946 21.691903)
(65.537915 -0.51818895 0.00042923141 67.704986 -0.00027212653 66.744613)
(101.28562 -0.93805394 0.012085073 106.32297 0.0023620744 104.17019)
(119.86043 -1.0977459 0.023265712 127.05204 0.0047903659 124.02652)
(127.03143 -1.0806041 0.028949199 135.26496 0.0059211714 131.82943)
(129.13429 -1.0195283 0.030966806 137.806 0.0062214864 134.2034)
(129.43585 -0.97439407 0.031369773 138.39131 0.0060962258 134.67939)
(129.12059 -0.9480492 0.032134633 138.33152 0.0060150224 134.51883)
(128.52731 -0.92992189 0.033053247 137.95385 0.006003173 134.05556)
(127.72975 -0.91378644 0.034033276 137.31447 0.0060780713 133.35364)
(126.72737 -0.89722862 0.034525465 136.40855 0.0061347684 132.41023)
(125.50678 -0.8792269 0.034347911 135.22648 0.0060879346 131.21426)
(124.07561 -0.85961075 0.03352654 133.78575 0.0058143889 129.77919)
(122.46457 -0.83895372 0.034008421 132.13308 0.0058037997 128.14519)
(120.72233 -0.81811934 0.034128649 130.33265 0.0058190781 126.37008)
(118.91685 -0.79828219 0.033430375 128.46773 0.0056031055 124.53083)
(117.12041 -0.78045698 0.034136366 126.62215 0.0056802492 122.70647)
(115.40015 -0.76511913 0.033980209 124.86786 0.0056675268 120.96701)
(113.8114 -0.75243309 0.03339227 123.26201 0.0055463157 119.36887)
(112.39327 -0.74240454 0.032713472 121.84314 0.0053272507 117.95084)
(111.16676 -0.73489487 0.032985202 120.62914 0.0052906028 116.73208)
(110.12868 -0.72941842 0.033006891 119.61298 0.0052430662 115.70719)
(109.25735 -0.7250699 0.033220743 118.77282 0.0052686479 114.85442)
(108.53416 -0.7207979 0.032915031 118.10277 0.0052001685 114.16277)
(107.98783 -0.71742105 0.032877811 117.65683 0.0051282132 113.67589)
(107.74286 -0.71955687 0.033249261 117.58959 0.0049706148 113.53584)
(107.99889 -0.73618401 0.035448936 118.09389 0.0050796184 113.93734)
(108.929 -0.76835033 0.046107859 119.29017 0.0081511111 115.02252)
(110.42093 -0.80426238 -0.017899641 120.9109 -0.00055799405 116.58778)
(112.30039 -0.80771787 -0.050711092 122.87848 -0.008723315 118.51836)
(114.55725 -0.74950878 0.019798713 125.45267 0.00046435667 120.9626)
(117.83348 -0.5065191 0.069555502 130.69426 0.010148722 125.42963)
(121.5312 -0.24379909 -0.019689562 136.02739 0.0023924306 130.13073)
(124.36275 -0.628348 -0.16330747 145.65609 -0.017677027 136.99038)
(120.50325 -2.5512291 -0.045026811 141.79382 -0.010429464 133.00261)
(122.23342 -10.643274 -0.14209291 129.64023 0.057299871 133.63799)
(-8.5165802e-06 -0.00013474937 -1.3127615e-07 8.2245533e-05 -2.4331491e-07 0.00010942153)
(0.085967709 0.00021231552 -3.0114287e-06 0.089563733 4.7926281e-07 0.087981954)
(18.834166 -0.037632547 -0.00016566685 18.909541 -8.2283236e-05 18.855282)
(60.545822 -0.38701498 -0.0005862155 62.027445 -0.0004159571 61.354308)
(96.283905 -0.79782864 0.0053889279 100.25396 0.00091110669 98.542946)
(115.78294 -0.99909129 0.012732342 121.86493 0.0025302948 119.2958)
(123.83726 -1.0215538 0.016886375 131.08617 0.003390851 128.05425)
(126.54171 -0.97905308 0.018397212 134.32963 0.0036502529 131.08906)
(127.23251 -0.93872561 0.018511488 135.34674 0.0035524544 131.97965)
(127.1884 -0.91359783 0.018871398 135.58138 0.0034692174 132.10421)
(126.80214 -0.89710344 0.019481653 135.43853 0.0034507738 131.86446)
(126.17471 -0.88330592 0.020280801 135.0042 0.0035165928 131.35332)
(125.32038 -0.86931543 0.020786085 134.28423 0.0035851429 130.58034)
(124.23495 -0.85366482 0.020715231 133.27317 0.0035738587 129.54069)
(122.92656 -0.83582217 0.01994845 131.98466 0.0033592004 128.24581)
(121.42551 -0.81616876 0.020307868 130.46218 0.003347851 126.73376)
(119.77895 -0.79558007 0.020550141 128.76818 0.0033875825 125.06075)
(118.05461 -0.77534185 0.019962324 126.98669 0.0032279069 123.30409)
(116.32354 -0.75670092 0.020575726 125.20278 0.0032959908 121.54302)
(114.65399 -0.74037188 0.020612073 123.49228 0.0033187814 119.85028)
(113.10281 -0.72668919 0.020146826 121.91579 0.003242344 118.28496)
(111.71173 -0.71577036 0.019474741 120.51567 0.0030675132 116.88916)
(110.50442 -0.70754144 0.019628477 119.31306 0.0030331885 115.68506)
(109.48041 -0.70150665 0.019668327 118.30349 0.0030025816 114.66987)
(108.61996 -0.69659249 0.019880517 117.46545 0.0030328152 113.82285)
(107.90494 -0.69141231 0.019631561 116.79015 0.002991287 113.13152)
(107.36199 -0.68641669 0.019489558 116.32665 0.002936127 112.63576)
(107.11179 -0.68625516 0.019543275 116.22825 0.002785273 112.47534)
(107.35066 -0.7008021 0.021289708 116.70177 0.0028143461 112.85176)
(108.24595 -0.73347414 0.03166628 117.88763 0.0053202436 113.9164)
(109.70384 -0.7738564 -0.0044068226 119.56376 0.00095882145 115.49994)
(111.56492 -0.78345939 -0.035152692 121.62633 -0.0056134565 117.4786)
(113.81509 -0.72557667 0.0051984989 124.24389 -0.0011115215 119.94546)
(117.19375 -0.49282487 0.04885113 129.20836 0.006665566 124.29167)
(121.235 -0.24292484 0.0025852801 133.87342 0.0034427423 128.74436)
(125.73141 -0.61182606 -0.098960807 141.46358 -0.011750648 135.0862)
(123.33588 -2.4618819 -0.039902733 139.01861 -0.0097563399 132.53268)
(120.4573 -10.081037 -0.088455922 133.15305 0.047237763 132.82116)
(2.2472717e-05 -9.7723361e-05 -1.4417076e-07 8.2281134e-05 -2.0552678e-07 0.00010597991)
(0.085855731 6.4261808e-05 -1.438005e-06 0.087244769 2.9344979e-07 0.086596109)
(15.98424 -0.014863008 -4.8968837e-05 15.998577 -3.3334951e-05 15.974501)
(54.86904 -0.26705879 -0.00075445156 55.781717 -0.00038319477 55.348926)
(90.286445 -0.64868592 0.0017475019 93.244651 0.00013388474 91.953557)
(110.71953 -0.88194667 0.0062199799 115.66528 0.0011408502 113.56411)
(119.79 -0.94484479 0.0091771526 125.98228 0.001782927 123.38385)
(123.22582 -0.9254809 0.010327642 130.05171 0.0020103078 127.20536)
(124.40231 -0.89306045 0.0103064 131.59875 0.0019440243 128.6079)