/*--------------------------------*- C++ -*----------------------------------*\
| =========                 |                                                 |
| \\      /  F ield         | OpenFOAM: The Open Source CFD Toolbox           |
|  \\    /   O peration     | Version:  2.4.0                                 |
|   \\  /    A nd           | Web:      www.OpenFOAM.org                      |
|    \\/     M anipulation  |                                                 |
\*---------------------------------------------------------------------------*/
FoamFile
{
    version     2.0;
    format      ascii;
    class       volSymmTensorField;
    location    "2000";
    object      Rx;
}
// * * * * * * * * * * * * * * * * * * * * * * * * * * * * * * * * * * * * * //

dimensions      [0 0 0 0 0 0 0];

internalField   nonuniform List<symmTensor> 
15296
(
(2.8943457 -1.4843997 -0.001430708 -0.98920952 -0.054645713 -1.9051361)
(-1.3397522 1.1076686 -0.0010962942 0.26602031 0.016779483 1.0737319)
(-1.5241651 1.0002531 0.0038584248 0.2976005 0.098525382 1.2265646)
(-1.1617696 1.0054076 0.0068143477 0.14548866 -0.69093414 1.0162809)
(-0.80701634 1.0123791 0.0038520538 -0.20508486 -1.3678666 1.0121012)
(-0.52850847 0.97940651 0.00042832305 -0.43191423 -1.6281509 0.9604227)
(-0.36315481 0.94658895 -0.00078798432 -0.5624022 -1.7527696 0.92555701)
(-0.28646055 0.93425512 -0.0011761662 -0.62179327 -1.8055385 0.90825381)
(-0.25245688 0.93312162 -0.0011547589 -0.64696038 -1.828085 0.89941726)
(-0.23268026 0.93358214 -0.0010128833 -0.66267356 -1.8417446 0.89535382)
(-0.21721871 0.93303858 -0.00088423576 -0.67551662 -1.8524967 0.89273534)
(-0.20416498 0.93194261 -0.00079035515 -0.687118 -1.8617005 0.89128299)
(-0.19294937 0.93102987 -0.00072744235 -0.6968157 -1.869406 0.88976507)
(-0.18320596 0.93093869 -0.00068197587 -0.7043524 -1.8758396 0.88755836)
(-0.17469462 0.93204712 -0.00062013986 -0.70942754 -1.8811131 0.88412216)
(-0.16785873 0.93495492 -0.00055471133 -0.71627196 -1.8864876 0.88413069)
(-0.16190948 0.93929558 -0.00051631224 -0.72176027 -1.8910963 0.88366976)
(-0.15675261 0.94468946 -0.00045830032 -0.7249112 -1.8947874 0.88166382)
(-0.15308453 0.95118096 -0.00040193139 -0.73020157 -1.8986298 0.88328609)
(-0.14993379 0.95794817 -0.00036967181 -0.73310141 -1.9014472 0.8830352)
(-0.14737136 0.96470134 -0.00033377187 -0.73467644 -1.9036811 0.8820478)
(-0.14529664 0.97122691 -0.0002886176 -0.73517719 -1.9054028 0.88047384)
(-0.14405247 0.97763695 -0.00025009581 -0.73697077 -1.9071351 0.88102324)
(-0.14315848 0.98371877 -0.00022533823 -0.73777742 -1.9083293 0.8809359)
(-0.14278119 0.98980424 -0.00020753617 -0.73886469 -1.9093651 0.88164588)
(-0.14201188 0.99649637 -0.00019264632 -0.73888225 -1.9102757 0.88089413)
(-0.14103882 1.0044005 -0.00017180419 -0.73905144 -1.9114397 0.88009026)
(-0.14073168 1.0126525 -0.00013510927 -0.73823278 -1.9120513 0.87896446)
(-0.14743574 1.0163575 -4.4309746e-05 -0.73804345 -1.9093123 0.88547919)
(-0.15713198 1.011015 -0.015747697 -0.74540113 -1.9172892 0.90253311)
(-0.16155572 0.98276015 -0.01606918 -0.69928941 1.8759585 0.86084513)
(-0.16743527 0.95194277 0.015292497 -0.74829699 1.9094246 0.91573226)
(-0.16312852 0.93239978 0.016399492 -0.70353932 -1.8689438 0.86666784)
(-0.00064405765 1.1425262 -0.015780412 -0.89268025 -2.0307022 0.8933243)
(0.11181631 1.6425594 -0.018474739 -0.91912163 2.1326454 0.80730532)
(0.6688936 2.8774456 0.015960552 -1.4597647 2.6109356 0.79087113)
(1.2008229 2.3699747 0.018875774 -1.5256811 -2.8143089 0.32485823)
(-10.476832 14.073295 0.098469311 1.0453851 -2.9852525 9.4314465)
(3.3548514 -3.7893132 -0.00113558 -1.7215526 -0.027031846 -1.6332988)
(-1.2371368 2.0746555 -0.0011520601 0.60107551 0.0069614642 0.63606133)
(-1.4500528 1.8323503 0.0034073446 0.71361869 0.035102129 0.73643415)
(-1.0906565 1.8911064 0.006690482 0.54765358 -0.2537319 0.54300296)
(-0.67267486 1.9229296 0.0043427087 0.3638108 -0.51231291 0.30886406)
(-0.35560521 1.8763342 0.00083393329 0.21924645 -0.61701217 0.13635876)
(-0.16615148 1.8219697 -0.00059100861 0.1313023 -0.66897828 0.034849183)
(-0.077375311 1.8019622 -0.0011278487 0.089484267 -0.69139246 -0.012108956)
(-0.038030707 1.8021628 -0.0011547743 0.070762713 -0.70111584 -0.032732006)
(-0.014866224 1.8049068 -0.0010028416 0.059805096 -0.70715782 -0.044938872)
(0.003336503 1.8052885 -0.00086278229 0.051241696 -0.71193617 -0.054578199)
(0.018921414 1.8041414 -0.00076665504 0.043944226 -0.71602203 -0.06286564)
(0.032228935 1.8029926 -0.00072128336 0.037702393 -0.71940491 -0.069931327)
(0.043519951 1.8031662 -0.00070610793 0.032376052 -0.72222567 -0.075896003)
(0.052934063 1.8055432 -0.00062797695 0.02787973 -0.72456686 -0.080813793)
(0.061385716 1.8109594 -0.00053318253 0.02396997 -0.72702745 -0.085355686)
(0.068588051 1.8190737 -0.00052166372 0.020636704 -0.72906165 -0.089224755)
(0.074339099 1.8293795 -0.00044691722 0.017928509 -0.73070833 -0.092267608)
(0.079401234 1.841561 -0.00037321213 0.015682917 -0.73250382 -0.09508415)
(0.083219454 1.8544863 -0.00037238809 0.013951457 -0.73371909 -0.097170911)
(0.086077552 1.8675408 -0.00035402565 0.01264278 -0.73471772 -0.098720331)
(0.088152409 1.8803016 -0.00029373237 0.011676298 -0.73551036 -0.099828707)
(0.089870294 1.8927292 -0.00023896738 0.010953975 -0.73634982 -0.10082427)
(0.090951248 1.9046415 -0.00021285365 0.01050119 -0.73687707 -0.10145244)
(0.091658158 1.9165981 -0.00020094883 0.010244071 -0.73734322 -0.10190223)
(0.092394813 1.9298888 -0.00019958981 0.0099186856 -0.73769862 -0.1023135)
(0.093368933 1.945642 -0.00018311362 0.0094905287 -0.73820545 -0.10285946)
(0.09339653 1.9624562 -9.0319432e-05 0.0095146002 -0.73848103 -0.10291113)
(0.087266492 1.9717756 0.00017399879 0.012596317 -0.73732265 -0.099862809)
(0.080365937 1.9636421 -0.01630586 0.016448559 -0.74392702 -0.096814496)
(0.061709432 1.9162523 -0.017376432 0.023383136 0.71873924 -0.085092568)
(0.072168831 1.8567463 0.015599539 0.019957924 0.74164652 -0.092126754)
(0.065570598 1.8313966 0.018150115 0.019113227 -0.715284 -0.084683825)
(0.27611015 2.1735523 -0.016320836 -0.076599845 -0.79558585 -0.19951031)
(0.38775721 3.1024403 -0.022094547 -0.12387247 0.83052018 -0.26388474)
(0.99198883 5.1459345 0.015550039 -0.34080054 1.0793831 -0.65118829)
(1.4476971 4.0107387 0.012055818 -0.5650484 -1.0601498 -0.88264868)
(-0.84534727 18.498705 0.14376032 4.2471964 3.1228696 -3.4018492)
(3.7160085 -8.4317215 -0.00053859805 -1.5513832 -0.024605655 -2.1646253)
(-1.1913749 2.5732511 -0.0011192832 0.57195103 0.0052878282 0.61942387)
(-1.4739904 2.3472785 0.0025788069 0.73576425 0.022483292 0.73822613)
(-1.1408539 2.4925236 0.0056822284 0.5839028 -0.15593582 0.55695109)
(-0.78553997 2.5701861 0.0040661451 0.43457809 -0.3310101 0.35096188)
(-0.50158033 2.5363376 0.00096426224 0.30793861 -0.40647197 0.19364172)
(-0.32692368 2.4795285 -0.00038663663 0.2276032 -0.4452192 0.099320478)
(-0.24258057 2.4598014 -0.00093058996 0.18764246 -0.46215443 0.054938119)
(-0.20429489 2.4644835 -0.00097754137 0.16908457 -0.4693759 0.03521032)
(-0.18205124 2.4717624 -0.00083130827 0.15840977 -0.47417546 0.02364147)
(-0.16483304 2.4752184 -0.00069689377 0.15025421 -0.47808864 0.014578824)
(-0.15027473 2.475911 -0.00060940527 0.1434389 -0.48158615 0.0068358303)
(-0.13778322 2.4759879 -0.00058579776 0.13756854 -0.48440502 0.00021468496)
(-0.12698911 2.4773576 -0.00060298865 0.13241647 -0.48657216 -0.0054273533)
(-0.11766047 2.4814359 -0.00052146224 0.12782896 -0.48807867 -0.010168487)
(-0.10980709 2.4891431 -0.00040975138 0.12418024 -0.49038996 -0.01437315)
(-0.10300995 2.500344 -0.00042532273 0.12098127 -0.49214485 -0.017971318)
(-0.097264808 2.5146416 -0.00034632689 0.118145 -0.49324104 -0.020880196)
(-0.092805341 2.5312554 -0.00026419205 0.11618517 -0.49523048 -0.023379828)
(-0.089166349 2.5490028 -0.00029345173 0.11446376 -0.49622448 -0.025297409)
(-0.086291264 2.5670398 -0.00029698221 0.11304241 -0.49689761 -0.026751144)
(-0.084045387 2.5847838 -0.00023168111 0.11187063 -0.49728374 -0.027825243)
(-0.082519085 2.6019177 -0.00016769584 0.11120043 -0.49816712 -0.028681342)
(-0.08146721 2.618367 -0.00014270851 0.11070036 -0.49858899 -0.029233151)
(-0.080874386 2.6348477 -0.00013776848 0.11045894 -0.49912228 -0.02958455)
(-0.079962493 2.6533694 -0.00015078539 0.10994077 -0.49922965 -0.029978275)
(-0.078813578 2.6755389 -0.00014280203 0.1093053 -0.49950351 -0.030491726)
(-0.078569139 2.6996 -6.1602457e-06 0.10911557 -0.49952557 -0.030546427)
(-0.085385166 2.7137151 0.00045363854 0.11277065 -0.49966751 -0.02738548)
(-0.095236026 2.703561 -0.014016438 0.11884794 -0.50657998 -0.023611911)
(-0.10542483 2.6437752 -0.015873145 0.1204431 0.48031101 -0.01501827)
(-0.10498675 2.5653635 0.013128747 0.1240869 0.50767061 -0.01910015)
(-0.095890059 2.5427717 0.016894208 0.1124278 -0.47930246 -0.016537739)
(0.099060745 2.9869444 -0.013738227 0.022026072 -0.55447612 -0.12108682)
(0.22084053 4.2046578 -0.021406061 -0.040000149 0.56878938 -0.18084038)
(0.66093301 6.7630869 0.011952772 -0.1756847 0.81280695 -0.48524831)
(1.0516847 5.3408176 0.013875708 -0.3582307 -0.64552184 -0.69345399)
(2.8991521 17.377418 0.14177291 5.4979024 4.0546417 -8.3970546)
(3.8824722 -12.220401 0.00014403772 -2.1175155 -0.021029675 -1.7649567)
(-1.0627037 2.648454 -0.0010708401 0.46545663 0.0044566514 0.59724706)
(-1.4233978 2.6916914 0.0018169675 0.68291865 0.016489587 0.74047912)
(-1.1112049 2.9281769 0.0046238557 0.54325946 -0.10215351 0.56794543)
(-0.75336668 3.058027 0.0036049919 0.37095021 -0.22895244 0.38241647)
(-0.46572353 3.0476303 0.00097289175 0.22952024 -0.28502239 0.23620329)
(-0.28489965 2.9965025 -0.00024312584 0.13801654 -0.31403348 0.14688311)
(-0.19513763 2.9798447 -0.00075573289 0.091181192 -0.32672052 0.10395643)
(-0.15364354 2.9897101 -0.0008135215 0.069107217 -0.33196516 0.084536322)
(-0.12951904 3.0023045 -0.00067725904 0.056283638 -0.3357277 0.073235404)
(-0.11097958 3.0098318 -0.00055123017 0.046504191 -0.33888611 0.064475392)
(-0.09530538 3.013341 -0.00047246694 0.03825221 -0.34183229 0.057053169)
(-0.081863336 3.0153636 -0.00046670793 0.031174606 -0.34413241 0.05068873)
(-0.070263356 3.0182444 -0.00051137624 0.025059984 -0.3457407 0.045203372)
(-0.060279095 3.0238397 -0.00043249521 0.019790779 -0.34659126 0.040488316)
(-0.051616091 3.0333863 -0.00031012388 0.015160314 -0.3487162 0.036455776)
(-0.044107538 3.0469114 -0.00034679151 0.01114233 -0.35020284 0.032965208)
(-0.03782824 3.0641327 -0.00026947437 0.0077906238 -0.35086061 0.030037616)
(-0.032697569 3.0841368 -0.0001822054 0.0050040154 -0.35291655 0.027693554)
(-0.028598872 3.1055706 -0.00023439156 0.0027962626 -0.35370439 0.02580261)
(-0.025393166 3.1274334 -0.00025849753 0.0010772212 -0.35411408 0.024315945)
(-0.022929802 3.1490077 -0.00019332237 -0.0002330668 -0.35419874 0.023162869)
(-0.021123437 3.1698222 -0.00012354152 -0.0012137539 -0.35508918 0.022337191)
(-0.019885912 3.1897832 -9.9396821e-05 -0.0018815898 -0.35542278 0.021767502)
(-0.019065041 3.2097704 -0.00010014984 -0.0023561455 -0.35598724 0.021421186)
(-0.017955695 3.2323437 -0.00012556624 -0.0029843527 -0.35591906 0.020940047)
(-0.016571902 3.2596457 -0.00012770308 -0.0037583321 -0.35603972 0.020330234)
(-0.016302091 3.2897895 3.9818115e-05 -0.0038582859 -0.35592249 0.020160377)
(-0.023293974 3.3086964 0.00069026104 -0.00018798808 -0.35689782 0.023481962)
(-0.033513429 3.2989914 -0.011374071 0.0053476712 -0.36471165 0.028165758)
(-0.048013127 3.2304859 -0.013881741 0.013678724 0.33694983 0.034334402)
(-0.04343277 3.1421407 0.010329911 0.010111093 0.36792367 0.033321677)
(-0.030224986 3.1211567 0.015040992 -0.00076955003 -0.3376715 0.030994536)
(0.19136748 3.6335936 -0.010712351 -0.12172221 -0.40787569 -0.069645272)
(0.32888956 4.9932569 -0.019539164 -0.19421182 0.40574663 -0.13467774)
(0.71670445 7.8529358 0.0083510539 -0.32795125 0.62724671 -0.3887532)
(0.93890047 6.4301855 0.014719003 -0.37862104 -0.40181918 -0.56027944)
(3.8243273 16.572569 0.12954442 7.0241565 2.7093339 -10.848484)
(3.8569019 -9.6379733 0.000564452 -3.2948223 -0.01384242 -0.56207959)
(-0.93534873 2.3734533 -0.0010146035 0.37723901 0.0038092047 0.55810972)
(-1.3882812 2.8738417 0.0012054026 0.66274618 0.013192334 0.72553503)
(-1.1039896 3.2014127 0.0037129216 0.5448034 -0.068131128 0.55918618)
(-0.76515707 3.3776088 0.0031440867 0.38916986 -0.16289958 0.37598721)
(-0.4853236 3.3920368 0.00094331484 0.25455784 -0.20528625 0.23076577)
(-0.30414877 3.3497404 -0.00013966272 0.16337949 -0.2270543 0.14076927)
(-0.21114462 3.3367106 -0.00061629647 0.11447647 -0.23650057 0.096668146)
(-0.16712578 3.3512307 -0.00068317417 0.090701356 -0.2401973 0.076424425)
(-0.14159534 3.3690368 -0.00055815538 0.076946223 -0.24309647 0.064649118)
(-0.12218693 3.3809746 -0.00043961008 0.066606721 -0.24561821 0.055580207)
(-0.10584671 3.3877716 -0.00036718826 0.057935127 -0.24809147 0.047911584)
(-0.0918211 3.3920926 -0.00037410457 0.050484736 -0.24996231 0.041336363)
(-0.079666076 3.3965466 -0.00044045584 0.04400381 -0.25111777 0.035662266)
(-0.069131601 3.4033219 -0.00036767305 0.038356586 -0.25143896 0.030775015)
(-0.059936299 3.4140235 -0.00023841746 0.033390537 -0.25336818 0.026545763)
(-0.051922982 3.4288669 -0.00028943788 0.029051675 -0.25463173 0.022871308)
(-0.045177676 3.4477406 -0.0002169861 0.025393733 -0.25492924 0.019783943)
(-0.039645052 3.4697828 -0.00012587451 0.022378775 -0.25698389 0.017266277)
(-0.035206973 3.4935026 -0.00019332775 0.019968672 -0.2576105 0.015238301)
(-0.03172111 3.5178096 -0.0002352754 0.018081558 -0.25780081 0.013639553)
(-0.029035835 3.541881 -0.00017325679 0.016638092 -0.25763556 0.012397743)
(-0.027065167 3.5651369 -9.9609294e-05 0.015581708 -0.25850064 0.011483459)
(-0.025697992 3.5874079 -7.5266987e-05 0.014853941 -0.25876288 0.010844051)
(-0.024732164 3.6096829 -7.9889845e-05 0.014312814 -0.25934155 0.01041935)
(-0.023412934 3.634897 -0.00011520378 0.013562187 -0.25914874 0.0098507467)
(-0.021784994 3.665708 -0.00012815055 0.012649604 -0.25915225 0.0091353898)
(-0.021452274 3.7004156 5.9607084e-05 0.012546275 -0.25893309 0.0089059998)
(-0.028812644 3.7239346 0.00087895172 0.016540993 -0.2605009 0.012271652)
(-0.040235999 3.7168204 -0.0090273808 0.023031462 -0.27013145 0.017204537)
(-0.055848788 3.6456377 -0.01204966 0.031606642 0.2393421 0.024242146)
(-0.050430876 3.554611 0.0078461531 0.027766962 0.27468785 0.022663915)
(-0.028856293 3.5349731 0.013280754 0.010251963 -0.24119857 0.01860433)
(0.20903198 4.0709349 -0.0079713259 -0.12002511 -0.30912791 -0.089006863)
(0.36099952 5.4271143 -0.017523029 -0.20087241 0.29090775 -0.16012711)
(0.65461634 8.3454955 0.0053244955 -0.26219807 0.49201367 -0.39241828)
(0.69920358 7.0831365 0.013791144 -0.19538669 -0.24599097 -0.50381689)
(4.1957786 16.218464 0.10829306 7.5974735 1.6575059 -11.793252)
(1.775837 -2.455788 0.00043330123 -1.4156373 -0.0038244291 -0.36019974)
(-0.7438011 1.5202605 -0.00092377215 0.22054678 0.0028167363 0.52325432)
(-1.3313452 2.8091107 0.00059532209 0.61293066 0.010852791 0.71841451)
(-1.088083 3.2577228 0.002752212 0.5286927 -0.040866162 0.55939026)
(-0.77613971 3.4880772 0.0026115917 0.39504639 -0.10812837 0.38109332)
(-0.50800337 3.5410486 0.00089191973 0.27052896 -0.13875052 0.23747441)
(-0.32742345 3.5190725 -3.9028277e-05 0.18094761 -0.15416348 0.14647584)
(-0.2304562 3.5142323 -0.00047400736 0.12975679 -0.16073667 0.10069941)
(-0.18300263 3.534774 -0.00055242665 0.10369881 -0.16302913 0.079303814)
(-0.155506 3.5590886 -0.00044259668 0.08861778 -0.16506546 0.066888216)
(-0.13491744 3.5770881 -0.00033226202 0.077509571 -0.16694956 0.057407873)
(-0.11770855 3.5888101 -0.00026518692 0.068294446 -0.16894212 0.049414107)
(-0.10293315 3.5967649 -0.00028251269 0.060376316 -0.17040766 0.042556839)
(-0.09005511 3.6036375 -0.00036969857 0.053429639 -0.17114575 0.036625472)
(-0.07877725 3.6118475 -0.00030748343 0.04727865 -0.17097862 0.0314986)
(-0.068846434 3.6233398 -0.0001733462 0.041811351 -0.17264408 0.027035083)
(-0.060106881 3.6386785 -0.00023525151 0.036958851 -0.1736937 0.02314803)
(-0.052658731 3.6580567 -0.00017137581 0.03278199 -0.17365372 0.019876741)
(-0.046506947 3.6807818 -7.6728423e-05 0.029312842 -0.17561247 0.017194105)
(-0.041521559 3.7054159 -0.00015523323 0.026484208 -0.17611255 0.015037351)
(-0.03756446 3.7308378 -0.0002160538 0.024225378 -0.17609188 0.013339082)
(-0.034487983 3.7561481 -0.00016068758 0.022463203 -0.17568287 0.01202478)
(-0.032217286 3.7806317 -8.4162295e-05 0.021162388 -0.17646552 0.011054898)
(-0.030599956 3.8040336 -5.844852e-05 0.020222398 -0.17666474 0.010377558)
(-0.029362435 3.827345 -6.5891243e-05 0.019453091 -0.17723683 0.0099093443)
(-0.027658375 3.853749 -0.00011075714 0.01837898 -0.17695507 0.0092793951)
(-0.025562124 3.8864132 -0.00013774032 0.017071427 -0.17683923 0.0084906973)
(-0.02497562 3.924275 6.4041515e-05 0.016721053 -0.17651218 0.0082545677)
(-0.032722021 3.952506 0.0010583723 0.020954144 -0.17863452 0.011767877)
(-0.04581486 3.950686 -0.0065307271 0.02868583 -0.19102739 0.017129031)
(-0.063005943 3.8851827 -0.010036581 0.0382494 0.15527436 0.024756543)
(-0.057058045 3.7995416 0.0052072779 0.034462059 0.19636482 0.022595987)
(-0.024744503 3.7830863 0.011298459 0.0090653844 -0.15778856 0.015679118)
(0.23394004 4.2911735 -0.0050176462 -0.13529736 -0.22568479 -0.098642685)
(0.41175841 5.4778551 -0.015079625 -0.23960947 0.18801606 -0.17214894)
(0.60907626 8.1859755 0.0022631592 -0.24972079 0.3690065 -0.35935547)
(0.41573151 7.2521914 0.011900117 -0.016557445 -0.11780346 -0.39917407)
(4.0925639 15.886309 0.082642768 8.3036737 1.049183 -12.396238)
(0.30139338 -0.056947422 0.00012740876 -0.16316116 -0.00019527362 -0.13823223)
(-0.47888859 -0.26670267 -0.00072624541 0.053203824 0.00079224264 0.42568477)
(-1.2389731 2.5611866 7.8001552e-05 0.53518479 0.0090411501 0.70378834)
(-1.0578686 3.1608355 0.0018642512 0.50141544 -0.021333879 0.5564532)
(-0.78052281 3.4571977 0.0020678244 0.39295035 -0.067113153 0.38757246)
(-0.52779007 3.5619775 0.00082498937 0.27988551 -0.088680842 0.24790457)
(-0.34894108 3.5707788 5.2244578e-05 0.19224129 -0.099217581 0.15669979)
(-0.24741028 3.5785984 -0.00033998814 0.13830042 -0.10358061 0.10910986)
(-0.19553086 3.6064778 -0.00043195657 0.10929779 -0.10479801 0.086233065)
(-0.16538099 3.6383658 -0.00034105646 0.092410204 -0.10610149 0.072970787)
(-0.14322191 3.6638397 -0.00023906699 0.080246686 -0.10743715 0.062975228)
(-0.12489465 3.6819796 -0.0001749935 0.070295898 -0.10899806 0.054598755)
(-0.10918048 3.6948747 -0.00019743359 0.061767019 -0.11012756 0.047413466)
(-0.095408267 3.7051071 -0.0003007447 0.054235892 -0.11054701 0.041172375)
(-0.083208332 3.7152129 -0.00025418179 0.047472876 -0.11003102 0.035735456)
(-0.072319648 3.7274641 -0.00011904583 0.041350878 -0.11139731 0.030968771)
(-0.062615547 3.7428692 -0.0001848668 0.035828152 -0.1122621 0.026787394)
(-0.054227221 3.762022 -0.00013336381 0.030991018 -0.11197781 0.023236203)
(-0.047206457 3.7845407 -3.6263806e-05 0.02689886 -0.11374391 0.020307598)
(-0.041456677 3.8091701 -0.00011742382 0.023519562 -0.11416099 0.017937114)
(-0.036842885 3.8348179 -0.00019522838 0.020785081 -0.11398528 0.016057804)
(-0.03322568 3.8605345 -0.00015085979 0.018629579 -0.11340114 0.0145961)
(-0.030526943 3.8854704 -7.3638669e-05 0.017012045 -0.1140584 0.013514898)
(-0.028560408 3.9092514 -4.4909062e-05 0.015812506 -0.11421032 0.012747902)
(-0.026942023 3.9327814 -5.2803302e-05 0.014758867 -0.11474837 0.012183156)
(-0.024702609 3.9593663 -0.00010491398 0.013288264 -0.11442991 0.011414345)
(-0.021919235 3.9926836 -0.00014893588 0.011467488 -0.11422168 0.010451747)
(-0.020870886 4.0326768 5.1927329e-05 0.010755907 -0.1138091 0.010114979)
(-0.028933058 4.0658081 0.001186144 0.015164126 -0.11625326 0.013768932)
(-0.043937937 4.0717005 -0.0042292782 0.024166135 -0.13073563 0.019771802)
(-0.063509361 4.0177174 -0.0080608053 0.03545254 0.091444002 0.028056821)
(-0.056827862 3.9437329 0.0028020178 0.031192866 0.13613808 0.025634996)
(-0.012880976 3.9314642 0.0092834765 -0.0019294987 -0.094057308 0.014810474)
(0.26789396 4.3817977 -0.0022903694 -0.16050649 -0.1607033 -0.10738747)
(0.47718031 5.3036284 -0.012438473 -0.28852518 0.10770623 -0.18865514)
(0.57577223 7.6358823 -0.00031639318 -0.24564141 0.26754536 -0.33013082)
(0.094042286 7.0917117 0.0093934202 0.17386326 -0.029304822 -0.26790555)
(3.6868377 15.630208 0.056142035 9.0339313 0.70859771 -12.720769)
(3.3352986 4.5271008 0.0022651209 -1.10156 0.0045246522 -2.2337386)
(-0.37572547 -2.3871193 -0.00066778818 -0.0012554807 -0.0021521706 0.37698096)
(-1.1031991 2.2171095 -0.00027356321 0.42541917 0.0075527168 0.67777989)
(-1.019897 2.9721556 0.0011572419 0.47035747 -0.0093861253 0.54953952)
(-0.78365276 3.3352162 0.0015855495 0.39203474 -0.040457677 0.39161802)
(-0.54944422 3.4939028 0.00075097118 0.29268937 -0.055952236 0.25675485)
(-0.3741355 3.5368847 0.0001255244 0.20842029 -0.063292546 0.16571521)
(-0.26847718 3.5589322 -0.00022683974 0.15223733 -0.066206373 0.11623985)
(-0.21181571 3.5937078 -0.00033190289 0.12015154 -0.066723924 0.091664169)
(-0.17862357 3.632515 -0.0002615609 0.10122953 -0.067484423 0.077394041)
(-0.15468938 3.6653469 -0.00016786679 0.087894571 -0.068408568 0.066794806)
(-0.13516103 3.690211 -0.00010461552 0.077177624 -0.069635484 0.057983407)
(-0.11847951 3.7085233 -0.0001262802 0.06804696 -0.070532391 0.050432554)
(-0.10379895 3.7225485 -0.00023836802 0.059951283 -0.070756924 0.043847672)
(-0.09064971 3.7347586 -0.00021010199 0.052587583 -0.070035327 0.038062127)
(-0.078753167 3.7476549 -7.8693118e-05 0.045812857 -0.071115417 0.03294031)
(-0.068006329 3.7626902 -0.00014126226 0.039601107 -0.071848197 0.028405222)
(-0.058576877 3.7808958 -0.00010369163 0.034065738 -0.071419163 0.02451114)
(-0.050580454 3.8023165 -6.2597899e-06 0.029312257 -0.072953176 0.021268197)
(-0.043961598 3.8259896 -8.1469634e-05 0.025340245 -0.073338749 0.018621353)
(-0.03859882 3.850926 -0.00017124081 0.022094122 -0.073078388 0.016504698)
(-0.034367519 3.876171 -0.00014069256 0.019520207 -0.072388891 0.014847313)
(-0.031192484 3.9007699 -6.5666029e-05 0.017580494 -0.072905111 0.01361199)
(-0.028848174 3.9242044 -3.302198e-05 0.016128246 -0.073026802 0.012719928)
(-0.026823873 3.9471999 -3.8830463e-05 0.014802419 -0.073520823 0.012021454)
(-0.023991417 3.9730051 -9.4587117e-05 0.012926086 -0.07321109 0.011065331)
(-0.020394477 4.0057022 -0.00015607722 0.010535409 -0.072942516 0.0098590679)
(-0.018688621 4.0464642 2.7355949e-05 0.0093432967 -0.072451436 0.0093453244)
(-0.026880095 4.0839821 0.0012356803 0.013785896 -0.074932812 0.013094199)
(-0.043748516 4.0990528 -0.0024257861 0.023971645 -0.090406105 0.019776871)
(-0.065751218 4.0604619 -0.0063526906 0.036813309 0.04992949 0.028937909)
(-0.058632252 4.0024016 0.00096461216 0.032300795 0.095329901 0.026331458)
(-0.0040826955 3.9950567 0.0074734595 -0.00754777 -0.052204155 0.011630465)
(0.29250459 4.3760935 -0.00019527254 -0.17374104 -0.11580371 -0.11876355)
(0.5278849 5.0144227 -0.0099634219 -0.31645828 0.054020393 -0.21142662)
(0.53435473 6.8707648 -0.0020615773 -0.22154091 0.19369408 -0.31281383)
(-0.2262908 6.6527724 0.006918107 0.36149692 0.017391277 -0.13520612)
(2.5599715 14.706058 0.028942932 9.6004115 0.49323986 -12.160383)
(6.2647887 18.277595 0.0059307374 -0.73551487 0.02295718 -5.5292739)
(-0.27510722 -3.4144639 -0.00055648535 -0.049494005 -0.004510937 0.32460123)
(-0.92513905 1.8217097 -0.00046546425 0.28590585 0.0061333899 0.63923319)
(-0.97082083 2.7261615 0.00061051754 0.4305672 -0.0023622975 0.54025363)
(-0.78241055 3.1560608 0.0011623295 0.38718232 -0.023172142 0.39522823)
(-0.57016 3.3686484 0.00066764846 0.30407765 -0.034474038 0.26608235)
(-0.40068319 3.4477692 0.00018123426 0.22502473 -0.039723157 0.17565846)
(-0.29173891 3.4854367 -0.00013160943 0.16743078 -0.041703042 0.12430813)
(-0.23007228 3.5265905 -0.00024796096 0.13223017 -0.041788361 0.097842108)
(-0.19341577 3.5712404 -0.00019952979 0.11101568 -0.042148205 0.082400086)
(-0.1674565 3.6108075 -0.00011507061 0.096349614 -0.042757863 0.071106891)
(-0.14663086 3.6423097 -5.1580009e-05 0.084816583 -0.043717938 0.061814275)
(-0.12896632 3.6662886 -6.7681559e-05 0.075095048 -0.044453147 0.053871276)
(-0.11339294 3.684477 -0.00018136037 0.066471717 -0.044574783 0.046921218)
(-0.099302465 3.6990745 -0.00017261719 0.058540436 -0.043758222 0.040762029)
(-0.086375017 3.712657 -4.9844736e-05 0.051123129 -0.044564611 0.035251888)
(-0.07452117 3.7270698 -0.00010362644 0.044199215 -0.045198721 0.030321955)
(-0.063948069 3.7437855 -8.029637e-05 0.037910163 -0.044703555 0.026037907)
(-0.054849199 3.7633633 1.4708147e-05 0.032417091 -0.04598029 0.022432108)
(-0.047227121 3.7852424 -4.7723918e-05 0.027764052 -0.046366412 0.01946307)
(-0.04098875 3.8086241 -0.00014378957 0.023919857 -0.046082201 0.017068893)
(-0.036034639 3.8326083 -0.00012891543 0.020851378 -0.045347083 0.015183261)
(-0.032301263 3.856177 -5.925902e-05 0.018531605 -0.045715212 0.013769658)
(-0.029524723 3.8786566 -2.2586218e-05 0.016788881 -0.045816327 0.012735842)
(-0.027053075 3.9005096 -2.416718e-05 0.015165083 -0.046260521 0.011887992)
(-0.023556839 3.92474 -8.0030633e-05 0.012838825 -0.045993062 0.010718013)
(-0.01898531 3.955668 -0.00015824891 0.0097669608 -0.04569333 0.0092183487)
(-0.016332829 3.9957939 -6.4427461e-06 0.0078752332 -0.045128353 0.0084575955)
(-0.024313766 4.0367806 0.0012101354 0.012073219 -0.04739766 0.012240547)
(-0.042833642 4.0617068 -0.0010723596 0.023225501 -0.062778971 0.019608142)
(-0.067348693 4.0410859 -0.0048755624 0.037618154 0.023507633 0.029730538)
(-0.060314343 4.0019462 -0.00034929363 0.033264418 0.066842364 0.027049925)
(0.0031390105 4.000715 0.0058490326 -0.011855586 -0.02518122 0.008716575)
(0.30855648 4.3118302 0.0012925823 -0.17993602 -0.083560071 -0.12862046)
(0.56355259 4.6927135 -0.0076885339 -0.33054423 0.019260188 -0.23300836)
(0.49455777 6.0342487 -0.0030903032 -0.19679621 0.13828113 -0.29776156)
(-0.51967224 6.0138323 0.0046573693 0.5211034 0.036172062 -0.0014311542)
(0.83134832 12.572447 0.0049495409 9.3910894 0.32143289 -10.222438)
(4.1228281 18.551574 0.0057899201 1.4899822 0.028413698 -5.6128103)
(-0.14566143 -3.266536 -0.00044059991 -0.16714752 -0.005289499 0.31280895)
(-0.73567293 1.3962262 -0.00053555394 0.14546922 0.0047206117 0.59020371)
(-0.90768063 2.4378067 0.00020315155 0.37929193 0.0014584674 0.52838871)
(-0.77430853 2.9356469 0.0007948602 0.37592285 -0.012098439 0.39838569)
(-0.58816372 3.2020276 0.00057311733 0.31222692 -0.020394303 0.27593679)
(-0.42743754 3.3191902 0.00021866659 0.24075564 -0.024265601 0.18668191)
(-0.31658622 3.3745623 -5.2483334e-05 0.18303219 -0.025658111 0.13355404)
(-0.2499506 3.4221335 -0.00017676444 0.14493136 -0.025503093 0.10501924)
(-0.20943272 3.4715075 -0.00015097439 0.121216 -0.025572069 0.08821672)
(-0.18115954 3.516851 -7.7481951e-05 0.10504063 -0.025934585 0.076118909)
(-0.15891978 3.5545879 -1.3860418e-05 0.092628286 -0.026670006 0.066291494)
(-0.14026388 3.5842968 -2.0979186e-05 0.082331659 -0.027284729 0.057932218)
(-0.12384565 3.6069954 -0.00012952789 0.073243309 -0.027365086 0.050602344)
(-0.10886977 3.6243888 -0.00013986301 0.064816987 -0.026537595 0.044052788)
(-0.094937614 3.6389221 -3.0484841e-05 0.056808946 -0.027083768 0.038128667)
(-0.081954927 3.6527183 -7.1919459e-05 0.049188555 -0.027631352 0.032766373)
(-0.070165208 3.6676446 -6.1871785e-05 0.042120994 -0.02712853 0.028044214)
(-0.059849226 3.6848264 2.7537756e-05 0.035827371 -0.028132358 0.024021855)
(-0.05108893 3.7042021 -1.7484347e-05 0.030411936 -0.028527077 0.020676994)
(-0.043839676 3.7252641 -0.00011380825 0.025883848 -0.028264452 0.017955828)
(-0.03804157 3.7472456 -0.00011522255 0.022241689 -0.027532351 0.015799881)
(-0.033655107 3.7691276 -5.4173717e-05 0.019478842 -0.027749507 0.014176265)
(-0.030386502 3.7900913 -1.4188789e-05 0.017407444 -0.027828501 0.012979059)
(-0.027433808 3.8102711 -9.9495616e-06 0.015469446 -0.028213933 0.011964362)
(-0.023223217 3.8322407 -6.2593855e-05 0.012671562 -0.028006131 0.010551655)
(-0.01752573 3.8603276 -0.00015555946 0.0088266831 -0.027697442 0.0086990465)
(-0.013586279 3.8982923 -4.5964159e-05 0.005991418 -0.027064017 0.0075948611)
(-0.020869473 3.9412581 0.0011194581 0.0095560816 -0.028929912 0.011313392)
(-0.040613344 3.9756503 -9.9773054e-05 0.021270891 -0.043303297 0.019342453)
(-0.067615584 3.9742047 -0.0035900778 0.037097732 0.0072371183 0.030517851)
(-0.06127329 3.955973 -0.0012130101 0.033311844 0.046252481 0.027961445)
(0.0089601171 3.9623558 0.0043894234 -0.015343773 -0.0082071295 0.0063836558)
(0.31585159 4.2092215 0.0022444002 -0.17962492 -0.059452982 -0.13622666)
(0.58113759 4.38396 -0.0056279836 -0.32948896 -0.0019621123 -0.25164863)
(0.45043054 5.2309707 -0.003558956 -0.1652004 0.095729096 -0.28523014)
(-0.78148855 5.2723227 0.0026804361 0.65583248 0.038695006 0.12565607)
(-0.78584238 10.295634 -0.011051348 8.7010607 0.20335944 -7.9152183)
(1.3784009 18.40794 0.0053109058 4.7377461 0.033350382 -6.116147)
(0.0080745012 -2.5015089 -0.00027817664 -0.29632332 -0.0048401919 0.28824882)
(-0.55598076 0.96019259 -0.00052230929 0.022699817 0.0033420206 0.53328094)
(-0.82812667 2.115962 -8.3110458e-05 0.31519144 0.003219918 0.51293523)
(-0.75708696 2.6831789 0.00048208348 0.35670537 -0.0051913878 0.40038159)
(-0.6019989 3.0034933 0.00046796216 0.3161656 -0.011245233 0.2858333)
(-0.45356516 3.1606468 0.00023724359 0.25507892 -0.01419048 0.19848624)
(-0.34277162 3.2365284 1.1571239e-05 0.19894519 -0.015228024 0.14382643)
(-0.27155108 3.2914253 -0.00011576806 0.15844766 -0.014972634 0.11310342)
(-0.22683998 3.3447102 -0.0001122785 0.1320938 -0.014844427 0.094746179)
(-0.19591509 3.3947563 -5.1902184e-05 0.11420025 -0.015014535 0.081714835)
(-0.17210077 3.4381246 1.0640887e-05 0.10081217 -0.015558155 0.071288599)
(-0.15243633 3.4735279 1.4363372e-05 0.089949768 -0.016077501 0.06248656)
(-0.13523786 3.50107 -8.313733e-05 0.080467165 -0.01615712 0.054770693)
(-0.11947291 3.5218053 -0.00011034298 0.071645167 -0.015385128 0.047827746)