y,R_0,R_1,R_2,R_3,R_4,R_5
0.38090681,1.5010844e-06,-1.0667162e-08,7.5605265e-12,1.4913169e-06,-7.3224151e-10,2.8428645e-09
0.38196392,0.00013058458,-6.5364131e-06,5.5088975e-09,0.0001181263,-8.6733215e-08,2.2518155e-07
0.3830212,0.0016995504,-0.00013044749,7.3510312e-09,0.00098377851,-5.8035035e-07,1.8753553e-06
0.38407853,0.0068532266,-0.00051584264,-3.7194775e-07,0.0024880587,-8.6186989e-07,4.7429314e-06
0.38513582,0.013485887,-0.00099061896,-1.255868e-06,0.003636802,-4.2320422e-07,6.9327554e-06
0.38619293,0.018475328,-0.0012996923,-2.3010374e-06,0.004170157,5.4970044e-07,7.9494783e-06
0.38781977,0.020887223,-0.0013986825,-3.1938563e-06,0.0042911367,2.0691616e-06,8.1800992e-06
0.38965657,0.020423486,-0.0013388081,-3.7383536e-06,0.0040918214,3.5187845e-06,7.8001489e-06
0.39172956,0.018052302,-0.0012035284,-4.0204051e-06,0.0036820271,4.3295782e-06,7.0189671e-06
0.39406784,0.01447059,-0.0010084553,-4.0499035e-06,0.0032209325,3.9219763e-06,6.1399925e-06
0.39675555,0.010397285,-0.00077095153,-3.5908455e-06,0.002810654,2.7803107e-06,5.3578877e-06
0.39980767,0.0067684491,-0.000555938,-2.5230486e-06,0.0025177998,1.2942156e-06,4.7996263e-06
0.40324932,0.0043169008,-0.00039795251,-1.4942991e-06,0.0023987258,-1.256252e-06,4.572638e-06
0.40712951,0.003068922,-0.00027543581,-1.0929103e-06,0.0024737402,-3.7261276e-06,4.7156364e-06
0.41157921,0.0025813185,-0.00015009168,-1.1577991e-06,0.0026489825,-4.8804571e-06,5.0496969e-06
0.41663086,0.0024362194,-7.8650045e-06,-1.2024433e-06,0.0028397212,-4.8104908e-06,5.4132978e-06
0.42429,0.0024161399,0.00015442579,-1.0356258e-06,0.0029962444,-3.9943987e-06,5.7116746e-06
0.43259442,0.0024322597,0.00032468411,-9.5252351e-07,0.0030852283,-3.1319859e-06,5.8813027e-06
0.44158154,0.0024552166,0.00049422666,-8.1424431e-07,0.0031024751,-2.1413146e-06,5.9141798e-06
0.4512802,0.0024825727,0.00064799862,-2.2708998e-07,0.0030454864,-1.2008217e-06,5.8055435e-06
0.46177566,0.0025068894,0.00075643486,2.527835e-07,0.0029359464,-8.1902631e-07,5.5967297e-06
0.47317198,0.0025206917,0.00082526759,4.1293693e-07,0.0028229092,-7.6517017e-07,5.3812494e-06
0.48550085,0.0025247804,0.00087046385,4.124185e-07,0.0027323057,-6.700317e-07,5.2085341e-06
0.49884483,0.0025256643,0.00090316185,3.0856272e-07,0.0026627359,-4.9969215e-07,5.0759146e-06
0.5132859,0.0025299089,0.00093303378,1.8586842e-07,0.0026060023,-3.0979276e-07,4.9677647e-06
0.5289387,0.002539682,0.00096370065,7.3640292e-08,0.0025568393,-1.2777548e-07,4.8740463e-06
0.54182828,0.0025514957,0.00098845839,-6.0283904e-09,0.0025228915,-1.237807e-06,4.8093324e-06
0.54585479,0.0025551999,0.00099612569,2.0119683e-08,0.0025121303,-4.1414249e-08,4.7888186e-06
0.56409447,0.0025765456,0.0010306879,9.1176957e-08,0.0024694271,-1.990766e-07,4.7074143e-06
0.58382751,0.0026044161,0.0010682022,1.427881e-07,0.0024262809,-3.3549167e-07,4.6251657e-06
0.60510776,0.0026402429,0.0011093413,1.7334354e-07,0.0023791045,-4.4737275e-07,4.5352345e-06
0.62804061,0.0026860585,0.001154456,1.8241676e-07,0.0023240826,-5.3144608e-07,4.4303475e-06
0.65272386,0.0027449731,0.0012035439,1.7166474e-07,0.0022570176,-5.8422552e-07,4.3025029e-06
0.6792546,0.0028209211,0.0012555183,1.4681737e-07,0.0021745496,-6.0300849e-07,4.1452959e-06
0.70584588,0.0029179717,0.0013078209,1.1728718e-07,0.0020784776,-5.8863381e-07,3.9621561e-06
0.73070742,0.0030432319,0.0013592171,9.1964078e-08,0.0019746942,-5.4647557e-07,3.764316e-06
0.75393887,0.0032078319,0.0014112206,7.6098821e-08,0.0018700237,-4.6821215e-07,3.5647849e-06
0.77564073,0.0034208483,0.0014671596,7.4919847e-08,0.0017766071,-3.4548151e-07,3.3867069e-06
0.79591105,0.0036895817,0.0015310318,3.7522469e-08,0.0017082944,-1.7636749e-07,3.2564839e-06
0.81484397,0.0040142359,0.0015927728,-5.2149404e-08,0.0016806582,6.7218339e-09,3.2038016e-06
0.83252713,0.0043974552,0.0016461683,-9.6584778e-08,0.0016999302,1.3217047e-07,3.2405394e-06
0.84904337,0.0048401345,0.0016995073,-1.0681579e-07,0.001764125,2.1517093e-07,3.3629126e-06
0.86446967,0.0053229749,0.0017506665,-1.255533e-07,0.001876657,2.6864333e-07,3.5774298e-06
0.87887809,0.0058236184,0.001794803,-1.4142123e-07,0.0020329766,2.816748e-07,3.8754184e-06
0.8923358,0.0063224659,0.001830331,-1.5587716e-07,0.0022213485,2.6689423e-07,4.2345076e-06
0.9049054,0.00680082,0.001855301,-1.6683314e-07,0.0024287271,2.3034428e-07,4.6298289e-06
0.91664538,0.0072467885,0.0018691019,-1.6999279e-07,0.0026405302,1.7910926e-07,5.0335845e-06
0.92761034,0.0076576436,0.0018707036,-1.626801e-07,0.0028397458,1.191901e-07,5.4133448e-06
0.93785127,0.0080423713,0.001864308,-1.4211851e-07,0.0030153539,5.8700928e-08,5.7481026e-06
0.9474158,0.0084319337,0.0018580799,-1.0736474e-07,0.0031482718,5.2547235e-09,6.0014811e-06
0.95634846,0.0087909097,0.0018405327,-6.5781716e-08,0.0032585136,-2.0749147e-08,6.2116326e-06
0.96226084,0.0091319923,0.0018311164,-2.5086171e-08,0.0033293981,-2.3784435e-08,6.3467582e-06
0.96749482,0.0095233622,0.001848106,1.6177566e-08,0.0033476013,-1.3555312e-08,6.3814586e-06
0.97212815,0.0099652445,0.0018768604,5.532502e-08,0.0033527737,1.5236493e-08,6.3913185e-06
0.97622967,0.010451751,0.0019174263,9.0057335e-08,0.0033499309,5.9093492e-08,6.3858994e-06
0.97986036,0.010951741,0.0019649341,1.1821645e-07,0.003344319,1.111867e-07,6.3752015e-06
0.98307422,0.011409243,0.0020107041,1.3789325e-07,0.003325344,1.6082324e-07,6.3390299e-06
0.98591907,0.011710283,0.0020288854,1.470525e-07,0.0032627938,1.9708688e-07,6.2197919e-06
0.98843724,0.011632799,0.001992263,1.4453001e-07,0.0031446621,2.1337576e-07,5.9946e-06
0.99066623,0.01084486,0.0018641713,1.2922038e-07,0.0029096159,2.0508482e-07,5.5465365e-06
0.99263923,0.0088280805,0.0015170478,9.7403812e-08,0.0025277213,1.7517188e-07,4.8185393e-06
0.99392092,0.0057806074,0.00096081693,5.6695521e-08,0.0019914122,1.338189e-07,3.7961851e-06
0.99520266,0.0025755449,0.00039163346,2.1399524e-08,0.0011886605,7.7964559e-08,2.2659172e-06
0.99648445,0.00054911398,6.5019007e-05,3.5219698e-09,0.00038956401,2.5590259e-08,7.4261728e-07
0.99776631,3.9334842e-05,1.8794986e-06,1.2934576e-10,3.7716484e-05,2.8746892e-09,7.1898102e-08
0.99904822,4.1583611e-07,2.185336e-09,2.4926405e-13,4.1486944e-07,4.5253379e-11,7.9085647e-10
