0.2158351985 	1.392247614e-07 	-1.610063827e-09 	1.46413167e-11 	1.361530674e-07 	-1.033844758e-09 	2.595455882e-10
0.2158351985 	1.392247614e-07 	-1.610063827e-09 	1.46413167e-11 	1.361530674e-07 	-1.033844758e-09 	2.595455882e-10
0.2173898312 	1.804271528e-05 	-1.674328132e-06 	1.536932038e-08 	1.5037595e-05 	-1.267486352e-07 	2.866583555e-08
0.218944359 	0.000256916285 	-4.820671356e-05 	3.214722901e-07 	0.0001696775892 	-1.308702811e-06 	3.234526445e-07
0.2204983132 	0.0009190380419 	-0.0002015092616 	8.75486923e-07 	0.0005671348406 	-3.269607376e-06 	1.081116633e-06
0.22205123 	0.001642504685 	-0.0003783773319 	9.260906331e-07 	0.00102841288 	-4.894087153e-06 	1.960440782e-06
0.2236026504 	0.002103188848 	-0.0005055398433 	5.753660327e-07 	0.001427649018 	-7.400953725e-06 	2.721495823e-06
0.2259870383 	0.002243063626 	-0.0005452857336 	-1.787762471e-07 	0.001833488854 	-1.105869175e-05 	3.495139348e-06
0.2286733807 	0.002108907123 	-0.0004631403527 	-5.812897329e-07 	0.002250331689 	-1.209320395e-05 	4.289757646e-06
0.2316959752 	0.001935799922 	-0.0003502277095 	-2.449034403e-07 	0.002612968515 	-9.694223216e-06 	4.981044227e-06
0.2350910569 	0.001803652261 	-0.000262191689 	7.018146895e-08 	0.002837622846 	-6.466354753e-06 	5.409297822e-06
0.2389916993 	0.001706400158 	-0.000192058379 	3.868736786e-07 	0.002902294152 	-3.907802972e-06 	5.532579304e-06
0.2434078721 	0.001628453787 	-0.0001409261256 	6.41639246e-07 	0.002860760723 	-2.475427313e-06 	5.453405045e-06
0.2483623539 	0.001560235864 	-0.0001120401213 	6.83518957e-07 	0.00277718641 	-1.64429213e-06 	5.294089177e-06
0.2539168455 	0.001499228285 	-9.765048511e-05 	5.591422433e-07 	0.002686145571 	-1.063858136e-06 	5.120540034e-06
0.2602735202 	0.001445905779 	-9.030330802e-05 	3.467172394e-07 	0.002603433149 	-5.69658131e-07 	4.962867169e-06
0.2674522301 	0.001395969707 	-8.432973808e-05 	9.320229004e-08 	0.002528678345 	-1.326735151e-07 	4.820363736e-06
0.2701019815 	0.00138448433 	-8.219236009e-05 	3.567240448e-08 	0.002512561202 	-1.663521065e-06 	4.789639981e-06
0.277968411 	0.00134965465 	-7.679935729e-05 	2.301413649e-07 	0.002459972561 	-3.689645819e-07 	4.689391415e-06
0.2892151638 	0.00131371969 	-6.996462343e-05 	5.661223279e-07 	0.00240731836 	-7.774256267e-07 	4.589017873e-06
0.3013211162 	0.001288749876 	-6.483586404e-05 	9.405473087e-07 	0.0023732846 	-1.10403048e-06 	4.524140067e-06
0.3143027377 	0.001271986186 	-5.999599196e-05 	1.349978491e-06 	0.002354263836 	-1.356357097e-06 	4.487881205e-06
0.3282678633 	0.001261991773 	-5.428756541e-05 	1.796318813e-06 	0.002348161813 	-1.550415926e-06 	4.476249053e-06
0.3433513408 	0.001257290039 	-4.698551979e-05 	2.278793364e-06 	0.00235305779 	-1.690355417e-06 	4.485582146e-06
0.359565347 	0.001257366709 	-3.749894775e-05 	2.653255075e-06 	0.002368375925 	-1.706003863e-06 	4.514782769e-06
0.3770029629 	0.001261247 	-2.515007392e-05 	2.328839862e-06 	0.002392585891 	-1.311632907e-06 	4.560933694e-06
0.3957533827 	0.001268596524 	-9.34070023e-06 	1.974084549e-06 	0.00242506063 	-9.942341229e-07 	4.622839572e-06
0.4159554384 	0.001278965856 	1.066767507e-05 	1.593513565e-06 	0.002464664937 	-7.417528181e-07 	4.698336388e-06
0.4376602607 	0.001291949344 	3.537656266e-05 	1.199370723e-06 	0.002509837104 	-5.386131386e-07 	4.784447093e-06
0.4609443107 	0.001307425963 	6.525845984e-05 	8.09265704e-07 	0.002558992083 	-3.717018913e-07 	4.878150145e-06
0.4859777749 	0.00132510418 	0.0001009176963 	4.444992325e-07 	0.002609565711 	-2.209410214e-07 	4.974557537e-06
0.5128005118 	0.001345191486 	0.0001435927568 	1.314835862e-07 	0.00265868653 	-7.543766848e-08 	5.06819547e-06
0.5281619985 	0.001357385699 	0.0001711456538 	7.279195327e-07 	0.002682079424 	-1.967804267e-06 	5.112788828e-06
0.5414840545 	0.001368304215 	0.0001942964582 	7.602673758e-08 	0.002701819494 	-7.44076815e-08 	5.150418887e-06
0.5721687136 	0.001394712116 	0.0002539921064 	1.731994337e-07 	0.00273372303 	-2.094707739e-07 	5.211235895e-06
0.6050359512 	0.001423574622 	0.0003208935544 	1.912536812e-07 	0.002747066997 	-3.087484616e-07 	5.236673203e-06
0.637884791 	0.00145277268 	0.00038781052 	1.502237365e-07 	0.002735797259 	-3.534756494e-07 	5.215189951e-06
0.6685342863 	0.001482029981 	0.0004458699566 	9.900509724e-08 	0.002697408513 	-3.268740797e-07 	5.142010332e-06
0.6971361319 	0.001512464252 	0.0004884473333 	8.507895445e-08 	0.002632180026 	-2.238397701e-07 	5.017666707e-06
0.7238334956 	0.001540726293 	0.0005185684534 	9.233412431e-08 	0.002552870858 	-1.144526467e-07 	4.866481389e-06
0.7487597886 	0.001564815531 	0.0005409662518 	9.04623613e-08 	0.002470897487 	-4.92244985e-08 	4.710217361e-06
0.7720389899 	0.001585230496 	0.0005602031147 	7.781229385e-08 	0.002392585905 	-1.553845115e-08 	4.560933719e-06
0.7937834623 	0.001602774412 	0.0005814726565 	5.558250045e-08 	0.002324154891 	-1.819747774e-09 	4.430485188e-06
0.8140976249 	0.001620172469 	0.0006048589633 	3.118343937e-08 	0.00226612128 	2.374768342e-09 	4.319856995e-06
0.8330771917 	0.001639928638 	0.0006281425998 	1.157696496e-08 	0.002218002434 	2.516248598e-09 	4.228129101e-06
0.8508109857 	0.001664086926 	0.0006482414001 	7.1404276e-10 	0.002179001035 	1.691269122e-09 	4.153781595e-06
0.8673812119 	0.001694529888 	0.000666402533 	-1.889669467e-09 	0.002150716588 	8.502410049e-10 	4.099863577e-06
0.8789729725 	0.001724429137 	0.000678494865 	4.522986755e-08 	0.0021377992 	-5.993021631e-07 	4.075239445e-06
0.8828624254 	0.001734477432 	0.0006825471531 	-4.118097554e-10 	0.002133443542 	1.239901421e-09 	4.066936351e-06
0.897323651 	0.00178930088 	0.0006993788642 	-3.024783958e-09 	0.002129519703 	6.998443406e-09 	4.059456422e-06
0.9108370337 	0.001865781101 	0.0007227590253 	-1.460674518e-09 	0.002145683771 	1.768526996e-08 	4.090269629e-06
0.9234642351 	0.0019706235 	0.0007551398086 	3.972996241e-09 	0.00219010241 	3.44774131e-08 	4.1749439e-06
0.9352628795 	0.002107680571 	0.0007984617222 	1.132330669e-08 	0.002270866331 	5.463324009e-08 	4.328902382e-06
0.9462868468 	0.002259300297 	0.0008476591379 	1.641629088e-08 	0.002377675867 	6.820581181e-08 	4.532511044e-06
0.9535860031 	0.002393315726 	0.0008918685001 	1.514197507e-08 	0.002480559282 	6.36382658e-08 	4.728635428e-06
0.9600493528 	0.002499845352 	0.0009269818874 	8.504568586e-09 	0.002563668036 	4.411192122e-08 	4.88706381e-06
0.9657723032 	0.002575533468 	0.0009512781342 	-2.219689002e-09 	0.002619594689 	1.256992721e-08 	4.993675556e-06
0.9708394384 	0.002608789132 	0.0009603040344 	-1.441426902e-08 	0.002635072519 	-2.394980673e-08 	5.023180603e-06
0.9753257253 	0.0025898008 	0.0009503345744 	-2.550739451e-08 	0.002599240657 	-5.823096089e-08 	4.954875114e-06
0.9792976023 	0.00250625546 	0.0009170263759 	-3.363503018e-08 	0.002499899197 	-8.477975875e-08 	4.76550268e-06
0.9828139396 	0.002338759321 	0.0008544917423 	-3.792464385e-08 	0.002319049983 	-1.025010324e-07 	4.420753815e-06
0.9859268946 	0.002056109874 	0.0007500213859 	-4.390904773e-08 	0.002027759321 	-1.175797483e-07 	3.865472853e-06
0.9886826718 	0.001624119809 	0.0005901916192 	-4.866172234e-08 	0.001594293015 	-1.284785108e-07 	3.039165597e-06
0.9911221987 	0.001089289326 	0.000394515984 	-4.351766862e-08 	0.001065558331 	-1.179307688e-07 	2.031250335e-06
0.9927070693 	0.0005830716024 	0.0001986769488 	-2.908886518e-08 	0.0005711817123 	-8.041288058e-08 	1.088831095e-06
0.9942921068 	0.0002173065274 	5.823169538e-05 	-1.093229154e-08 	0.0002147535206 	-3.403335744e-08 	4.093798979e-07
0.9958773114 	4.305606375e-05 	6.510209569e-06 	-1.049682512e-09 	4.289444366e-05 	-5.925514971e-09 	8.176873151e-08
0.997462683 	3.062444753e-06 	1.420181569e-07 	-5.604278805e-12 	3.056722177e-06 	-1.959550192e-10 	5.826962041e-09
0.9990482216 	2.673094067e-08 	1.233398003e-10 	2.67942227e-14 	2.668010007e-08 	2.726312281e-12 	5.085968608e-11
