0.4709558481 	9.144932353e-08 	-4.990641438e-10 	9.017769959e-15 	9.127522839e-08 	-1.200417761e-12 	1.739959539e-10
0.4720092239 	7.513172633e-06 	-3.672475482e-07 	6.777866078e-12 	7.498762193e-06 	-9.866785014e-11 	1.429472491e-08
0.4730625996 	8.755312343e-05 	-1.39134399e-05 	2.536194457e-10 	8.738957258e-05 	-1.14463898e-09 	1.66588814e-07
0.4741159754 	0.0004063745869 	-0.0001211504739 	2.00051764e-09 	0.0004056636563 	-5.084630944e-09 	7.733076772e-07
0.4751693511 	0.001075059865 	-0.0004430778366 	6.149240466e-09 	0.001072972413 	-1.201263657e-08 	2.045383637e-06
0.4762227269 	0.002066001679 	-0.000947295098 	9.652275785e-09 	0.002061442744 	-1.919889412e-08 	3.929682819e-06
0.4778443634 	0.003215585446 	-0.001494266707 	1.168160126e-08 	0.003208346596 	-2.476875299e-08 	6.116000326e-06
0.4796765386 	0.004241999306 	-0.001974128597 	1.329191029e-08 	0.004232551534 	-2.774162038e-08 	8.0684196e-06
0.4817465869 	0.004996093489 	-0.002324455299 	1.33010424e-08 	0.00498457518 	-2.757097375e-08 	9.501985685e-06
0.4840853915 	0.005503909642 	-0.002557228878 	1.18533179e-08 	0.005490331594 	-2.455170093e-08 	1.046609798e-05
0.4867278453 	0.005813523428 	-0.002699987469 	9.105745996e-09 	0.005797883172 	-1.855970744e-08 	1.105237676e-05
0.4897133715 	0.005964600081 	-0.002769548804 	4.868306629e-09 	0.005946867948 	-9.298457972e-09 	1.133638315e-05
0.4930865115 	0.005988501719 	-0.002780093275 	-9.608823232e-10 	0.005968613186 	3.391096291e-09 	1.137783562e-05
0.4968975894 	0.005905466345 	-0.002740932378 	-8.581293718e-09 	0.005883343494 	1.991717716e-08 	1.121528789e-05
0.5012034633 	0.005725179524 	-0.002656559701 	-1.843433716e-08 	0.00570076714 	4.122569852e-08 	1.086724661e-05
0.506068373 	0.005420029548 	-0.002514125811 	-3.252595548e-08 	0.005393196574 	7.164656977e-08 	1.028093163e-05
0.5134203412 	0.004931534078 	-0.002286564805 	-5.346282522e-08 	0.004902522602 	1.167950018e-07 	9.345570665e-06
0.5212948542 	0.004278791091 	-0.001983033652 	-7.934367565e-08 	0.004248960911 	1.724188878e-07 	8.099700435e-06
0.529729052 	0.003542159939 	-0.001641135359 	-1.002013418e-07 	0.003513820806 	2.172254806e-07 	6.698319073e-06
0.5387627144 	0.002812433776 	-0.001303005476 	-1.02816997e-07 	0.002787549447 	2.226185361e-07 	5.313844005e-06
0.5484384488 	0.002186203808 	-0.001000741481 	-1.152090053e-07 	0.002165675594 	1.901470734e-07 	4.1283796e-06
0.5588018907 	0.001713757579 	-0.0007125927436 	-1.125726207e-07 	0.001699082808 	1.35742669e-07 	3.238924067e-06
0.5699019192 	0.001408930706 	-0.000458310489 	-8.002447941e-08 	0.001401351975 	7.204909318e-08 	2.671366349e-06
0.5817908876 	0.001255714784 	-0.0002677594306 	-6.355818248e-08 	0.001255393816 	1.903315573e-08 	2.393129533e-06
0.5945248701 	0.0012076967 	-0.0001093457631 	-5.939691449e-08 	0.001215259479 	-1.556157455e-08 	2.316622331e-06
0.6081639266 	0.001216783145 	3.129488947e-05 	-5.786037733e-08 	0.001232382648 	-3.721280253e-08 	2.34926385e-06
0.6227723857 	0.001251869407 	0.000154246002 	-5.435123241e-08 	0.001274836888 	-5.36038959e-08 	2.430193432e-06
0.638419148 	0.001298581068 	0.0002608822655 	-4.722537334e-08 	0.001328165216 	-6.759599275e-08 	2.531852046e-06
0.6551780116 	0.001350377731 	0.0003536321211 	-3.523533681e-08 	0.001385911697 	-7.86398545e-08 	2.641932889e-06
0.6731280194 	0.001403752648 	0.0004349237416 	-7.065640912e-09 	0.001444511484 	-8.45082015e-08 	2.753640369e-06
0.6923538328 	0.001457519795 	0.0005000200795 	-9.623765944e-09 	0.001501084848 	-8.18260193e-08 	2.861484926e-06
0.7129461301 	0.001511969595 	0.0005526510823 	-2.708524168e-08 	0.001554115117 	-6.367880095e-08 	2.962575356e-06
0.7350020349 	0.001564886372 	0.0006146168205 	-1.519410313e-08 	0.001604562743 	-3.401294492e-08 	3.058742554e-06
0.7570579485 	0.001613262943 	0.0006819748042 	-1.322342944e-08 	0.001653334542 	-8.372669679e-09 	3.151715158e-06
0.7776502527 	0.001659721638 	0.0007337687185 	-3.708562228e-08 	0.0017008794 	5.751003149e-09 	3.242348871e-06
0.7968760713 	0.001710911532 	0.0007615416323 	-6.597122721e-08 	0.001750654949 	1.130854049e-08 	3.337234902e-06
0.814826083 	0.001774620798 	0.0007816144077 	-7.132267262e-08 	0.001809152645 	1.525931581e-08 	3.44874777e-06
0.831584949 	0.001857909639 	0.0008198841968 	-5.167375066e-08 	0.001884129125 	2.456669109e-08 	3.591673778e-06
0.8472317127 	0.001967010716 	0.0008818645319 	-1.602069259e-08 	0.001984211943 	4.423706129e-08 	3.782459446e-06
0.8618401721 	0.002110939471 	0.0009698082012 	2.382856354e-08 	0.002119460752 	7.31890644e-08 	4.040281267e-06
0.8754792281 	0.002301623806 	0.001070639082 	5.19030861e-08 	0.002302019352 	1.070587269e-07 	4.388288698e-06
0.8882132094 	0.00255272547 	0.001185608369 	6.768054735e-08 	0.002545699886 	1.425252102e-07 	4.852811524e-06
0.9001021759 	0.00287258308 	0.00133277304 	8.171390332e-08 	0.002859047742 	1.736143445e-07 	5.450139628e-06
0.9112022019 	0.003254440334 	0.001509128957 	8.955547315e-08 	0.003235859174 	1.910084662e-07 	6.168446945e-06
0.9215656407 	0.003673046436 	0.001703023626 	8.846769107e-08 	0.003651287999 	1.890842829e-07 	6.96036975e-06
0.9312413717 	0.004093020679 	0.001897990594 	7.977965271e-08 	0.004069935513 	1.707458856e-07 	7.758428269e-06
0.9402750304 	0.004484242075 	0.002079947725 	6.73719407e-08 	0.004461410992 	1.44301761e-07 	8.504689337e-06
0.9487092242 	0.00482523486 	0.002238804017 	5.408118994e-08 	0.004803767645 	1.158425723e-07 	9.15731627e-06
0.9565837329 	0.005097458289 	0.002365839057 	4.143528056e-08 	0.005078008 	8.86960318e-08 	9.680094607e-06
0.9639356968 	0.005270697451 	0.002446887449 	3.112155799e-08 	0.005253421709 	6.65321582e-08 	1.001448189e-05
0.9688006083 	0.005345417574 	0.002482053118 	2.394822315e-08 	0.005329986396 	5.111307327e-08 	1.016043546e-05
0.9731064834 	0.005350521316 	0.002484769402 	1.885052478e-08 	0.005336564817 	4.01611334e-08 	1.017297576e-05
0.976917562 	0.005288885944 	0.002456418367 	1.489059369e-08 	0.005276207175 	3.166667465e-08 	1.005791732e-05
0.9802907021 	0.005148724739 	0.00239155292 	1.181889309e-08 	0.00513719711 	2.509922807e-08 	9.792925502e-06
0.9832762282 	0.004909710274 	0.002280828439 	9.461842106e-09 	0.004899287362 	2.009784764e-08 	9.339403399e-06
0.9859186816 	0.004543832876 	0.00211162801 	7.624524844e-09 	0.004534559484 	1.627766064e-08 	8.644130692e-06
0.9882574856 	0.004019039453 	0.001869904194 	6.107148611e-09 	0.004011052286 	1.312967279e-08 	7.646180471e-06
0.990327533 	0.003303196547 	0.001536722266 	4.797564423e-09 	0.003296478489 	1.027608489e-08 	6.284004208e-06
0.9921597073 	0.002397721015 	0.001113877237 	3.494304792e-09 	0.002392609535 	7.430546583e-09 	4.560978765e-06
0.9937813429 	0.00145297345 	0.0006494517628 	1.964121784e-09 	0.001450029245 	4.568775122e-09 	2.764158757e-06
0.9948347186 	0.0007085064165 	0.0002673232504 	7.133352622e-10 	0.0007072486487 	2.23427718e-09 	1.348212494e-06
0.9958880943 	0.0002558260932 	6.653838226e-05 	1.670750255e-10 	0.0002553770676 	8.044644706e-10 	4.868196692e-07
0.9969414701 	5.398544021e-05 	7.160261924e-06 	1.585368965e-11 	5.388319838e-05 	1.682726135e-10 	1.027163522e-07
0.9979948458 	4.608108671e-06 	1.846407486e-07 	3.441563392e-13 	4.599293254e-06 	1.428254464e-11 	8.76753125e-09
0.9990482216 	6.14637321e-08 	2.738568237e-10 	4.128050606e-16 	6.134675782e-08 	1.901888083e-13 	1.169439709e-10
0.9990482216 	6.14637321e-08 	2.738568237e-10 	4.128050606e-16 	6.134675782e-08 	1.901888083e-13 	1.169439709e-10
