0.4709558481 	9.282143295e-08 	-5.098284566e-10 	1.094972747e-14 	9.264471835e-08 	-1.375027064e-12 	1.766065824e-10
0.4709558481 	9.282143295e-08 	-5.098284566e-10 	1.094972747e-14 	9.264471835e-08 	-1.375027064e-12 	1.766065824e-10
0.4720092239 	7.625918331e-06 	-3.751797889e-07 	8.037093225e-12 	7.611281013e-06 	-1.129659562e-10 	1.450921706e-08
0.4730625996 	8.885908234e-05 	-1.420499157e-05 	2.942643134e-10 	8.869263449e-05 	-1.307745495e-09 	1.690728122e-07
0.4741159754 	0.0004121567402 	-0.0001234166793 	2.278359987e-09 	0.0004114290712 	-5.779167924e-09 	7.842981604e-07
0.4751693511 	0.001088671219 	-0.0004499572807 	6.889400479e-09 	0.001086520202 	-1.35515887e-08 	2.071209487e-06
0.4762227269 	0.002087659251 	-0.0009580466231 	1.0722136e-08 	0.002082959094 	-2.145496872e-08 	3.970698961e-06
0.4778443634 	0.003243266327 	-0.001507140088 	1.276972371e-08 	0.003235787087 	-2.724324052e-08 	6.168309528e-06
0.4796765386 	0.004272686799 	-0.001988475169 	1.414411891e-08 	0.004262852404 	-2.99223974e-08 	8.12618148e-06
0.4817465869 	0.00502652937 	-0.002338634857 	1.388530216e-08 	0.005014443695 	-2.93137806e-08 	9.558923375e-06
0.4840853915 	0.005531402444 	-0.002569905256 	1.231884777e-08 	0.005517060489 	-2.604098258e-08 	1.051705068e-05
0.4867278453 	0.005835416441 	-0.002709971765 	9.599572369e-09 	0.005818792656 	-2.017393607e-08 	1.109223605e-05
0.4897133715 	0.005977961556 	-0.002775497774 	5.595160933e-09 	0.005959011766 	-1.148866691e-08 	1.135953265e-05
0.4930865115 	0.005990076151 	-0.002780500664 	1.520389206e-10 	0.005968730579 	3.124958105e-10 	1.137805941e-05
0.4968975894 	0.005891453273 	-0.002734038091 	-6.974345688e-09 	0.005867644246 	1.574143656e-08 	1.118536076e-05
0.5012034633 	0.005690965406 	-0.002640234032 	-1.612257682e-08 	0.005664676888 	3.55180718e-08 	1.079844856e-05
0.506068373 	0.005357461861 	-0.00248461025 	-2.878674295e-08 	0.0053286466 	6.284377211e-08 	1.015788144e-05
0.5134203412 	0.004829021212 	-0.002238544947 	-4.614281011e-08 	0.004798123384 	1.002019509e-07 	9.146556739e-06
0.5212948542 	0.004131021085 	-0.001914134975 	-6.475883552e-08 	0.00409977394 	1.400876784e-07 	7.815308603e-06
0.529729052 	0.003362594121 	-0.001557647448 	-7.634445495e-08 	0.003333409553 	1.648150414e-07 	6.354405082e-06
0.5387627144 	0.002634365346 	-0.001220273639 	-7.369070157e-08 	0.002609011095 	1.588516576e-07 	4.973500284e-06
0.5484384488 	0.002037307866 	-0.0009121793144 	-7.658308223e-08 	0.002017278762 	1.281812283e-07 	3.845493993e-06
0.5588018907 	0.001609465988 	-0.000625970575 	-7.483780527e-08 	0.001596208259 	8.519509888e-08 	3.042816585e-06
0.5699019192 	0.001356527276 	-0.0003941839797 	-5.604366106e-08 	0.001350489751 	3.935652975e-08 	2.574408815e-06
0.5817908876 	0.001246077605 	-0.0002162813153 	-4.497306983e-08 	0.001247637267 	3.451935743e-09 	2.378343394e-06
0.5945248701 	0.001223622286 	-6.324780867e-05 	-4.03696684e-08 	0.001233358361 	-1.642808685e-08 	2.35112383e-06
0.6081639266 	0.001244326334 	7.190283128e-05 	-3.530271179e-08 	0.001261938761 	-2.309341818e-08 	2.405606015e-06
0.6227723857 	0.001283843444 	0.000189526239 	-3.141848419e-08 	0.001308517069 	-2.315357667e-08 	2.494397216e-06
0.638419148 	0.001331598105 	0.0002929459803 	-3.160796878e-08 	0.001362443355 	-2.03964795e-08 	2.597195706e-06
0.6551780116 	0.001382786207 	0.0003853017731 	-3.674008006e-08 	0.001418815994 	-1.701204298e-08 	2.704657624e-06
0.6731280194 	0.00143485385 	0.0004683521794 	-4.741853923e-08 	0.001475149659 	-1.474970989e-08 	2.812045247e-06
0.6923538328 	0.001486194337 	0.0005431791965 	-6.131814439e-08 	0.001529983968 	-1.559175147e-08 	2.91657468e-06
0.7129461301 	0.001536198102 	0.0006062625878 	-6.749731928e-08 	0.001582128788 	-2.02763993e-08 	3.015977201e-06
0.7350020349 	0.001584126207 	0.0006600092855 	-5.536914707e-08 	0.001630556265 	-2.51923064e-08 	3.10829343e-06
0.7570579485 	0.001628500796 	0.0007087043375 	-3.183811962e-08 	0.001674729774 	-2.519705688e-08 	3.192500417e-06
0.7776502527 	0.001670475999 	0.000747113613 	-7.287138512e-09 	0.001715871469 	-1.962311454e-08 	3.270927922e-06
0.7968760713 	0.001714786804 	0.0007760061964 	2.119663029e-09 	0.001757706916 	-1.041574776e-08 	3.35067791e-06
0.814826083 	0.00176775205 	0.0007993681508 	2.353915739e-09 	0.001805627703 	2.065642839e-09 	3.44202825e-06
0.831584949 	0.00183637853 	0.00082862533 	8.812120823e-09 	0.001866877709 	1.70032697e-08 	3.558787785e-06
0.8472317127 	0.001928063323 	0.00087639415 	1.58670004e-08 	0.001950043559 	3.284255203e-08 	3.717325011e-06
0.8618401721 	0.002051802196 	0.0009473903729 	2.36397966e-08 	0.002064907459 	4.984016154e-08 	3.936287528e-06
0.8754792281 	0.002219384628 	0.001033316504 	3.262761201e-08 	0.002223718259 	6.920887776e-08 	4.239025052e-06
0.8882132094 	0.002444812962 	0.001136160738 	4.291761319e-08 	0.002440862932 	9.140057597e-08 	4.652963151e-06
0.9001021759 	0.002739028752 	0.001271199274 	5.375596881e-08 	0.002727696131 	1.149301391e-07 	5.199746949e-06
0.9112022019 	0.003101963026 	0.001438547004 	6.279093307e-08 	0.003084713863 	1.347147043e-07 	5.880321975e-06
0.9215656407 	0.003515597531 	0.001629934685 	6.663156166e-08 	0.003494347845 	1.433636789e-07 	6.661198196e-06
0.9312413717 	0.003945647371 	0.001829433903 	6.390349144e-08 	0.003922398403 	1.378368905e-07 	7.47718153e-06
0.9402750304 	0.004356699958 	0.002020514941 	5.626101399e-08 	0.004333262817 	1.216302112e-07 	8.260403297e-06
0.9487092242 	0.004721651211 	0.002190466065 	4.613997702e-08 	0.004699379551 	9.995727775e-08 	8.958323549e-06
0.9565837329 	0.00501810784 	0.002328767783 	3.545329e-08 	0.004997859568 	7.69459669e-08 	9.52730942e-06
0.9639356968 	0.005211801596 	0.002419355675 	2.620894973e-08 	0.005193862447 	5.695986976e-08 	9.900945383e-06
0.9688006083 	0.005301029119 	0.00246130408 	1.955387807e-08 	0.005285100332 	4.252731805e-08 	1.007487015e-05
0.9731064834 	0.005316522865 	0.002468886003 	1.475404843e-08 	0.005302218193 	3.209926256e-08 	1.010750155e-05
0.976917562 	0.005262951086 	0.002444315412 	1.102120305e-08 	0.005250051288 	2.398318745e-08 	1.000805693e-05
0.9802907021 	0.005128968734 	0.002382350421 	8.168180757e-09 	0.005117319873 	1.778026619e-08 	9.755033963e-06
0.9832762282 	0.004894543085 	0.002273789298 	6.063278049e-09 	0.004884071343 	1.322005844e-08 	9.310397437e-06
0.9859186816 	0.00453200039 	0.002106188782 	4.540055717e-09 	0.004522724883 	9.98095771e-09 	8.621570653e-06
0.9882574856 	0.004009772502 	0.001865706009 	3.391540098e-09 	0.0040018068 	7.58361519e-09 	7.628556005e-06
0.990327533 	0.003296072144 	0.00153347893 	2.564865483e-09 	0.003289384741 	5.688337019e-09 	6.270481553e-06
0.9921597073 	0.002392597597 	0.001111503822 	1.864388503e-09 	0.002387514532 	4.023422735e-09 	4.551266273e-06
0.9937813429 	0.001449847247 	0.0006481647601 	9.591030939e-10 	0.001446919155 	2.41116053e-09 	2.75823006e-06
0.9948347186 	0.0007070009852 	0.0002669025476 	2.657494109e-10 	0.000705748951 	1.132623035e-09 	1.345353653e-06
0.9958880943 	0.0002552870805 	6.64422536e-05 	5.547281802e-11 	0.0002548396909 	3.997830403e-10 	4.857952799e-07
0.9969414701 	5.387245571e-05 	7.151143573e-06 	4.828508002e-12 	5.377050019e-05 	8.354491351e-11 	1.025015181e-07
0.9979948458 	4.598486994e-06 	1.844331669e-07 	1.063615554e-13 	4.589691306e-06 	7.129597475e-12 	8.749227269e-09
0.9990482216 	6.133545273e-08 	2.735855788e-10 	1.382521708e-16 	6.121872336e-08 	9.515053083e-14 	1.166999016e-10
