0 	0.01426485265 	-9.687961615e-16 	-3.521317628e-22 	6.579570258e-29 	2.391499642e-35 	8.69246822e-42
0.001897455474 	0.01425565317 	-2.937468514e-05 	-1.357387169e-07 	0.01712727603 	-9.778834516e-06 	3.26493484e-05
0.003794892374 	0.01425622467 	-0.0001765431353 	4.465131002e-08 	0.01728079722 	-9.963586506e-06 	3.294200244e-05
0.005692310628 	0.0142674952 	-0.0002796591428 	1.107640059e-07 	0.0173035562 	-9.856614942e-06 	3.298538739e-05
0.007589710222 	0.01427323988 	-0.0003756335772 	1.555300399e-07 	0.01732270653 	-9.739247891e-06 	3.302189324e-05
0.009487091198 	0.01428481624 	-0.0004829999163 	1.989082376e-07 	0.01733480986 	-9.598705714e-06 	3.304496556e-05
0.01240800929 	0.01430441637 	-0.0006202237336 	2.504705713e-07 	0.01735280075 	-9.37883537e-06 	3.307926119e-05
0.01570810102 	0.01433433211 	-0.00078479335 	3.108885764e-07 	0.01738208778 	-9.141628207e-06 	3.31350904e-05
0.01943658229 	0.01437673032 	-0.0009710732786 	3.757684188e-07 	0.01742221531 	-8.880838929e-06 	3.321158464e-05
0.02367094077 	0.01443554569 	-0.001181434256 	4.430885668e-07 	0.01747679349 	-8.589687828e-06 	3.331562582e-05
0.02846027043 	0.01451567509 	-0.001418527458 	5.117911877e-07 	0.01755005059 	-8.270522407e-06 	3.34552742e-05
0.03387129226 	0.01462309513 	-0.001685601108 	5.813131911e-07 	0.0176471279 	-7.921901987e-06 	3.364033054e-05
0.03998469373 	0.01476542759 	-0.001986315393 	6.498278436e-07 	0.01777435657 	-7.540330756e-06 	3.388286374e-05
0.04692959072 	0.01495208045 	-0.002325076875 	7.145577417e-07 	0.01793925467 	-7.115232438e-06 	3.419720536e-05
0.05477825357 	0.01519346893 	-0.002704945917 	7.715508784e-07 	0.01815044769 	-6.647943819e-06 	3.459979794e-05
0.06366252918 	0.01553422054 	-0.003170814727 	8.283247151e-07 	0.01844414381 	-6.140108963e-06 	3.515966439e-05
0.07713370694 	0.01602931143 	-0.00376179822 	8.472279777e-07 	0.01886356772 	-5.347360339e-06 	3.595920294e-05
0.09161486344 	0.01665911091 	-0.00442514658 	8.29786686e-07 	0.01938543461 	-4.50711745e-06 	3.695402626e-05
0.1071709409 	0.0173844905 	-0.005113386541 	7.548604648e-07 	0.01996796614 	-3.590752026e-06 	3.806449327e-05
0.1238870721 	0.01818562925 	-0.005817557292 	6.121146052e-07 	0.02058484933 	-2.583697865e-06 	3.924044408e-05
0.1418521582 	0.01902654668 	-0.006520424052 	3.896845751e-07 	0.02119144272 	-1.481929634e-06 	4.039677968e-05
0.1611593353 	0.01982921974 	-0.007198233097 	8.849556984e-08 	0.02171634042 	-3.006666099e-07 	4.139738059e-05
0.1663236545 	0.01998344584 	-0.007354767795 	3.327972275e-06 	0.02179970941 	-2.705380215e-05 	4.155630505e-05
0.1819064892 	0.02044954966 	-0.00782837141 	3.225993484e-07 	0.02205316576 	-9.892524668e-07 	4.203946329e-05
0.2041968131 	0.02077296286 	-0.008346240543 	8.093976154e-07 	0.02206754472 	-2.233435947e-06 	4.206687359e-05
0.2281394077 	0.02066099912 	-0.008648896993 	1.298128534e-06 	0.02158112261 	-3.214800538e-06 	4.113961786e-05
0.2538499191 	0.01984292806 	-0.008605375831 	1.636243202e-06 	0.02034506365 	-3.645467455e-06 	3.878334594e-05
0.2814521981 	0.01796521748 	-0.008023894781 	1.578925017e-06 	0.01805660966 	-3.1713576e-06 	3.442091659e-05
0.3110878587 	0.01465205074 	-0.006673460595 	8.743435473e-07 	0.01442934551 	-1.59853296e-06 	2.750634297e-05
0.3428858929 	0.009824187915 	-0.004428780983 	-1.782707738e-07 	0.009502996179 	4.057235623e-07 	1.811535194e-05
0.3770024796 	0.004833292382 	-0.002011863368 	-4.394403835e-07 	0.004617151554 	9.324323375e-07 	8.801574132e-06
0.4135933852 	0.001991551278 	-0.0006375801129 	-1.198104756e-08 	0.001892978572 	1.246056778e-07 	3.608543284e-06
0.4528269635 	0.001255806654 	-0.0002205207124 	1.718096892e-07 	0.001186994287 	-1.40033348e-07 	2.262741019e-06
0.4948837842 	0.001140888847 	-4.049663776e-05 	2.244212125e-07 	0.001057008697 	4.056713776e-09 	2.014952357e-06
0.5369652409 	0.001187003147 	8.106788223e-05 	2.419835899e-07 	0.001080544905 	9.557943632e-08 	2.05981891e-06
0.5762689992 	0.001284219326 	0.0001809966953 	2.56082521e-07 	0.001156765391 	1.503718356e-07 	2.205116341e-06
0.6129728545 	0.001401939965 	0.0002691645601 	2.764488887e-07 	0.001253831651 	1.938968312e-07 	2.390151612e-06
0.647245611 	0.001534274502 	0.0003596588372 	2.8890661e-07 	0.001366734394 	2.404577745e-07 	2.605375618e-06
0.6792465651 	0.001686542411 	0.0004584944245 	2.867221773e-07 	0.001502227234 	2.906878135e-07 	2.863662631e-06
0.7091254687 	0.001867312973 	0.0005647095781 	2.722076532e-07 	0.001670350867 	3.463903062e-07 	3.184153002e-06
0.7370223283 	0.002088979954 	0.0006813794085 	2.731812872e-07 	0.001882084024 	4.103773966e-07 	3.587775247e-06
0.7630684005 	0.002365512751 	0.0008106645042 	2.193961494e-07 	0.002151008193 	4.864449962e-07 	4.100419457e-06
0.7873862966 	0.002716428625 	0.0009509799434 	1.822020894e-07 	0.002497770181 	5.983725879e-07 	4.761444183e-06
0.8100905866 	0.0031736444 	0.00111931275 	2.458608075e-07 	0.002948101539 	7.647181211e-07 	5.619900915e-06
0.8312882979 	0.003755204158 	0.001331495996 	3.247767086e-07 	0.003514674898 	9.776990514e-07 	6.699947209e-06
0.8510793781 	0.004444816756 	0.00158150308 	4.100011671e-07 	0.004183174548 	1.215122648e-06 	7.974293342e-06
0.8695571553 	0.005199104068 	0.001853514 	4.810120621e-07 	0.004914404521 	1.419011115e-06 	9.368220906e-06
0.8868087717 	0.00595191306 	0.002124250665 	5.02238478e-07 	0.005647729014 	1.487939016e-06 	1.076614121e-05
0.9029155904 	0.006612399301 	0.002362616737 	4.370361358e-07 	0.006298471201 	1.319172306e-06 	1.200663668e-05
0.9179535776 	0.007069310135 	0.00253004833 	2.770199886e-07 	0.00676143775 	8.899403818e-07 	1.28891796e-05
0.931993659 	0.00721925129 	0.002589083848 	7.43940372e-08 	0.006934120473 	3.420518014e-07 	1.321836086e-05
0.9412842046 	0.007101670666 	0.002552078478 	-9.906081225e-08 	0.006847185715 	-1.295042014e-07 	1.305263905e-05
0.9495071555 	0.006819424156 	0.002455164113 	-2.262084698e-07 	0.006597451501 	-4.786325583e-07 	1.257657623e-05
0.9567851912 	0.006413493409 	0.00231308984 	-3.115432603e-07 	0.006225104701 	-7.189475292e-07 	1.186677974e-05
0.9632268937 	0.005924822691 	0.002140339115 	-3.514174158e-07 	0.005768468199 	-8.411188772e-07 	1.099630365e-05
0.9689283675 	0.005385908279 	0.001948353571 	-3.480489597e-07 	0.005257613314 	-8.50989121e-07 	1.002247225e-05
0.973974674 	0.004815986583 	0.001743903631 	-3.093582423e-07 	0.004710207298 	-7.689935188e-07 	8.978964244e-06
0.9784410995 	0.004216793502 	0.001527636544 	-2.473959843e-07 	0.004127851874 	-6.252559942e-07 	7.868832948e-06
0.9823942794 	0.003568930903 	0.001292575649 	-1.759229122e-07 	0.003492002067 	-4.528812212e-07 	6.656726492e-06
0.9858931917 	0.002827201403 	0.001022847309 	-1.086234591e-07 	0.002761079124 	-2.851667983e-07 	5.263384212e-06
0.9889900372 	0.001966248319 	0.0006875906689 	-3.054020914e-08 	0.001920753755 	-1.429928808e-07 	3.661490502e-06
0.991001674 	0.001100795392 	0.0003379749076 	2.181187143e-08 	0.001081733405 	-4.529429308e-08 	2.062084521e-06
0.9930133109 	0.0004248164831 	9.851873657e-05 	1.656604713e-08 	0.000420884032 	-5.463352624e-09 	8.023219437e-07
0.9950249478 	8.293533551e-05 	9.946949223e-06 	3.1289395e-09 	8.267871638e-05 	1.728325202e-10 	1.576086128e-07
0.9970365847 	5.35742217e-06 	1.641645983e-07 	7.83263797e-11 	5.347181865e-06 	1.061194848e-11 	1.019321481e-08
0.9990482216 	3.799634138e-08 	8.95021781e-11 	5.866249904e-14 	3.792412069e-08 	1.407330787e-13 	7.229391449e-11
0.9990482216 	3.799634138e-08 	8.95021781e-11 	5.866249904e-14 	3.792412069e-08 	1.407330788e-13 	7.229391449e-11
