0.3524915403 	1.740541248e-07 	-1.727677971e-09 	-1.942458911e-13 	1.726113647e-07 	1.079158415e-10 	3.290452359e-10
0.3536068642 	1.561957129e-05 	-1.334472024e-06 	8.260396662e-10 	1.47369867e-05 	2.506465894e-09 	2.809279259e-08
0.3547223496 	0.0001926987503 	-4.576940658e-05 	3.265104612e-08 	0.0001630097029 	2.081695912e-08 	3.107418e-07
0.3558378442 	0.0008605103456 	-0.0003072014187 	8.876575399e-08 	0.0006623263445 	2.018329025e-07 	1.262578097e-06
0.3569531967 	0.001951704515 	-0.000767168094 	-9.618073224e-08 	0.001457895845 	8.746616468e-07 	2.779154681e-06
0.3580682569 	0.003139556842 	-0.001289883643 	-5.139922967e-07 	0.002310429713 	2.359984092e-06 	4.404321184e-06
0.35978394 	0.003965724267 	-0.001720235313 	-1.993707671e-06 	0.00286465211 	4.976780838e-06 	5.460823111e-06
0.361720438 	0.003896651142 	-0.001697332539 	-3.815999595e-06 	0.002821414612 	7.273668121e-06 	5.378400422e-06
0.3639049575 	0.003211435012 	-0.001326906918 	-4.004312832e-06 	0.002392389484 	6.99748001e-06 	4.560559287e-06
0.3663674413 	0.002547078242 	-0.001006187262 	-2.810807484e-06 	0.001972100412 	3.875986812e-06 	3.759371503e-06
0.36920096 	0.002117805087 	-0.000757341738 	-1.903386324e-06 	0.00177926883 	-2.799647489e-07 	3.391780912e-06
0.3724184949 	0.001886394957 	-0.0005289635789 	-1.622847568e-06 	0.001820779393 	-3.302920296e-06 	3.470911582e-06
0.3760438857 	0.001775404573 	-0.0003457406413 	-1.238454163e-06 	0.0019969247 	-4.689640305e-06 	3.806693494e-06
0.3801277765 	0.00171439192 	-0.0002007079253 	-8.902280341e-07 	0.002217570263 	-4.958049441e-06 	4.227305264e-06
0.3848143963 	0.00167027598 	-8.296166211e-05 	-6.577032128e-07 	0.002432491916 	-4.693098332e-06 	4.637005668e-06
0.3901331779 	0.001627590544 	2.922832846e-05 	-5.4364874e-07 	0.002616208622 	-3.535198223e-06 	4.987220771e-06
0.3981914987 	0.00158478496 	0.0001422448178 	-2.861868219e-07 	0.002714701129 	-1.860723592e-06 	5.174974863e-06
0.4069277984 	0.001549441455 	0.000231028913 	1.437595833e-08 	0.002718809861 	-1.039205273e-06 	5.182807249e-06
0.4163791821 	0.001522446658 	0.0002836068561 	1.880545056e-07 	0.002692107397 	-7.142535939e-07 	5.131904931e-06
0.4265723647 	0.001501394366 	0.0003114625658 	2.194344185e-07 	0.002667372077 	-4.957890602e-07 	5.084752536e-06
0.4375983103 	0.001485043816 	0.0003279857838 	1.625103991e-07 	0.002650801664 	-3.10103904e-07 	5.053164724e-06
0.4495688352 	0.001472760238 	0.0003422679865 	7.857733053e-08 	0.002642220919 	-1.391463764e-07 	5.036807439e-06
0.4609124074 	0.001465136794 	0.0003556296579 	1.72937181e-08 	0.00264053199 	-3.907980457e-07 	5.03358787e-06
0.4625033521 	0.001464048535 	0.0003574981823 	1.063269294e-08 	0.002640235812 	-1.872774239e-08 	5.033023274e-06
0.4764361663 	0.001458249562 	0.0003741177576 	9.637517439e-08 	0.002643447968 	-1.643310935e-07 	5.039146535e-06
0.4915177733 	0.001454886219 	0.0003921809717 	1.797177574e-07 	0.002651170481 	-2.998480669e-07 	5.053867791e-06
0.5078705597 	0.001453381935 	0.0004115230429 	2.584231551e-07 	0.002662370694 	-4.264486069e-07 	5.07521851e-06
0.5255559403 	0.001453129014 	0.0004320196667 	3.295487234e-07 	0.002675734436 	-5.437985722e-07 	5.100693517e-06
0.5446528007 	0.001453541215 	0.00045359091 	3.901772915e-07 	0.002689871129 	-6.513943479e-07 	5.127641983e-06
0.5653073198 	0.001454068135 	0.0004763687284 	4.371908643e-07 	0.002703012289 	-7.481799511e-07 	5.152692687e-06
0.5875706324 	0.00145427245 	0.0005007218638 	4.662661682e-07 	0.002712775303 	-8.315933926e-07 	5.171303703e-06
0.6115522574 	0.001453714242 	0.0005267678734 	4.734505908e-07 	0.002716440813 	-8.984721586e-07 	5.178291186e-06
0.6373531822 	0.001451752953 	0.0005542619187 	4.564791048e-07 	0.002710505114 	-9.430702782e-07 	5.166976093e-06
0.6650736862 	0.001447943611 	0.0005825156695 	4.168484113e-07 	0.002691041101 	-9.577696561e-07 	5.129872275e-06
0.6928473989 	0.001442538325 	0.0006096716295 	3.613518902e-07 	0.002656801158 	-9.394756528e-07 	5.064601427e-06
0.7188076063 	0.001436708927 	0.000634142704 	3.008607222e-07 	0.002610706925 	-8.940887292e-07 	4.976733008e-06
0.7430616173 	0.001431960112 	0.0006560343708 	2.431794432e-07 	0.002556236073 	-8.279190144e-07 	4.872896424e-06
0.7657166274 	0.001429675933 	0.0006760219897 	1.918030068e-07 	0.002496290438 	-7.47329978e-07 	4.758623383e-06
0.7868765632 	0.001430960937 	0.0006945116747 	1.484295474e-07 	0.002434065913 	-6.585165594e-07 	4.640006143e-06
0.8066407466 	0.001436574265 	0.0007117571226 	1.139075564e-07 	0.002372811284 	-5.674375115e-07 	4.523237796e-06
0.825101173 	0.001447078034 	0.0007280791293 	8.818910338e-08 	0.002315469824 	-4.788267075e-07 	4.413929036e-06
0.8423446134 	0.001463047224 	0.0007439861532 	7.056287107e-08 	0.002264485851 	-3.950598296e-07 	4.316739414e-06
0.8584514973 	0.001485310848 	0.0007602191501 	6.0459148e-08 	0.002221884466 	-3.168250896e-07 	4.235529332e-06
0.8734970175 	0.001515401131 	0.0007778781751 	5.760316627e-08 	0.002189353157 	-2.440388838e-07 	4.173515616e-06
0.8875511498 	0.001556112466 	0.000798549257 	6.112553378e-08 	0.002168367603 	-1.75931563e-07 	4.133511318e-06
0.900679109 	0.001611596191 	0.0008241891254 	6.876881353e-08 	0.002160680951 	-1.112012669e-07 	4.118858423e-06
0.9129417823 	0.001686496887 	0.0008567386134 	7.691739078e-08 	0.002169182595 	-4.991405314e-08 	4.135064919e-06
0.9243960038 	0.001784207673 	0.0008976452064 	8.088911888e-08 	0.002198286208 	2.459311335e-09 	4.190544494e-06
0.9350948531 	0.001904640856 	0.0009472570122 	7.469395609e-08 	0.002252045902 	3.142427831e-08 	4.293025412e-06
0.9450879208 	0.002041485783 	0.001003528744 	5.182833636e-08 	0.00232878646 	1.695744144e-08 	4.439314246e-06
0.954421548 	0.002169655914 	0.001056218513 	1.43108411e-08 	0.002408932762 	-4.260704527e-08 	4.592095373e-06
0.9605997311 	0.002265482917 	0.001095000558 	-2.29654398e-08 	0.002469128912 	-1.14938474e-07 	4.706845965e-06
0.9660692856 	0.002331976997 	0.001120491641 	-4.857334239e-08 	0.002505016696 	-1.693719503e-07 	4.775258056e-06
0.9709113578 	0.002374269409 	0.001134431515 	-5.815914534e-08 	0.002516996975 	-1.917612394e-07 	4.798095797e-06
0.9751978312 	0.002389132916 	0.00113528776 	-4.938231421e-08 	0.002501333769 	-1.724599704e-07 	4.768237374e-06
0.9789923751 	0.002369200814 	0.001120039076 	-2.559066898e-08 	0.002451883625 	-1.172214663e-07 	4.673971655e-06
0.9823513805 	0.00229846238 	0.00108277962 	9.785898916e-09 	0.002354758995 	-4.70409442e-08 	4.488825117e-06
0.9853247881 	0.002148563185 	0.00101215311 	3.160346388e-08 	0.002183364569 	1.031013822e-09 	4.162099704e-06
0.987956823 	0.001876680634 	0.0008817659645 	1.549182164e-08 	0.001895510947 	-6.142056894e-09 	3.613370696e-06
0.9902866465 	0.001453199487 	0.0006786086499 	-1.777488861e-08 	0.001461523743 	-5.281658918e-08 	2.786070463e-06
0.9923489342 	0.0009478529711 	0.0004414775425 	-3.42200369e-08 	0.0009507048359 	-7.874576753e-08 	1.812307652e-06
0.993688642 	0.0004982730679 	0.0002176482856 	-2.812204132e-08 	0.0004989661552 	-6.118683628e-08 	9.511681723e-07
0.9950284246 	0.0001874665593 	6.355326437e-05 	-1.203926123e-08 	0.0001874797572 	-2.62799626e-08 	3.573885246e-07
0.9963682821 	3.879734076e-05 	7.42405574e-06 	-1.400914647e-09 	3.875363388e-05 	-4.066123571e-09 	7.387519718e-08
0.9977082144 	2.992792178e-06 	1.809169373e-07 	-1.047212795e-11 	2.987625311e-06 	4.622923131e-11 	5.695244211e-09
0.9990482216 	3.086025233e-08 	1.994655949e-10 	6.157661278e-14 	3.080145634e-08 	8.990467584e-12 	5.871613661e-11
0.9990482216 	3.086025233e-08 	1.994655949e-10 	6.157661278e-14 	3.080145634e-08 	8.990467584e-12 	5.871613661e-11
