0.4709558481 	1.156672779e-07 	-7.094180214e-10 	6.695754887e-14 	1.154469802e-07 	-6.597377124e-12 	2.200740311e-10
0.4709558481 	1.156672779e-07 	-7.094180214e-10 	6.695754887e-14 	1.154469802e-07 	-6.597377124e-12 	2.200740311e-10
0.4720092239 	9.502777893e-06 	-5.212340074e-07 	4.890493944e-11 	9.484441877e-06 	-5.419851324e-10 	1.807998228e-08
0.4730625996 	0.0001105355212 	-1.947987445e-05 	1.740292254e-09 	0.0001103254691 	-6.240189929e-09 	2.103110074e-07
0.4741159754 	0.0005065693097 	-0.0001628403305 	1.253089074e-08 	0.0005056075542 	-2.657457293e-08 	9.638285246e-07
0.4751693511 	0.00130387304 	-0.0005611516754 	2.809459532e-08 	0.001300878418 	-5.78707983e-08 	2.479835826e-06
0.4762227269 	0.002416901838 	-0.001122454723 	4.10781125e-08 	0.002410461956 	-8.794719947e-08 	4.595010441e-06
0.4778443634 	0.00364634988 	-0.001695951019 	5.064552646e-08 	0.003635988668 	-1.05438035e-07 	6.931204973e-06
0.4796765386 	0.004695044835 	-0.002189518808 	5.075406984e-08 	0.004680377952 	-9.963418815e-08 	8.922101221e-06
0.4817465869 	0.00540719139 	-0.002519660028 	3.641041271e-08 	0.005387668292 	-6.772276589e-08 	1.027039319e-05
0.4840853915 	0.005813425933 	-0.002701713308 	7.55154658e-09 	0.00578864908 	-8.574036887e-09 	1.103477402e-05
0.4867278453 	0.005954936655 	-0.002764333186 	-3.53268703e-08 	0.005924493608 	8.288459139e-08 	1.129373144e-05
0.4897133715 	0.005858882664 	-0.002718002122 	-9.562078013e-08 	0.005822806387 	2.132659359e-07 	1.109988734e-05
0.4930865115 	0.005547301125 	-0.002572320765 	-1.74114812e-07 	0.005506241615 	3.835297302e-07 	1.04964269e-05
0.4968975894 	0.005036455928 	-0.002334862061 	-2.653108936e-07 	0.004991970212 	5.808760114e-07 	9.516082671e-06
0.5012034633 	0.004348464338 	-0.002015911726 	-3.509043087e-07 	0.004303527983 	7.635949543e-07 	8.20372044e-06
0.506068373 	0.003471242681 	-0.001609354359 	-3.960967446e-07 	0.003429865761 	8.552203254e-07 	6.538277423e-06
0.5134203412 	0.002555492436 	-0.001183658099 	-3.460445192e-07 	0.002520603613 	7.394734109e-07 	4.804971052e-06
0.5212948542 	0.001889726744 	-0.0007945522805 	-2.896161571e-07 	0.001864666632 	4.45401266e-07 	3.554572859e-06
0.529729052 	0.001552313359 	-0.0004891846625 	-2.392071387e-07 	0.001538565511 	1.616724463e-07 	2.932933486e-06
0.5387627144 	0.001442354801 	-0.0002829909531 	-1.785654933e-07 	0.001438705651 	-1.319659646e-08 	2.742572839e-06
0.5484384488 	0.001439351263 	-0.0001089538087 	-1.592744785e-07 	0.001446176895 	-9.196310534e-08 	2.756815106e-06
0.5588018907 	0.001474292186 	4.059416885e-05 	-1.396455862e-07 	0.00149168877 	-1.198530719e-07 	2.84357339e-06
0.5699019192 	0.001520885763 	0.0001682427623 	-1.237128097e-07 	0.001548092982 	-1.286613013e-07 	2.951095493e-06
0.5817908876 	0.001569681573 	0.0002797092027 	-1.134531689e-07 	0.001606019941 	-1.297359203e-07 	3.061520378e-06
0.5945248701 	0.001616896968 	0.0003785460832 	-1.059665875e-07 	0.001661550956 	-1.27152715e-07 	3.167377926e-06
0.6081639266 	0.001660597223 	0.0004663023171 	-9.901728371e-08 	0.001712693432 	-1.224061771e-07 	3.2648697e-06
0.6227723857 	0.001699488547 	0.0005433878259 	-9.12323849e-08 	0.001758119738 	-1.159490369e-07 	3.351464864e-06
0.638419148 	0.001732560373 	0.0006097125859 	-8.188596673e-08 	0.00179672502 	-1.079219452e-07 	3.425057261e-06
0.6551780116 	0.001759020202 	0.0006651240767 	-7.072753036e-08 	0.00182756535 	-9.843987086e-08 	3.483847503e-06
0.6731280194 	0.001778365759 	0.0007097353753 	-5.793947415e-08 	0.001849952502 	-8.771084079e-08 	3.526523636e-06
0.6923538328 	0.001790518185 	0.000744181093 	-4.414341781e-08 	0.001863623055 	-7.608369694e-08 	3.552583511e-06
0.7129461301 	0.001795968297 	0.0007697854865 	-3.035943025e-08 	0.001868927712 	-6.402142222e-08 	3.562695661e-06
0.7350020349 	0.001795940379 	0.0007882346316 	-1.801547035e-08 	0.001867087782 	-5.219457538e-08 	3.559188242e-06
0.7570579485 	0.001792705056 	0.0008013743215 	-8.571985353e-09 	0.001860702637 	-4.144821618e-08 	3.547016381e-06
0.7776502527 	0.001789032489 	0.0008114133216 	-2.511813362e-09 	0.001853106882 	-3.219925803e-08 	3.532536761e-06
0.7968760713 	0.001787041714 	0.0008201311631 	7.663839065e-10 	0.001846835392 	-2.421177884e-08 	3.520581559e-06
0.814826083 	0.001788099283 	0.0008283670941 	2.234660955e-09 	0.001843472746 	-1.708231026e-08 	3.51417142e-06
0.831584949 	0.001793271593 	0.0008368696711 	4.082999189e-09 	0.001844091037 	-1.031367044e-08 	3.515350055e-06
0.8472317127 	0.001803689764 	0.0008467136423 	3.393998389e-09 	0.001849574436 	-3.311827861e-09 	3.525802937e-06
0.8618401721 	0.001820667329 	0.0008562494696 	3.499836884e-09 	0.001860965248 	5.139129722e-09 	3.547516991e-06
0.8754792281 	0.001845841067 	0.0008666153034 	8.858875192e-09 	0.001880076912 	1.668349061e-08 	3.583949135e-06
0.8882132094 	0.001881861303 	0.0008819449835 	1.672354566e-08 	0.001909801154 	3.340545258e-08 	3.6406118e-06
0.9001021759 	0.001933503746 	0.0009043944456 	2.887484534e-08 	0.001954632665 	5.89287979e-08 	3.726073122e-06
0.9112022019 	0.0020090605 	0.0009376983907 	4.800926983e-08 	0.002022351962 	9.912853966e-08 	3.855164924e-06
0.9215656407 	0.00212218933 	0.0009881506855 	7.795792543e-08 	0.002126388265 	1.627171534e-07 	4.053487033e-06
0.9312413717 	0.002293770075 	0.001065568016 	1.225419113e-07 	0.002288084528 	2.584225441e-07 	4.36172505e-06
0.9402750304 	0.002550265922 	0.001182510134 	1.814031298e-07 	0.00253493379 	3.856305856e-07 	4.832288353e-06
0.9487092242 	0.002915387436 	0.001350328073 	2.447615958e-07 	0.002891762959 	5.230761882e-07 	5.512503923e-06
0.9565837329 	0.003387618417 	0.001568722194 	2.881645504e-07 	0.003358169745 	6.182346931e-07 	6.401604889e-06
0.9639356968 	0.003874777771 	0.001795022194 	2.873584194e-07 	0.003843006807 	6.191128769e-07 	7.325839082e-06
0.9688006083 	0.004259152269 	0.001974144408 	2.526929427e-07 	0.004228244038 	5.468488806e-07 	8.060208316e-06
0.9731064834 	0.004524620954 	0.002098253306 	2.068494844e-07 	0.004496432167 	4.493265124e-07 	8.571449429e-06
0.976917562 	0.004680931893 	0.002171828391 	1.597104409e-07 	0.004656396217 	3.481650299e-07 	8.876385369e-06
0.9802907021 	0.004710026543 	0.002186483121 	1.18983452e-07 	0.004689465941 	2.605118772e-07 	8.939425453e-06
0.9832762282 	0.004593534302 	0.002133974872 	8.738057497e-08 	0.004576834058 	1.930741812e-07 	8.724717779e-06
0.9859186816 	0.004313201445 	0.002006664449 	6.357870579e-08 	0.004299966879 	1.439168484e-07 	8.196931985e-06
0.9882574856 	0.003849819282 	0.001795174374 	4.658677441e-08 	0.003839577835 	1.080387652e-07 	7.319302508e-06
0.990327533 	0.003179524186 	0.001481406216 	3.609085381e-08 	0.003171762869 	8.136174129e-08 	6.046261575e-06
0.9921597073 	0.002311791694 	0.001073948624 	2.705152307e-08 	0.002306359149 	5.841591362e-08 	4.396561558e-06
0.9937813429 	0.001402805775 	0.0006301047996 	1.455921563e-08 	0.001399780617 	3.560876129e-08 	2.668370904e-06
0.9948347186 	0.0006857933113 	0.0002630190953 	4.612942475e-09 	0.0006845117923 	1.708794003e-08 	1.304869726e-06
0.9958880943 	0.0002479880473 	6.579905096e-05 	1.06941288e-09 	0.0002475420093 	6.138370214e-09 	4.718838705e-07
0.9969414701 	5.236164003e-05 	7.111114203e-06 	1.06404309e-10 	5.226191213e-05 	1.292896092e-09 	9.962572997e-08
0.9979948458 	4.46975114e-06 	1.837445876e-07 	2.634096512e-12 	4.461191121e-06 	1.104017809e-10 	8.5042702e-09
0.9990482216 	5.961786522e-08 	2.728169794e-10 	3.822910156e-15 	5.950439801e-08 	1.472825904e-12 	1.13431921e-10
