0.2472849305 	0.07691961633 	0.0230412029 	-0.0001787313941
0.2487094669 	0.295570812 	0.08718538097 	-0.0006483243799
0.2501340182 	0.5645531745 	0.165435013 	-0.001146577518
0.2515582136 	0.790046759 	0.2307312691 	-0.001444598188
0.2529816857 	0.9589256642 	0.2784767299 	-0.001533486656
0.2544040707 	1.083418748 	0.3122238148 	-0.001470456151
0.2565908305 	1.167634382 	0.332887263 	-0.001308241159
0.2590557457 	1.208164908 	0.3399946325 	-0.00114896964
0.2618311143 	1.224172597 	0.3396737125 	-0.001021009572
0.2649514479 	1.231095923 	0.3363230144 	-0.0009032096278
0.2685402304 	1.234695591 	0.331458789 	-0.0007811899227
0.2726074998 	1.236789925 	0.3255071622 	-0.0006543691413
0.2771758575 	1.237970363 	0.3186528201 	-0.0005259623708
0.2823040561 	1.238490969 	0.3109675581 	-0.000397771742
0.28818069 	1.238554445 	0.3024876735 	-0.0002688259771
0.2948278042 	1.238211621 	0.2924277882 	-0.0001417656252
0.3039520189 	1.23770256 	0.2811347557 	-7.136389848e-05
0.3048289965 	1.237588581 	0.2800440808 	-1.146540958e-05
0.3153909723 	1.235904562 	0.2667471505 	-0.0001307446073
0.3267808322 	1.233949076 	0.253398795 	-0.0002287579735
0.3390183242 	1.231758524 	0.2400295608 	-0.0003041822142
0.3522090375 	1.229327857 	0.2266877745 	-0.000357121451
0.3664845753 	1.226627034 	0.2134074229 	-0.0003881570648
0.3818620373 	1.22361543 	0.2002573703 	-0.0003979955053
0.3984348019 	1.220239215 	0.1872921184 	-0.0003731645079
0.4162929946 	1.216435345 	0.1745382209 	-0.0002620791307
0.4355739439 	1.21213734 	0.1620224984 	-0.0001751733357
0.4563323823 	1.207286806 	0.1497835685 	-0.0001102945433
0.4786466123 	1.201831568 	0.1378478061 	-6.443214099e-05
0.5026835755 	1.195719087 	0.1262201539 	-3.405216091e-05
0.5284859607 	1.188892871 	0.1149180954 	-1.565600765e-05
0.5561749938 	1.181257275 	0.1039511868 	-5.78758546e-06
0.5858631148 	1.172666555 	0.09330332989 	-1.379321945e-06
0.6176648077 	1.163114023 	0.08313235945 	1.61967742e-08
0.6494508416 	1.152973584 	0.07387996552 	1.849049857e-07
0.6791106475 	1.142692144 	0.06581054042 	1.672209179e-07
0.7067905922 	1.132389579 	0.05880081428 	3.019446068e-07
0.7326288344 	1.122006636 	0.05264686859 	6.177064951e-07
0.7567541468 	1.111466199 	0.04719620117 	1.042695984e-06
0.7792862258 	1.100684061 	0.04232823794 	1.481301518e-06
0.8003336001 	1.089588961 	0.03795512354 	1.868400909e-06
0.8199971472 	1.078117967 	0.03400635768 	2.161367436e-06
0.8383693647 	1.066200233 	0.03042016816 	2.338884381e-06
0.8555361083 	1.053754327 	0.0271437366 	2.395572875e-06
0.8715768547 	1.040693126 	0.02413622812 	2.336900918e-06
0.8865654396 	1.026877485 	0.0213678675 	2.181761828e-06
0.9005706783 	1.011990691 	0.01881033007 	1.957715431e-06
0.913656745 	0.9954185029 	0.0164365938 	1.664994755e-06
0.9258835601 	0.976147399 	0.01421967728 	1.294039232e-06
0.9373071183 	0.9527110393 	0.01213152409 	8.561167982e-07
0.9479797699 	0.9255967527 	0.01028081068 	4.045598027e-07
0.9550458569 	0.8982398988 	0.008803104967 	6.966321008e-09
0.9613025204 	0.8705497333 	0.007568882982 	-3.306749062e-07
0.9668422226 	0.8404446522 	0.006436373125 	-6.315026463e-07
0.9717469214 	0.8078030823 	0.005395039206 	-8.813622965e-07
0.9760892456 	0.7720515598 	0.00443820732 	-1.069483603e-06
0.9799335525 	0.7319671059 	0.00356270046 	-1.185995356e-06
0.9833368611 	0.6855770396 	0.002769421937 	-1.218899802e-06
0.9863496834 	0.630111739 	0.002064885506 	-1.159400196e-06
0.9890167622 	0.5622368501 	0.001456906119 	-1.01268684e-06
0.9913777266 	0.4847756913 	0.000992593101 	-8.17306131e-07
0.9929115363 	0.4060868505 	0.0006645879817 	-6.150878255e-07
0.9944454907 	0.3215824579 	0.0003880419575 	-4.00469111e-07
0.9959795897 	0.224484815 	0.0001627674 	-1.997993544e-07
0.9975138333 	0.1170806672 	-2.09154626e-05 	-9.022877888e-08
0.9990482216 	0.03407222758 	-6.318781637e-05 	-3.69598863e-08
0.9990482216 	0.03407222758 	-6.318781637e-05 	-3.69598863e-08
