1.218267812e-35 	0.5139383066 	-3.493680881e-14 	1.416588639e-18
0.00190503019 	0.5139500193 	-0.0001864873525 	2.508908433e-07
0.003810043283 	0.5140027601 	-0.0003483554542 	4.625115655e-07
0.005715039211 	0.5141086466 	-0.0005126124509 	6.694263003e-07
0.007620017961 	0.5142597729 	-0.0006804491792 	8.746655063e-07
0.009524979574 	0.5144872831 	-0.00087335743 	1.104946485e-06
0.01245757067 	0.5148618031 	-0.001120529075 	1.382871171e-06
0.01577085506 	0.5154288727 	-0.001415271023 	1.697534993e-06
0.01951424692 	0.5162295937 	-0.00174829663 	2.029887408e-06
0.02376371923 	0.517339861 	-0.00212481193 	2.376218737e-06
0.02856971015 	0.5188549216 	-0.002549583842 	2.730512062e-06
0.03399956521 	0.5208953857 	-0.003027645384 	3.084078888e-06
0.04013425608 	0.5236204216 	-0.00356560177 	3.426497932e-06
0.04710020392 	0.5272346183 	-0.004170391917 	3.741147981e-06
0.05497248355 	0.5319904629 	-0.004847804624 	4.009531317e-06
0.06388212204 	0.5388698473 	-0.005679535828 	4.263042081e-06
0.07738804933 	0.549251962 	-0.006728347526 	4.299004547e-06
0.09190225286 	0.563207923 	-0.00789480354 	4.145918664e-06
0.1074900975 	0.5805588997 	-0.009096419223 	3.723352566e-06
0.1242359314 	0.6018019135 	-0.01031940892 	3.008510675e-06
0.1422279963 	0.6274950694 	-0.01154520423 	1.98467634e-06
0.1615588878 	0.6582631717 	-0.01274098073 	6.438467362e-07
0.1701363888 	0.6733310784 	-0.01320108071 	1.012387741e-05
0.1823260612 	0.6947440947 	-0.01386137048 	1.19565924e-06
0.2046323802 	0.7376525867 	-0.01486068526 	3.488417341e-06
0.2285867053 	0.7878480546 	-0.01566840649 	6.034810755e-06
0.254304522 	0.8463159784 	-0.01617627055 	8.695613912e-06
0.2819095097 	0.9140642633 	-0.01625557366 	1.127325459e-05
0.3115423872 	0.9918611687 	-0.01575598841 	1.34884459e-05
0.3433329903 	1.079328733 	-0.01447043503 	1.504413141e-05
0.37743697 	1.169656003 	-0.01246474954 	1.649176402e-05
0.414010442 	1.235943804 	-0.01051125773 	1.80223678e-05
0.4532220137 	1.262594736 	-0.009181038294 	1.858294872e-05
0.4952525067 	1.266515816 	-0.008118686578 	1.816599539e-05
0.5373056793 	1.262239193 	-0.007089036301 	1.732665913e-05
0.5765818555 	1.254105707 	-0.006182187366 	1.629837755e-05
0.6132593029 	1.244038754 	-0.005370285189 	1.520761475e-05
0.6475070436 	1.23257615 	-0.004633295255 	1.409622056e-05
0.679484443 	1.219603476 	-0.003951008061 	1.299516082e-05
0.7093412355 	1.204716053 	-0.00331402834 	1.190566375e-05
0.7372173963 	1.187347757 	-0.002713860258 	1.084494951e-05
0.7632441099 	1.166565988 	-0.002137743807 	9.840505013e-06
0.7875439148 	1.140803642 	-0.001564539098 	8.894997152e-06
0.8102313055 	1.108350847 	-0.0009740181046 	7.981510246e-06
0.8314132346 	1.068119574 	-0.0003639173423 	7.079932452e-06
0.8511895776 	1.019913839 	0.0002540890872 	6.189446724e-06
0.8696535944 	0.9642875805 	0.0008596835768 	5.278409677e-06
0.8868923629 	0.9023364822 	0.001417967641 	4.313647565e-06
0.9029871861 	0.8356705336 	0.001881339348 	3.288793101e-06
0.9180139737 	0.7663064635 	0.002201416886 	2.238092437e-06
0.9320435986 	0.7011913425 	0.002331497842 	1.304666677e-06
0.941327225 	0.6481596262 	0.002298356683 	6.191318933e-07
0.9495440518 	0.6042414743 	0.00216976903 	1.261227176e-07
0.9568166671 	0.5648280056 	0.001974237683 	-2.395024379e-07
0.963253572 	0.5293473334 	0.001734836107 	-4.853426269e-07
0.9689507996 	0.4968665505 	0.001472462205 	-6.249926476e-07
0.9739933478 	0.4660939369 	0.001204977532 	-6.762951258e-07
0.9784564469 	0.4353066993 	0.0009449898847 	-6.570914799e-07
0.9824066826 	0.4021622969 	0.0006985635623 	-5.821421762e-07
0.985902989 	0.363324401 	0.0004866792232 	-4.847210818e-07
0.9889975281 	0.3171686091 	0.0003519498369 	-3.764772833e-07
0.9910076668 	0.2656933798 	0.0002602826032 	-2.515052901e-07
0.9930178055 	0.2057532834 	0.0001364090489 	-1.474836154e-07
0.9950279442 	0.1372801459 	3.206184346e-05 	-7.88074454e-08
0.9970380829 	0.06769586908 	-1.15482924e-07 	-2.780404472e-08
0.9990482216 	0.01901922076 	-1.399852134e-06 	-3.334712999e-09
0.9990482216 	0.01901922076 	-1.399852134e-06 	-3.334712999e-09
