/*--------------------------------*- C++ -*----------------------------------*\
  =========                 |
  \\      /  F ield         | OpenFOAM: The Open Source CFD Toolbox
   \\    /   O peration     | Website:  https://openfoam.org
    \\  /    A nd           | Version:  7
     \\/     M anipulation  |
\*---------------------------------------------------------------------------*/
FoamFile
{
    version     2.0;
    format      ascii;
    class       volScalarField;
    location    "2000";
    object      k;
}
// * * * * * * * * * * * * * * * * * * * * * * * * * * * * * * * * * * * * * //

dimensions      [0 2 -2 0 0 0 0];

internalField   nonuniform List<scalar> 
15296
(
0.0016939021
0.0016886904
0.0016837356
0.0016790187
0.0016745163
0.0016702139
0.0016661004
0.0016621666
0.0016584046
0.0016548074
0.0016513682
0.0016480811
0.0016449403
0.0016419406
0.001639077
0.001636345
0.0016337389
0.0016312553
0.0016288903
0.00162664
0.0016245008
0.0016224694
0.0016205427
0.0016187184
0.0016169958
0.0016153772
0.0016138732
0.0016125061
0.0016113574
0.0016104841
0.0016104692
0.0016115259
0.0016187711
0.0016382437
0.0016703144
0.001743757
0.0018679702
0.0019413326
0.0016939629
0.0016887502
0.0016837997
0.0016790851
0.0016745847
0.001670284
0.0016661719
0.0016622393
0.0016584785
0.0016548821
0.0016514437
0.0016481571
0.0016450168
0.0016420174
0.001639154
0.0016364221
0.001633816
0.0016313323
0.0016289671
0.0016267165
0.0016245769
0.001622545
0.0016206177
0.0016187927
0.0016170694
0.0016154499
0.0016139446
0.0016125756
0.0016114243
0.0016105449
0.0016105189
0.0016115408
0.0016187066
0.0016380357
0.0016698274
0.0017427274
0.0018665256
0.0018971708
0.001694091
0.0016888802
0.0016839361
0.0016792251
0.0016747275
0.0016704292
0.0016663191
0.0016623883
0.0016586289
0.0016550337
0.0016515961
0.0016483102
0.0016451704
0.0016421712
0.0016393079
0.001636576
0.0016339695
0.0016314854
0.0016291197
0.0016268683
0.0016247279
0.001622695
0.0016207666
0.0016189404
0.0016172156
0.0016155944
0.0016140871
0.0016127154
0.0016115601
0.0016106733
0.0016106336
0.0016116213
0.0016187282
0.0016379034
0.001669412
0.0017418476
0.0018639589
0.0018579412
0.0016942798
0.0016890778
0.0016841411
0.0016794345
0.0016749406
0.0016706453
0.0016665377
0.001662609
0.0016588513
0.0016552574
0.0016518209
0.0016485357
0.0016453962
0.0016423972
0.0016395339
0.0016368016
0.0016341946
0.0016317098
0.0016293431
0.0016270907
0.001624949
0.0016229146
0.0016209846
0.0016191565
0.0016174297
0.0016158063
0.0016142962
0.001612921
0.0016117609
0.001610866
0.0016108116
0.0016117676
0.0016188534
0.0016378599
0.0016690598
0.0017413641
0.0018591468
0.0018869321
0.0016945271
0.0016893428
0.0016844141
0.0016797128
0.0016752233
0.0016709316
0.001666827
0.0016629007
0.001659145
0.0016555526
0.0016521172
0.0016488327
0.0016456936
0.0016426947
0.001639831
0.0016370982
0.0016344905
0.0016320047
0.0016296367
0.0016273828
0.0016252394
0.0016232031
0.0016212709
0.0016194405
0.0016177111
0.0016160847
0.0016145713
0.0016131917
0.001612026
0.0016111224
0.0016110521
0.0016119764
0.0016190996
0.0016378862
0.0016687156
0.0017412436
0.0018524897
0.0019366534
0.0016949212
0.001689771
0.0016848533
0.0016801602
0.0016756773
0.0016713911
0.0016672909
0.0016633682
0.0016596153
0.0016560251
0.0016525912
0.0016493077
0.001646169
0.00164317
0.0016403058
0.0016375721
0.001634963
0.0016324755
0.0016301054
0.0016278491
0.0016257029
0.0016236635
0.001621728
0.0016198939
0.0016181604
0.0016165294
0.0016150107
0.0016136247
0.0016124505
0.0016115348
0.0016114427
0.0016123239
0.0016195626
0.0016380134
0.0016683224
0.001741316
0.0018430186
0.0019811479
0.0016955752
0.0016904841
0.0016855828
0.0016809028
0.0016764304
0.0016721525
0.0016680591
0.0016641419
0.0016603932
0.0016568062
0.0016533744
0.0016500921
0.0016469539
0.0016439545
0.0016410893
0.0016383537
0.0016357424
0.0016332519
0.0016308783
0.0016286179
0.0016264671
0.0016244227
0.0016224815
0.0016206413
0.0016189012
0.0016172628
0.0016157357
0.0016143396
0.0016131525
0.0016122195
0.001612098
0.0016129177
0.0016203597
0.0016384061
0.0016680883
0.0017414927
0.0018320514
0.0020114519
0.0016965304
0.0016914968
0.0016866227
0.0016819616
0.0016775035
0.001673237
0.0016691528
0.0016652429
0.0016614998
0.0016579168
0.0016544878
0.0016512069
0.0016480689
0.0016450688
0.0016422018
0.0016394636
0.0016368489
0.0016343541
0.0016319753
0.0016297091
0.0016275518
0.0016255001
0.0016235511
0.0016217022
0.0016199526
0.0016183039
0.0016167652
0.0016153554
0.0016141508
0.0016131958
0.0016130383
0.0016137882
0.0016215667
0.0016391299
0.0016682514
0.0017413376
0.0018221069
0.0020290315
0.0016978976
0.0016929004
0.0016880718
0.0016834376
0.001678999
0.0016747479
0.001670676
0.0016667757
0.0016630399
0.0016594622
0.0016560366
0.0016527574
0.0016496195
0.001646618
0.0016437483
0.0016410061
0.0016383866
0.0016358856
0.0016334997
0.0016312252
0.0016290588
0.0016269971
0.0016250371
0.0016231763
0.0016214137
0.0016197508
0.0016181962
0.001616768
0.0016155401
0.0016145572
0.0016143537
0.0016150284
0.0016232632
0.0016402497
0.0016690286
0.0017399095
0.0018137601
0.0020191023
0.0016997477
0.0016948336
0.0016900607
0.0016854629
0.0016810513
0.0016768213
0.0016727663
0.0016688793
0.0016651538
0.0016615834
0.0016581626
0.0016548859
0.0016517484
0.0016487454
0.0016458724
0.0016431252
0.0016404995
0.0016379905
0.0016355951
0.00163331
0.0016311316
0.0016290567
0.0016270822
0.0016252057
0.0016234261
0.0016217444
0.001620169
0.0016187167
0.0016174589
0.0016164408
0.0016161754
0.001616777
0.0016252173
0.0016418077
0.0016706317
0.0017362154
0.0018111646
0.0019868337
0.0017022259
0.0016974631
0.0016927568
0.0016882078
0.0016838336
0.0016796331
0.0016756016
0.0016717333
0.0016680221
0.0016644624
0.0016610487
0.0016577761
0.0016546399
0.0016516357
0.0016487591
0.001646006
0.0016433729
0.001640854
0.001638447
0.0016361485
0.001633955
0.0016318633
0.0016298704
0.0016279738
0.0016261722
0.0016244664
0.0016228642
0.0016213812
0.0016200852
0.0016190234
0.0016186729
0.0016192164
0.0016274676
0.0016437138
0.0016728348
0.0017328848
0.0018107638
0.0019489462
0.0017056338
0.0017009765
0.0016963691
0.0016918876
0.0016875641
0.0016834035
0.0016794038
0.0016755605
0.0016718686
0.0016683231
0.0016649191
0.0016616522
0.001658518
0.0016555123
0.0016526312
0.0016498707
0.0016472278
0.0016446963
0.0016422743
0.0016399583
0.0016377452
0.0016356318
0.0016336149
0.0016316921
0.0016298619
0.0016281247
0.0016264876
0.0016249649
0.00162362
0.0016225036
0.001622042
0.0016225121
0.0016299867
0.0016458752
0.0016751554
0.0017309313
0.0018108241
0.0019411912
0.0017101824
0.0017056637
0.0017011741
0.0016967793
0.0016925232
0.0016884157
0.001684458
0.0016806477
0.001676981
0.0016734539
0.0016700625
0.0016668028
0.001663671
0.0016606633
0.0016577761
0.0016550058
0.0016523492
0.0016498019
0.0016473601
0.0016450213
0.0016427824
0.0016406404
0.0016385921
0.001636635
0.0016347674
0.0016329892
0.0016313067
0.0016297325
0.0016283251
0.0016271396
0.0016265473
0.0016268525
0.0016334067
0.0016483136
0.001676537
0.0017284773
0.0018109963
0.0019467369
0.0017161885
0.0017118959
0.0017075314
0.0017032446
0.0016990782
0.0016950423
0.001691141
0.0016873751
0.0016837426
0.001680241
0.0016768672
0.0016736183
0.001670491
0.0016674821
0.0016645884
0.0016618066
0.0016591339
0.0016565674
0.0016541011
0.0016517341
0.0016494633
0.0016472855
0.0016451979
0.0016431977
0.001641283
0.0016394531
0.0016377131
0.0016360741
0.0016345884
0.0016333156
0.0016325789
0.0016325814
0.0016379778
0.0016520245
0.0016790733
0.0017273258
0.0018105357
0.0019453311
0.001724328
0.0017201026
0.0017158941
0.0017117494
0.0017077008
0.0017037595
0.0016999337
0.0016962276
0.0016926418
0.0016891755
0.001685827
0.0016825945
0.0016794756
0.0016764678
0.0016735684
0.0016707748
0.001668084
0.0016654948
0.0016630003
0.0016605999
0.0016582907
0.0016560697
0.0016539342
0.0016518813
0.0016499086
0.0016480148
0.0016462039
0.0016444845
0.0016429023
0.00164152
0.0016406167
0.0016403151
0.0016439089
0.0016572124
0.0016838634
0.0017313712
0.0018120247
0.0019344126
0.0017370121
0.0017329447
0.0017289376
0.0017249906
0.0017211146
0.0017173158
0.0017136052
0.0017099912
0.0017064778
0.0017030669
0.001699759
0.0016965536
0.0016934498
0.0016904461
0.0016875406
0.0016847314
0.0016820163
0.0016793935
0.0016768604
0.0016744123
0.0016720475
0.0016697638
0.0016675584
0.0016654283
0.0016633705
0.0016613827
0.001659467
0.0016576292
0.001655906
0.0016543607
0.0016532177
0.0016526403
0.0016545483
0.0016645723
0.0016872176
0.001730209
0.001811536
0.001916493
0.0017559712
0.0017522083
0.0017484611
0.0017447527
0.0017410941
0.0017374839
0.001733931
0.001730446
0.0017270361
0.0017237057
0.001720458
0.0017172945
0.0017142159
0.001711222
0.0017083122
0.0017054855
0.0017027404
0.0017000754
0.0016974902
0.0016949805
0.0016925411
0.0016901731
0.0016878733
0.0016856383
0.0016834642
0.0016813475
0.0016792878
0.0016772867
0.0016753714
0.0016735932
0.0016721323
0.0016712319
0.0016719805
0.001678037
0.0016962794
0.0017276625
0.0018055141
0.0019067905
0.001780392
0.001776879
0.0017733753
0.0017699003
0.001766462
0.0017630511
0.0017596716
0.0017563333
0.0017530443
0.0017498109
0.001746638
0.001743529
0.001740486
0.0017375103
0.0017346023
0.0017317619
0.0017289887
0.0017262817
0.00172364
0.0017210639
0.0017185451
0.0017160857
0.0017136816
0.0017113291
0.0017090239
0.001706761
0.001704537
0.0017023489
0.0017002143
0.0016981622
0.0016963557
0.0016950028
0.001695163
0.001698751
0.0017135907
0.0017367759
0.0018000006
0.0018932949
0.0018112952
0.0018079757
0.0018046831
0.0018014177
0.0017981829
0.001794962
0.0017917537
0.0017885651
0.0017854033
0.0017822747
0.0017791847
0.0017761379
0.0017731374
0.0017701854
0.0017672832
0.0017644317
0.001761631
0.0017588811
0.0017561811
0.0017535305
0.0017509284
0.0017483711
0.0017458519
0.0017433692
0.0017409181
0.0017384917
0.0017360834
0.0017336846
0.0017313028
0.0017289464
0.001726766
0.0017248514
0.0017243462
0.0017262207
0.0017388751
0.0017584432
0.0018090114
0.0018895635
0.001849651
0.001846569
0.0018434819
0.0018404011
0.0018373411
0.0018342857
0.0018312302
0.0018281792
0.0018251377
0.0018221106
0.0018191028
0.0018161188
0.0018131619
0.0018102347
0.0018073392
0.0018044766
0.0018016477
0.0017988529
0.0017960918
0.0017933634
0.0017906694
0.0017880044
0.0017853637
0.0017827401
0.0017801298
0.0017775244
0.0017749133
0.001772282
0.0017696269
0.0017669348
0.0017643465
0.0017618164
0.0017604928
0.0017605955
0.0017714964
0.0017894732
0.0018322251
0.0019022487
0.0018967268
0.0018938625
0.0018909613
0.001888042
0.0018851308
0.0018822147
0.0018792879
0.0018763543
0.0018734172
0.0018704798
0.001867546
0.0018646193
0.0018617026
0.0018587984
0.0018559084
0.0018530342
0.0018501766
0.0018473361
0.0018445126
0.0018417053
0.0018389135
0.0018361343
0.0018333665
0.0018305999
0.0018278229
0.0018250289
0.0018222023
0.0018193221
0.0018163736
0.0018133231
0.0018102726
0.0018071172
0.0018048511
0.0018033201
0.0018111185
0.0018271185
0.0018635472
0.0019281721
0.0019538684
0.0019511353
0.0019483781
0.0019455965
0.0019428129
0.0019400124
0.0019371887
0.0019343462
0.0019314887
0.0019286189
0.0019257399
0.0019228545
0.0019199649
0.0019170728
0.0019141797
0.0019112866
0.0019083941
0.0019055027
0.0019026121
0.0018997214
0.0018968289
0.0018939318
0.0018910257
0.0018881071
0.0018851601
0.001882172
0.0018791182
0.0018759752
0.0018727167
0.0018692887
0.0018657273
0.001861948
0.0018586246
0.0018557592
0.001858944
0.001872148
0.0019022828
0.0019565638
0.0020222565
0.0020196512
0.0020170378
0.0020143864
0.0020117131
0.0020090035
0.0020062528
0.0020034682
0.002000656
0.00199782
0.0019949638
0.00199209
0.0019892005
0.0019862963
0.0019833783
0.001980447
0.0019775025
0.0019745448
0.0019715731
0.0019685861
0.0019655815
0.0019625558
0.0019595032
0.0019564156
0.0019532849
0.0019500881
0.0019467989
0.0019433824
0.0019397993
0.0019359713
0.0019318839
0.0019274553
0.0019230376
0.0019187668
0.0019178595
0.0019273012
0.0019520465
0.0019864913
0.002103204
0.0021008414
0.0020983899
0.0020958474
0.0020932495
0.0020905917
0.0020878728
0.0020851034
0.0020822928
0.002079447
0.0020765707
0.0020736672
0.0020707384
0.0020677853
0.0020648083
0.0020618072
0.0020587818
0.0020557313
0.0020526543
0.0020495489
0.0020464121
0.0020432391
0.002040023
0.0020367535
0.0020334169
0.0020299904
0.0020264488
0.0020227414
0.002018814
0.0020145717
0.0020099541
0.0020047991
0.0019993497
0.0019934974
0.0019894034
0.0019934816
0.0020135335
0.0020276761
0.0021988549
0.0021964513
0.0021940084
0.0021914824
0.0021888912
0.0021862248
0.0021834804
0.00218067
0.0021778055
0.0021748947
0.0021719438
0.0021689575
0.002165938
0.0021628866
0.0021598035
0.0021566884
0.0021535405
0.0021503583
0.0021471401
0.002143883
0.0021405831
0.0021372346
0.002133829
0.0021303539
0.002126792
0.0021231171
0.0021192944
0.0021152693
0.0021109737
0.0021062957
0.0021011383
0.0020952109
0.0020887888
0.002081281
0.0020747265
0.0020718501
0.0020875725
0.0020859371
0.0023100742
0.0023077298
0.0023052923
0.0023027309
0.0023000748
0.002297322
0.002294473
0.0022915435
0.0022885479
0.0022854962
0.0022823964
0.0022792542
0.0022760729
0.0022728541
0.0022695983
0.0022663051
0.0022629733
0.0022596014
0.0022561869
0.0022527263
0.0022492146
0.002245645
0.0022420073
0.0022382869
0.0022344634
0.0022305062
0.0022263739
0.0022220024
0.0022173115
0.0022121606
0.0022064345
0.0021997652
0.0021923089
0.0021832467
0.002174213
0.0021655837
0.0021755571
0.0021614347
0.0024387952
0.0024363028
0.0024337219
0.0024310025
0.0024281665
0.0024252125
0.0024221438
0.0024189795
0.0024157381
0.0024124326
0.002409073
0.0024056667
0.0024022181
0.0023987293
0.0023952011
0.0023916334
0.0023880251
0.0023843741
0.0023806776
0.0023769315
0.0023731301
0.0023692652
0.0023653251
0.002361293
0.0023571453
0.0023528471
0.0023483504
0.002343582
0.0023384488
0.0023327878
0.0023264506
0.0023190345
0.0023104767
0.0023000219
0.0022885167
0.0022751971
0.002276557
0.0022521734
0.0025864159
0.0025836434
0.0025807611
0.0025777125
0.0025745197
0.0025711858
0.0025677198
0.0025641466
0.0025604894
0.0025567648
0.0025529853
0.0025491601
0.0025452944
0.0025413911
0.0025374512
0.0025334745
0.0025294597
0.0025254048
0.0025213064
0.0025171599
0.0025129587
0.0025086933
0.0025043507
0.0024999118
0.0024953498
0.0024906255
0.002485685
0.0024804459
0.0024748026
0.0024685733
0.0024615752
0.0024533803
0.0024437634
0.0024319137
0.0024181568
0.0024010935
0.0023932971
0.0023591898
0.002754823
0.0027514281
0.0027479133
0.0027442163
0.0027403593
0.0027363497
0.0027322028
0.0027279497
0.0027236175
0.0027192259
0.0027147893
0.0027103177
0.0027058168
0.0027012894
0.0026967363
0.0026921569
0.0026875495
0.0026829115
0.0026782389
0.0026735265
0.0026687668
0.0026639492
0.002659059
0.0026540751
0.0026489675
0.0026436933
0.0026381923
0.0026323745
0.0026261217
0.0026192376
0.0026115067
0.0026024815
0.0025918337
0.0025786043
0.0025628717
0.0025426098
0.0025280878
0.0024819042
0.0029451583
0.002940735
0.0029361693
0.0029314042
0.0029264674
0.0029213737
0.0029161489
0.0029108324
0.0029054565
0.0029000435
0.0028946096
0.0028891653
0.0028837157
0.0028782629
0.0028728068
0.0028673459
0.0028618777
0.0028563986
0.002850904
0.0028453876
0.002839841
0.0028342525
0.0028286058
0.0028228778
0.002817036
0.0028110334
0.0028048049
0.0027982533
0.0027912497
0.0027835867
0.0027750205
0.0027650942
0.0027533906
0.0027389365
0.002721411
0.0026985375
0.0026796082
0.002621267
0.0031583789
0.0031523324
0.0031461306
0.0031397275
0.0031331538
0.0031264308
0.0031195974
0.0031127031
0.0031057853
0.0030988692
0.0030919725
0.0030851055
0.0030782729
0.0030714753
0.0030647117
0.0030579795
0.003051275
0.0030445939
0.0030379306
0.003031278
0.0030246269
0.0030179644
0.003011273
0.0030045277
0.0029976937
0.002990721
0.00298354
0.0029760482
0.0029681077
0.0029595039
0.0029499714
0.0029390533
0.0029262661
0.0029106695
0.0028916683
0.0028667207
0.0028446079
0.0027800486
0.0033955807
0.0033870271
0.0033783287
0.0033694613
0.0033604526
0.0033513249
0.0033421316
0.0033329325
0.0033237683
0.0033146668
0.003305647
0.003296719
0.0032878863
0.0032791489
0.0032705046
0.0032619498
0.0032534804
0.0032450912
0.003236776
0.0032285273
0.0032203349
0.0032121852
0.0032040596
0.0031959318
0.003187765
0.0031795069
0.0031710845
0.0031623916
0.0031532842
0.0031435445
0.0031328935
0.0031208825
0.0031069926
0.0030903241
0.0030702005
0.003043938
0.0030193101
0.0029535032
0.0036484893
0.003636453
0.0036242587
0.003611925
0.0035994799
0.0035869519
0.00357442
0.0035619601
0.0035496203
0.0035374338
0.0035254235
0.0035136007
0.0035019694
0.0034905293
0.003479278
0.0034682117
0.0034573255
0.0034466137
0.0034360696
0.0034256847
0.0034154481
0.0034053451
0.0033953557
0.0033854524
0.0033755966
0.003365734
0.0033557895
0.0033456548
0.0033351828
0.0033241565
0.0033122924
0.0032991571
0.0032842237
0.0032666538
0.0032457299
0.0032190321
0.0031928924
0.0031293635
0.0038990051
0.0038826
0.0038659367
0.0038491069
0.0038321603
0.0038151556
0.0037982229
0.0037814716
0.0037649678
0.003748758
0.003732873
0.0037173273
0.0037021258
0.0036872678
0.0036727499
0.0036585662
0.00364471
0.0036311734
0.0036179471
0.0036050203
0.0035923795
0.0035800078
0.0035678828
0.0035559744
0.0035442419
0.003532629
0.0035210585
0.0035094212
0.0034975693
0.0034852893
0.0034723005
0.0034581887
0.0034424395
0.0034242807
0.0034030041
0.0033764918
0.0033500016
0.0032908021
0.0041372298
0.0041155122
0.0040932535
0.0040707375
0.0040481012
0.0040254793
0.0040030831
0.0039810661
0.0039595157
0.003938491
0.0039180265
0.0038981347
0.0038788154
0.0038600624
0.0038418653
0.0038242122
0.0038070897
0.0037904838
0.0037743798
0.0037587614
0.0037436105
0.0037289055
0.0037146199
0.00370072
0.0036871617
0.003673886
0.0036608137
0.0036478348
0.0036348018
0.0036215055
0.0036076718
0.0035929058
0.0035767156
0.0035583901
0.0035372561
0.0035114815
0.0034854142
0.003431374
0.0043621445
0.0043332775
0.0043037483
0.0042740836
0.0042444895
0.0042151688
0.0041864007
0.0041583604
0.0041311357
0.0041047798
0.0040793146
0.004054737
0.0040310315
0.0040081773
0.0039861513
0.0039649296
0.0039444884
0.0039248047
0.0039058555
0.0038876172
0.0038700653
0.0038531723
0.0038369065
0.0038212296
0.0038060934
0.0037914355
0.0037771739
0.0037631976
0.0037493592
0.0037354532
0.0037212128
0.0037062599
0.0036901277
0.0036721556
0.0036517154
0.0036272109
0.0036022893
0.003553333
0.0045737186
0.004535414
0.0044965961
0.0044581913
0.004420425
0.0043835022
0.0043477017
0.0043131585
0.0042799163
0.0042479901
0.004217366
0.0041880097
0.0041598798
0.0041329347
0.0041071337
0.0040824385
0.0040588137
0.0040362257
0.0040146427
0.0039940334
0.003974366
0.0039556066
0.0039377174
0.0039206543
0.003904364
0.0038887791
0.0038738136
0.0038593534
0.0038452496
0.0038312977
0.0038172364
0.0038026987
0.0037872406
0.0037702378
0.0037511078
0.0037284219
0.0037053683
0.0036610776
0.0047715727
0.0047213802
0.0046718534
0.0046239006
0.0045774506
0.0045325668
0.0044894591
0.0044481914
0.0044087551
0.0043711258
0.0043352547
0.0043010781
0.004268531
0.0042375521
0.004208085
0.0041800778
0.004153483
0.0041282568
0.0041043577
0.0040817451
0.0040603782
0.0040402143
0.0040212068
0.0040033028
0.0039864404
0.0039705437
0.0039555188
0.0039412441
0.0039275651
0.0039142732
0.0039011073
0.0038877037
0.0038736348
0.0038582964
0.0038411467
0.0038208554
0.0038003791
0.0037602798
0.0049584751
0.0048963213
0.0048355862
0.0047773799
0.0047214694
0.0046678836
0.0046168084
0.0045682498
0.0045221522
0.0044784515
0.0044370624
0.0043978904
0.0043608458
0.0043258466
0.0042928182
0.0042616924
0.0042324066
0.0042049022
0.0041791227
0.0041550127
0.0041325163
0.0041115751
0.0040921269
0.0040741029
0.0040574252
0.0040420024
0.0040277254
0.0040144582
0.0040020334
0.0039902305
0.0039787814
0.0039673164
0.0039554148
0.0039424777
0.0039279948
0.0039106778
0.0038934282
0.0038571477
0.0051362566
0.0050630219
0.0049909861
0.0049219253
0.0048557229
0.0047925705
0.0047327241
0.0046761773
0.0046228516
0.0045726532
0.0045254629
0.0044811553
0.0044396129
0.0044007283
0.0043644022
0.0043305422
0.0042990606
0.0042698732
0.0042428973
0.0042180503
0.0041952487
0.0041744065
0.0041554336
0.0041382338
0.0041227026
0.0041087225
0.0040961596
0.0040848542
0.0040746175
0.0040652088
0.004056345
0.0040476411
0.0040386757
0.0040288422
0.0040176526
0.0040038273
0.0039903091
0.0039576521
0.0053038629
0.0052190328
0.0051352772
0.0050549664
0.0049780414
0.0049048997
0.0048359037
0.0047710732
0.0047103408
0.004653605
0.0046007258
0.0045515525
0.0045059391
0.0044637456
0.0044248367
0.0043890804
0.0043563469
0.0043265071
0.0042994329
0.0042749956
0.004253066
0.0042335134
0.0042162047
0.0042010026
0.0041877634
0.004176333
0.0041665435
0.0041582034
0.0041510957
0.0041449533
0.0041394731
0.0041342492
0.0041288557
0.0041226715
0.0041152253
0.0041052413
0.0040957026
0.0040666526
0.0054605771
0.0053621103
0.0052652137
0.0051727294
0.0050845131
0.0050011085
0.0049229282
0.0048499937
0.0047822416
0.004719558
0.0046617769
0.0046087121
0.0045601719
0.0045159607
0.0044758792
0.0044397253
0.0044072954
0.0043783864
0.0043527968
0.0043303277
0.0043107835
0.0042939717
0.0042797023
0.004267786
0.0042580318
0.004250243
0.0042442135
0.0042397178
0.0042365095
0.0042342951
0.0042327526
0.0042314568
0.0042299801
0.0042276889
0.004224128
0.0042180512
0.0042123805
0.0041870454
0.0056043868
0.0054895831
0.0053776403
0.0052717438
0.0051715523
0.005077698
0.0049905775
0.0049101771
0.0048364087
0.0047691104
0.0047080468
0.0046529437
0.0046035038
0.0045594135
0.0045203485
0.0044859812
0.0044559875
0.0044300516
0.0044078698
0.0043891519
0.004373622
0.0043610178
0.0043510888
0.0043435935
0.0043382965
0.004334963
0.0043333546
0.0043332186
0.0043342871
0.0043362484
0.0043387713
0.0043414194
0.0043437755
0.004345202
0.0043452674
0.0043428014
0.0043404874
0.0043190029
0.0057333571
0.0055995779
0.0054705973
0.0053499075
0.0052370015
0.0051326341
0.0050371703
0.004950536
0.0048725564
0.0048029242
0.0047412123
0.0046869249
0.0046395292
0.0045984779
0.004563229
0.0045332608
0.0045080828
0.0044872405
0.0044703172
0.0044569322
0.0044467377
0.0044394146
0.0044346681
0.0044322217
0.0044318131
0.0044331866
0.0044360884
0.0044402547
0.0044454119
0.0044512452
0.0044574293
0.0044635313
0.0044691608
0.0044736884
0.0044767209
0.0044772152
0.0044773989
0.0044598526
0.005848291
0.0056922323
0.0055436189
0.0054063417
0.0052799217
0.0051653297
0.0050628813
0.0049723401
0.0048932452
0.0048248819
0.0047663562
0.0047167024
0.0046749569
0.0046402054
0.0046116121
0.0045884324
0.0045700136
0.0045557884
0.0045452645
0.0045380126
0.0045336551
0.0045318558
0.0045323112
0.0045347417
0.0045388855
0.0045444903
0.0045513085
0.0045590845
0.0045675562
0.0045764222
0.0045853791
0.0045940109
0.0046019722
0.0046086495
0.0046137096
0.0046162674
0.0046179063
0.0046042602
0.0059517762
0.0057681013
0.0055961076
0.0054401491
0.0052999771
0.0051767727
0.0050705653
0.0049805282
0.0049053645
0.0048434052
0.0047928486
0.0047519707
0.0047192372
0.0046933456
0.004673221
0.0046579908
0.0046469493
0.0046395222
0.004635235
0.0046336878
0.0046345359
0.0046374745
0.0046422286
0.0046485444
0.0046561829
0.0046649131
0.0046745079
0.0046847326
0.0046953485
0.0047060771
0.0047166485
0.0047266706
0.0047358583
0.0047436103
0.0047496849
0.0047533391
0.0047554156
0.0047455113
0.0060438864
0.0058252343
0.0056254885
0.0054496234
0.0052977701
0.0051708737
0.0050677071
0.0049856409
0.0049214253
0.0048716788
0.0048333504
0.0048039521
0.0047815792
0.0047648275
0.0047526765
0.0047443804
0.00473938
0.0047372381
0.004737596
0.0047401443
0.0047446064
0.0047507278
0.0047582701
0.0047670076
0.0047767241
0.004787209
0.0047982556
0.00480965
0.0048211782
0.0048325864
0.0048436419
0.0048539756
0.004863375
0.00487123
0.0048774415
0.0048813183
0.004883025
0.0048765941
0.0061202488
0.0058578145
0.0056271639
0.0054339356
0.005278135
0.0051584849
0.0050697933
0.0050053219
0.0049585999
0.0049243323
0.004898727
0.0048793284
0.0048646487
0.0048538125
0.0048462887
0.0048417195
0.0048398231
0.0048403439
0.0048430311
0.004847633
0.0048538983
0.0048615799
0.0048704393
0.0048802483
0.004890791
0.0049018609
0.0049132609
0.0049247908
0.004936258
0.0049474305
0.0049581138
0.0049679576
0.0049768309
0.0049840904
0.0049898298
0.0049932939
0.0049941125
0.0049908957
0.0061762874
0.0058611607
0.0056006738
0.0054015547
0.0052600372
0.0051660483
0.0051050098
0.0050639637
0.0050340049
0.0050101066
0.0049900167
0.0049730294
0.0049590935
0.0049483156
0.0049407391
0.004936282
0.0049347473
0.0049358561
0.0049392827
0.0049446847
0.0049517243
0.0049600824
0.0049694668
0.004979614
0.0049902893
0.0050012809
0.005012398
0.0050234548
0.0050342814
0.0050446706
0.0050544672
0.0050633419
0.0050712419
0.0050774922
0.0050823661
0.0050850577
0.0050845259
0.0050846523
0.0062057624
0.0058353858
0.0055586192
0.0053794241
0.0052768289
0.0052206536
0.005184659
0.0051542311
0.0051243157
0.0050948647
0.0050674871
0.0050437379
0.0050245528
0.0050102411
0.0050006547
0.0049953718
0.0049938373
0.0049954552
0.0049996449
0.0050058722
0.0050136653
0.0050226189
0.0050323918
0.0050426997
0.0050533065
0.0050640127
0.0050746485
0.0050850542
0.0050950908
0.0051045819
0.0051134099
0.005121274
0.0051281753
0.0051334463
0.0051374331
0.0051394488
0.0051375377
0.005140557
0.0062161671
0.0058025883
0.0055370575
0.0054030435
0.0053448969
0.0053122871
0.0052783414
0.0052371088
0.0051921657
0.0051487272
0.0051105885
0.0050796377
0.0050563033
0.0050401369
0.0050302615
0.0050256564
0.0050253137
0.005028314
0.0050338586
0.0050412771
0.0050500221
0.0050596558
0.0050698337
0.005080286
0.0050908017
0.0051012118
0.0051113785
0.0051211746
0.0051304924
0.0051391853
0.0051471665
0.0051541592
0.0051602015
0.0051646369
0.005167841
0.0051692654
0.0051661187
0.0051713328
0.0062085599
0.0057683359
0.0055550089
0.0054899694
0.0054662235
0.005428416
0.0053681969
0.0052972441
0.0052281264
0.0051683618
0.0051208524
0.0050856568
0.0050614444
0.0050463958
0.0050386702
0.0050366101
0.0050388055
0.0050440989
0.0050515659
0.0050604868
0.0050703143
0.0050806399
0.0050911632
0.0051016646
0.0051119829
0.0051219958
0.0051316082
0.0051407304
0.0051492892
0.0051571658
0.0051643052
0.0051704448
0.0051756685
0.0051792954
0.0051817891
0.0051825911
0.005178366
0.0051855374
0.0061811421
0.005759604
0.0056479453
0.0056474007
0.0056152582
0.0055299662
0.0054193413
0.0053110107
0.0052194348
0.0051488107
0.0050980611
0.0050640548
0.005043262
0.0050324859
0.005029087
0.0050309755
0.005036531
0.0050445202
0.0050540257
0.0050643831
0.0050751239
0.0050859254
0.0050965697
0.005106911
0.0051168522
0.0051263245
0.0051352779
0.0051436589
0.0051514266
0.0051584849
0.0051648095
0.0051701391
0.0051746164
0.0051774902
0.0051793962
0.0051795687
0.0051745214
0.0051834527
0.0061478234
0.0058296211
0.0058426423
0.0058473918
0.0057411113
0.0055749152
0.0054082786
0.0052699356
0.005166482
0.0050946394
0.0050481398
0.0050206123
0.0050066851
0.0050022383
0.0050042428
0.0050104932
0.0050193914
0.0050297988
0.0050409295
0.005052262
0.0050634641
0.0050743325
0.0050847492
0.0050946484
0.0051039966
0.0051127742
0.0051209702
0.0051285606
0.0051355308
0.0051417993
0.0051473707
0.0051519707
0.0051558183
0.0051580403
0.0051595515
0.0051591368
0.0051536843
0.0051641406
0.0061300009
0.0060230935
0.006116168
0.0060233885
0.0057902054
0.0055383217
0.0053298037
0.0051778926
0.0050758752
0.0050121824
0.0049758855
0.0049581869
0.0049526689
0.0049549531
0.0049620924
0.0049720703
0.0049835056
0.0049954846
0.0050074375
0.0050190344
0.0050301008
0.005040557
0.0050503777
0.0050595661
0.0050681386
0.0050761121
0.0050835034
0.005090307
0.0050965277
0.0051020895
0.0051070263
0.005111036
0.0051144401
0.0051161812
0.0051176007
0.0051167071
0.0051115741
0.0051229592
0.0061762228
0.0063405598
0.0063878474
0.0061080083
0.0057375948
0.0054206871
0.0051928206
0.0050442372
0.0049546272
0.0049053327
0.0048820913
0.0048748283
0.0048770621
0.0048848454
0.0048956986
0.0049079867
0.0049206518
0.0049330666
0.0049449053
0.0049560299
0.0049664071
0.0049760557
0.0049850169
0.0049933386
0.0050010671
0.005008239
0.0050148853
0.0050210096
0.0050266294
0.0050316681
0.0050361939
0.0050398636
0.0050431409
0.0050447105
0.0050465476
0.0050454323
0.0050418564
0.0050531148
0.006339656
0.0067173695
0.0065610909
0.0060633638
0.0055787434
0.0052248187
0.0049982924
0.0048656043
0.0047945573
0.0047613946
0.0047502808
0.0047511706
0.0047585249
0.0047693524
0.0047817968
0.0047946224
0.0048070898
0.0048188434
0.004829768
0.0048398715
0.0048492123
0.0048578635
0.0048658972
0.0048733772
0.0048803587
0.0048868825
0.0048929837
0.0048986677
0.0049039638
0.0049087928
0.0049132685
0.0049169999
0.0049206452
0.0049225573
0.0049255978
0.0049247835
0.004924623
0.0049342437
0.0065392847
0.0070002559
0.0065705296
0.0058744057
0.0053052522
0.0049362709
0.00472303
0.0046098539
0.0045557498
0.0045344897
0.0045304931
0.0045348091
0.0045435166
0.0045545943
0.0045665706
0.0045784339
0.0045896685
0.0046001135
0.0046097839
0.0046187566
0.0046271185
0.0046349494
0.0046423181
0.0046492816
0.0046558888
0.0046621758
0.0046681788
0.0046739053
0.0046794034
0.0046845995
0.0046896756
0.0046942011
0.0046990969
0.0047023313
0.0047079372
0.0047086073
0.0047147698
0.0047210537
0.006699617
0.0071143609
0.0064051174
0.0055151052
0.0048759295
0.0044993367
0.0042969771
0.0041955387
0.004149217
0.0041314414
0.0041278132
0.0041306084
0.0041374164
0.0041467391
0.0041570124
0.0041672151
0.0041769385
0.0041861121
0.0041947839
0.0042030234
0.0042108934
0.0042184471
0.0042257299
0.0042327812
0.0042396386
0.0042463337
0.0042529079
0.0042593804
0.0042658311
0.0042722127
0.0042788017
0.004285165
0.0042925338
0.0042985378
0.0043085182
0.0043126586
0.0043285509
0.0043311676
0.0065692592
0.0069226485
0.0059516292
0.004869138
0.004166886
0.0037708234
0.0035580222
0.0034492849
0.0033970118
0.003373749
0.0033651279
0.0033635442
0.0033676296
0.0033751566
0.0033839485
0.0033928939
0.0034016442
0.0034101493
0.0034184321
0.0034265227
0.0034344472
0.0034422297
0.003449895
0.0034574697
0.0034649865
0.00347248
0.0034800047
0.0034876024
0.0034953932
0.0035033794
0.0035119274