/*--------------------------------*- C++ -*----------------------------------*\
  =========                 |
  \\      /  F ield         | OpenFOAM: The Open Source CFD Toolbox
   \\    /   O peration     | Website:  https://openfoam.org
    \\  /    A nd           | Version:  7
     \\/     M anipulation  |
\*---------------------------------------------------------------------------*/
FoamFile
{
    version     2.0;
    format      ascii;
    class       volSymmTensorField;
    location    "2000";
    object      Rall;
}
// * * * * * * * * * * * * * * * * * * * * * * * * * * * * * * * * * * * * * //

dimensions      [0 2 -2 0 0 0 0];

internalField   nonuniform List<symmTensor> 
15296
(
(0.0012289988 1.42885e-05 5.4527974e-15 0.0010871973 -2.1610057e-16 0.0010716082)
(0.0011394184 7.0263106e-06 6.4907449e-15 0.0011199719 1.1944013e-16 0.0011179904)
(0.0011309272 6.2320664e-06 -6.6313773e-15 0.0011189197 3.0552587e-16 0.0011176243)
(0.001123441 5.9270901e-06 1.3547371e-14 0.0011176582 4.1158856e-16 0.0011169383)
(0.0011157144 5.6799949e-06 -6.9193529e-15 0.0011167132 -6.2643268e-16 0.0011166051)
(0.0011113629 5.4739993e-06 1.4055728e-14 0.0011145111 -6.3961257e-17 0.0011145539)
(0.0011090364 5.3216106e-06 1.5874944e-18 0.0011116182 3.3695556e-16 0.0011115461)
(0.001107489 5.2102498e-06 4.7018556e-18 0.0011085609 -1.6264742e-17 0.0011082832)
(0.0011064622 5.1300634e-06 3.3946652e-18 0.0011054415 -8.341275e-17 0.0011049055)
(0.0011057694 5.0758116e-06 7.3763506e-15 0.0011023331 1.5570948e-16 0.0011015122)
(0.0011051902 5.0416589e-06 1.1178936e-19 0.0010993245 -7.5110801e-18 0.0010982217)
(0.0011045995 5.0221102e-06 7.1954465e-19 0.0010964642 -2.5652368e-17 0.0010950984)
(0.0011039576 5.0132081e-06 -7.6403924e-15 0.0010937644 -3.1016007e-16 0.0010921585)
(0.0011032659 5.0124308e-06 7.7311019e-15 0.0010912196 2.0950352e-16 0.0010893956)
(0.0011025511 5.0185873e-06 3.3153436e-18 0.0010888136 -7.5032954e-17 0.0010867893)
(0.0011018629 5.0319071e-06 7.9292387e-15 0.0010865206 1.3689126e-16 0.0010843064)
(0.0011012706 5.0541364e-06 8.0372503e-15 0.0010843051 -6.7710485e-17 0.001081902)
(0.0011008663 5.0887281e-06 8.1424146e-15 0.0010821236 1.9831497e-16 0.0010795207)
(0.0011007707 5.1413561e-06 2.8632196e-18 0.0010799195 -2.8071895e-17 0.0010770904)
(0.0011011476 5.2208615e-06 3.4891522e-18 0.0010776171 -7.5497204e-17 0.0010745154)
(0.0011022249 5.3408333e-06 -1.1871913e-18 0.0010751126 -4.0727573e-16 0.0010716641)
(0.001104327 5.5219398e-06 8.5054618e-15 0.0010722598 -1.4171087e-16 0.001068352)
(0.0011079265 5.7956835e-06 8.5761035e-15 0.0010688468 4.1092904e-16 0.001064312)
(0.0011137136 6.2092458e-06 -8.5943843e-15 0.0010645659 -2.7218898e-16 0.0010591573)
(0.0011227338 6.8342073e-06 4.128837e-18 0.0010589529 -6.3305497e-17 0.0010523049)
(0.0011365283 7.7728365e-06 -8.4618014e-15 0.001051325 -2.884505e-16 0.0010429012)
(0.0011576117 9.1812861e-06 -8.2418986e-15 0.0010405752 -6.0240716e-16 0.0010295594)
(0.0011895297 1.122861e-05 -1.1788713e-17 0.0010251362 9.5324199e-19 0.0010103463)
(0.0012397567 1.4239883e-05 7.0366656e-19 0.0010017592 2.9744105e-18 0.00098119905)
(0.0013144295 1.769002e-05 -5.8781195e-15 0.00096759979 -2.0663369e-16 0.00093893867)
(0.00144067 2.2111945e-05 -1.5466462e-17 0.00091080262 1.3357015e-16 0.00086946677)
(0.001612235 1.543665e-05 4.0354797e-17 0.00083241763 7.09572e-17 0.00077839638)
(0.0021188392 7.2875561e-06 1.3442528e-15 0.00054351759 -1.3424518e-16 0.00057518083)
(0.0028734059 -8.0304476e-05 8.3620131e-16 9.5522409e-05 -3.9366645e-16 0.00030757779)
(0.0029495819 -0.00010241023 3.7546836e-17 6.4928231e-05 -1.1225105e-16 0.00032614239)
(0.0031091082 -0.00013111282 -5.8683588e-16 1.640538e-05 -2.8127895e-16 0.00036202288)
(0.0034037345 -0.00019800286 1.8876728e-16 -9.69165e-05 3.1828808e-16 0.00042914465)
(0.0042742239 -0.0005762719 -1.3376139e-15 -0.00079833693 -1.1442835e-16 0.00040684529)
(0.0012283507 3.1692113e-05 1.5316076e-17 0.0010824016 8.5391672e-17 0.0010771735)
(0.0011401004 1.666212e-05 -2.1589615e-15 0.0011187665 -6.5689783e-17 0.0011186335)
(0.001131534 1.4439847e-05 2.2226062e-15 0.0011180083 2.3130161e-16 0.0011180572)
(0.0011238849 1.3764899e-05 9.7893545e-18 0.001117053 1.9399266e-16 0.0011172324)
(0.0011159787 1.3283878e-05 -2.3179838e-15 0.0011164299 -1.51138e-16 0.0011167608)
(0.001111548 1.2850211e-05 2.3459238e-15 0.0011143343 2.426413e-17 0.0011146857)
(0.0011092061 1.2491329e-05 2.3833995e-15 0.0011114194 1.8802018e-16 0.0011117182)
(0.0011076673 1.219443e-05 1.0460286e-17 0.0011082936 -1.0393014e-17 0.0011085177)
(0.0011066643 1.1936028e-05 -2.4237151e-15 0.0011050779 -1.2869021e-16 0.0011052146)
(0.0011060047 1.1707056e-05 -2.4581177e-15 0.0011018581 -1.2158413e-16 0.0011019014)
(0.0011054611 1.1503356e-05 -4.9845713e-15 0.0010987371 -9.1774054e-17 0.0010986892)
(0.001104904 1.1320232e-05 2.5179061e-15 0.0010957715 7.879797e-17 0.0010956388)
(0.001104292 1.1153223e-05 2.5414103e-15 0.0010929758 8.2305456e-17 0.0010927657)
(0.0011036264 1.0998663e-05 1.0597636e-17 0.0010903446 1.452694e-16 0.0010900638)
(0.0011029345 1.0853407e-05 -5.223273e-15 0.0010878597 -1.9584789e-16 0.0010875139)
(0.0011022675 1.0714553e-05 2.6510343e-15 0.0010854922 2.363983e-16 0.0010850846)
(0.0011016968 1.0579277e-05 2.6983151e-15 0.001083202 1.6483743e-16 0.0010827332)
(0.0011013174 1.0444576e-05 1.2930076e-17 0.0010809401 1.8132367e-16 0.0010804072)
(0.0011012538 1.0306891e-05 7.7844979e-19 0.0010786424 -1.1698413e-16 0.001078038)
(0.0011016747 1.0161671e-05 2.7933262e-15 0.0010762238 8.9731766e-17 0.0010755345)
(0.0011028152 1.000284e-05 -3.609517e-18 0.0010735671 -6.945077e-17 0.0010727716)
(0.0011050096 9.8220639e-06 -9.8448118e-18 0.0010705073 4.4754574e-17 0.0010695731)
(0.0011087446 9.6077686e-06 7.6613962e-18 0.001066806 1.1219794e-16 0.0010656847)
(0.0011147308 9.3438154e-06 2.5664443e-18 0.0010621172 -1.3691017e-16 0.0010607375)
(0.0011240433 9.0079718e-06 -2.856128e-15 0.0010559194 -9.5278444e-17 0.0010541761)
(0.0011382644 8.5699566e-06 -2.9625299e-18 0.0010474481 -7.018414e-17 0.0010451872)
(0.0011599698 7.994489e-06 5.4850281e-15 0.0010354655 -4.1889084e-17 0.0010324539)
(0.001192768 7.2279034e-06 5.2053195e-15 0.0010182394 5.2829808e-17 0.0010141439)
(0.0012442301 6.3415855e-06 6.4616705e-19 0.00099217441 2.9654482e-17 0.000986444)
(0.0013203986 5.030354e-06 1.9434153e-15 0.00095430849 -8.6060126e-17 0.0009463825)
(0.0014467171 6.0827422e-06 1.2543116e-15 0.00089253283 1.2998663e-16 0.00088178878)
(0.0016162558 2.2015904e-06 6.3108857e-16 0.00080680788 -2.9425218e-16 0.0008000151)
(0.0022444957 -4.6394868e-06 -1.3197634e-15 0.00030443361 -2.0200168e-15 0.0006884793)
(0.0033750343 -0.00011803591 -5.3309983e-15 -0.00069228605 -8.1700205e-16 0.00059334207)
(0.0034331467 -0.00015013923 -1.4846967e-16 -0.00070435505 -2.8021366e-15 0.0006108869)
(0.0035435176 -0.00019740492 2.6320252e-16 -0.00070020869 6.8874653e-16 0.00064216836)
(0.0037232295 -0.00030401227 5.1342508e-16 -0.00070547654 1.2044028e-15 0.00071532013)
(0.0062262605 -0.00099033059 -1.8611532e-15 -0.0034963504 -4.6191254e-16 0.0010645079)
(0.0012241408 4.9567698e-05 2.5353088e-17 0.00108273 6.231944e-17 0.0010813112)
(0.0011404625 2.763316e-05 2.6153152e-15 0.0011182158 -1.3372539e-16 0.0011190821)
(0.0011321763 2.3564932e-05 -2.643314e-15 0.001117379 8.2703479e-17 0.0011183169)
(0.0011245673 2.2422925e-05 -1.3603816e-15 0.0011164667 -9.7135449e-17 0.0011174161)
(0.0011167034 2.1629988e-05 1.3777791e-15 0.0011158817 2.1267531e-17 0.0011168699)
(0.0011122633 2.092217e-05 -1.4020658e-15 0.0011138166 6.8104915e-17 0.0011147785)
(0.0011098867 2.0340214e-05 -1.4157537e-15 0.0011109248 1.5394073e-16 0.0011118267)
(0.0011083076 1.9860561e-05 -1.433981e-15 0.0011078166 3.1051067e-17 0.0011086524)
(0.0011072604 1.9445073e-05 -2.9191254e-15 0.0011046157 -1.5152075e-16 0.0011053817)
(0.0011065553 1.907886e-05 -1.4849628e-15 0.0011014083 -2.0799063e-16 0.0011021037)
(0.0011059684 1.8754687e-05 -1.0243669e-17 0.0010982979 -1.091808e-16 0.001098926)
(0.0011053715 1.8464733e-05 -4.5364698e-15 0.0010953414 -2.9100511e-17 0.0010959076)
(0.0011047236 1.8201772e-05 -1.5380866e-15 0.0010925537 1.0850357e-16 0.0010930635)
(0.0011040252 1.7959873e-05 -1.5443983e-15 0.0010899295 2.8564996e-17 0.0010903878)
(0.001103303 1.7733918e-05 1.6489197e-18 0.001087451 -1.5622712e-16 0.0010878618)
(0.0011026069 1.7519242e-05 1.857065e-17 0.0010850896 1.7451406e-16 0.0010854554)
(0.0011020065 1.7311467e-05 -3.200652e-15 0.0010828056 4.4445568e-17 0.0010831269)
(0.001101595 1.7106212e-05 1.1706641e-17 0.0010805504 -4.7547964e-18 0.0010808254)
(0.0011014942 1.68986e-05 -4.0114477e-19 0.0010782606 -8.9519464e-17 0.0010784845)
(0.001101869 1.6682682e-05 -1.6597177e-15 0.0010758518 -6.0383435e-18 0.0010760159)
(0.0011029496 1.6450682e-05 -1.7031932e-15 0.0010732083 -1.1350928e-16 0.001073298)
(0.0011050627 1.619194e-05 1.6991976e-15 0.001070167 1.2582155e-16 0.0010701603)
(0.0011086845 1.5891358e-05 1.7347028e-15 0.0010664925 1.4969701e-16 0.0010663562)
(0.0011145095 1.5526946e-05 -1.7247832e-15 0.0010618432 -3.8675792e-17 0.001061528)
(0.0011235891 1.5066005e-05 1.7272785e-15 0.0010557047 -1.5426481e-16 0.0010551374)
(0.0011374685 1.4457707e-05 4.8060166e-19 0.0010473239 -8.9287446e-17 0.0010463964)
(0.0011586656 1.3625463e-05 -8.3989438e-18 0.0010354805 -2.5152992e-17 0.0010340281)
(0.001190697 1.2420374e-05 1.5730106e-15 0.001018476 2.0010513e-16 0.0010162577)
(0.0012409838 1.0726783e-05 -1.4285631e-15 0.00099275817 2.8790218e-17 0.00098937814)
(0.001315452 7.7679324e-06 -1.1963209e-15 0.0009554322 -1.1097257e-17 0.00095046213)
(0.001439414 6.0035274e-06 -7.7593568e-16 0.00089431203 5.9491593e-17 0.00088754214)
(0.0016146692 1.8085153e-06 4.5800854e-17 0.00080341295 2.4814292e-16 0.00080515792)
(0.0021617022 -2.033585e-05 -8.0661676e-16 0.00033414806 5.86286e-16 0.000741602)
(0.0034715941 -0.00016227511 -1.5198539e-15 -0.00091565194 -1.1284204e-15 0.00071988375)
(0.0035309383 -0.00019102764 2.0958144e-16 -0.00092555675 -3.0104811e-16 0.00073346661)
(0.0036179491 -0.00024715606 1.1844295e-15 -0.0008816452 -5.7564918e-16 0.00074741382)
(0.0036843381 -0.00034717023 1.1165059e-16 -0.00074911177 -3.0615709e-17 0.0007927134)
(0.0052407914 -0.0012868216 -7.7053838e-16 -0.0029309147 -2.728725e-16 0.0014060209)
(0.0012240268 6.5712783e-05 3.510294e-17 0.0010801476 4.0964554e-17 0.0010843851)
(0.0011415259 3.9022391e-05 -9.1422001e-16 0.0011171436 4.9223064e-17 0.0011194861)
(0.0011333884 3.2840206e-05 -9.4942733e-16 0.0011163615 -7.7335533e-17 0.0011185324)
(0.0011257052 3.1187134e-05 9.6360886e-16 0.0011155743 -1.8269869e-16 0.0011175896)
(0.0011177512 3.0085126e-05 -2.0845643e-18 0.0011151194 9.1593771e-17 0.0011170105)
(0.0011132524 2.9102025e-05 1.0158696e-15 0.0011131259 3.4361888e-17 0.0011149124)
(0.0011108411 2.8292394e-05 1.2202209e-17 0.001110267 5.6824988e-17 0.0011119674)
(0.0011092391 2.7624132e-05 1.0440884e-15 0.0011071748 -3.4991178e-17 0.0011088041)
(0.001108176 2.7044305e-05 8.868323e-19 0.0011039795 -1.5404936e-16 0.0011055471)
(0.0011074599 2.6532386e-05 -1.0628414e-15 0.001100771 -1.0924838e-16 0.0011022839)
(0.0011068649 2.6078556e-05 1.061687e-15 0.0010976563 1.3252305e-17 0.0010991206)
(0.0011062614 2.5672067e-05 -1.1797655e-17 0.0010946947 -2.059923e-16 0.0010961153)
(0.0011056074 2.5302915e-05 -1.1109343e-15 0.001091902 -3.0572634e-17 0.001093283)
(0.0011049031 2.4962864e-05 1.1108778e-15 0.0010892734 -1.0560411e-16 0.001090618)
(0.0011041748 2.4644777e-05 1.1026251e-17 0.0010867911 -3.4361219e-17 0.0010881018)
(0.0011034724 2.4342102e-05 -2.2588196e-15 0.0010844261 8.2791084e-17 0.0010857047)
(0.0011028656 2.4048622e-05 1.4294439e-17 0.0010821381 -1.9633531e-16 0.0010833856)
(0.0011024475 2.375801e-05 1.8001213e-17 0.0010798776 1.1102042e-17 0.0010810945)
(0.0011023402 2.346312e-05 1.1815066e-15 0.0010775802 -8.6066968e-17 0.0010787659)
(0.0011027086 2.3155115e-05 -1.193749e-15 0.0010751599 -1.9614238e-16 0.0010763129)
(0.0011037831 2.2822353e-05 -1.2294921e-15 0.0010724987 -1.9479697e-16 0.0010736161)
(0.0011058905 2.2448825e-05 -4.3677014e-18 0.0010694309 1.3053239e-16 0.0010705078)
(0.0011095068 2.201187e-05 1.6103861e-17 0.0010657166 9.3055062e-17 0.0010667457)
(0.0011153263 2.1478675e-05 2.4699432e-15 0.0010610085 -7.9932808e-17 0.0010619782)
(0.0011243996 2.0800883e-05 -1.2258737e-15 0.0010547835 -1.0363715e-16 0.0010556765)
(0.0011382695 1.9904797e-05 -7.6654747e-18 0.0010462764 -1.7434828e-16 0.0010470666)
(0.0011594517 1.8680999e-05 1.1766103e-15 0.0010342468 -4.0055695e-17 0.001034894)
(0.0011914469 1.6925501e-05 1.1277961e-15 0.0010169758 1.3852419e-16 0.0010174192)
(0.0012416807 1.4466431e-05 -9.7143582e-18 0.00099084912 -3.1097413e-17 0.00099099203)
(0.0013160511 1.0304727e-05 -1.1700688e-17 0.0009529596 -8.9045476e-17 0.00095272115)
(0.001440349 6.7961849e-06 4.4993605e-18 0.00089053753 -7.0719797e-17 0.00089073766)
(0.0016275551 2.4421466e-06 1.3432055e-16 0.00079049954 -2.0420482e-16 0.00080547809)
(0.0018836583 -6.1395031e-05 -3.3416858e-16 0.00056079682 -8.5258325e-16 0.00079324866)
(0.0034457054 -0.00024127292 -6.1160217e-16 -0.00092105968 1.3274977e-15 0.00075109382)
(0.0035145016 -0.00025894882 -7.7759128e-16 -0.00093999585 -6.9382467e-16 0.00076363839)
(0.0035876085 -0.00031281506 8.6762983e-16 -0.00087146893 -1.9619582e-16 0.00076661138)
(0.0036402716 -0.00041428691 7.1841661e-16 -0.00073787031 1.5236366e-16 0.00081591441)
(0.0048387935 -0.0015804461 -2.8891999e-16 -0.0024531932 -1.1342621e-16 0.0013881537)
(0.0012245515 8.0660999e-05 4.3018257e-17 0.0010778424 3.7406398e-17 0.0010866602)
(0.0011430274 5.0595696e-05 -7.2306942e-16 0.0011156907 -7.3784132e-17 0.0011199674)
(0.0011349337 4.2198005e-05 -2.5112206e-18 0.0011151336 -1.6959416e-16 0.0011187608)
(0.0011271871 3.9987159e-05 7.5723093e-16 0.001114444 -8.1706666e-17 0.0011177946)
(0.0011191511 3.8568687e-05 7.6649012e-16 0.0011140844 -1.4041829e-17 0.0011172112)
(0.0011145846 3.7308669e-05 -7.6900978e-16 0.0011121657 1.1334116e-16 0.0011151129)
(0.0011121229 3.6271372e-05 -7.7915377e-16 0.0011093616 8.9723913e-17 0.0011121696)
(0.0011104813 3.5415662e-05 8.2176292e-16 0.0011063112 8.7206146e-18 0.0011090089)
(0.0011093849 3.4673752e-05 5.3197114e-18 0.0011031499 -5.4254389e-17 0.001105755)
(0.0011086405 3.4019126e-05 8.2360437e-16 0.0010999698 -7.2181018e-17 0.0011024949)
(0.0011080211 3.3438853e-05 8.3635644e-16 0.001096879 1.4675286e-16 0.0010993343)
(0.0011073959 3.2918832e-05 -8.5439518e-16 0.0010939381 -7.4883813e-17 0.0010963314)
(0.0011067222 3.2446058e-05 -1.9349922e-17 0.0010911639 -3.0996847e-17 0.0010935011)
(0.0011059994 3.2009985e-05 8.7367322e-16 0.0010885522 -1.5803753e-17 0.0010908377)
(0.0011052534 3.1601636e-05 -8.6509056e-16 0.0010860858 -3.6190959e-17 0.001088323)
(0.0011045335 3.1212849e-05 -8.7782432e-16 0.0010837359 -7.6168695e-17 0.0010859271)
(0.0011039091 3.0835869e-05 -2.6785079e-15 0.0010814625 -1.4324862e-16 0.0010836094)
(0.001103473 3.0462705e-05 -1.7969243e-15 0.0010792165 1.8753579e-17 0.0010813199)
(0.0011033464 3.0084207e-05 -9.2674818e-16 0.0010769335 -3.1348102e-17 0.0010789935)
(0.0011036936 2.9688958e-05 -9.3586901e-16 0.001074528 -1.9423495e-16 0.0010765439)
(0.0011047438 2.9261895e-05 9.2493878e-16 0.0010718826 -1.5155908e-16 0.0010738524)
(0.001106822 2.878232e-05 -7.699324e-18 0.0010688321 5.15193e-17 0.0010707521)
(0.0011104015 2.8220965e-05 -9.5384575e-16 0.0010651382 -1.1149911e-16 0.0010670021)
(0.0011161723 2.7535447e-05 7.5364809e-18 0.0010604553 9.4239248e-17 0.0010622535)
(0.0011251786 2.6663226e-05 9.6568861e-16 0.0010542632 -7.5600186e-17 0.0010559804)
(0.0011389525 2.5508805e-05 9.4748789e-16 0.0010458018 -1.0062803e-16 0.0010474151)
(0.0011599938 2.3929978e-05 9.2847547e-16 0.0010338376 1.0473559e-16 0.0010353112)
(0.0011917689 2.1662949e-05 -1.5551568e-18 0.0010166677 1.2999849e-16 0.0010179468)
(0.0012416704 1.8473857e-05 -1.49975e-17 0.00099069056 -3.8840473e-17 0.00099169114)
(0.0013155545 1.3133225e-05 6.6526434e-16 0.00095301406 4.2468225e-17 0.00095367618)
(0.001440174 7.9730402e-06 4.5839085e-16 0.00088998692 -5.7990743e-19 0.00089194409)
(0.0016389782 3.5389047e-06 -1.2793935e-16 0.00078032869 8.9166867e-17 0.00080464386)
(0.0018590446 3.0538906e-05 1.616488e-16 0.00061857566 -2.1727949e-16 0.00076057703)
(0.003401389 -0.00028211176 -6.2279207e-16 -0.00085563816 -2.989348e-16 0.00073004184)
(0.0034878437 -0.00028936755 -3.0682e-16 -0.0008943126 -2.4007157e-16 0.00074392514)
(0.0035578153 -0.0003389603 -2.46439e-16 -0.00081890662 5.7537369e-17 0.00074360209)
(0.0036103138 -0.00040046582 1.1994478e-16 -0.00068105803 2.3684746e-16 0.00077574604)
(0.0053437752 -0.0017033415 2.5615339e-16 -0.0027647586 -4.7729933e-17 0.0012941752)
(0.0012264145 9.7825804e-05 5.0384515e-17 0.0010742611 2.8882568e-17 0.0010891667)
(0.0011458334 6.5598801e-05 -2.3713893e-18 0.0011130261 -1.2197446e-16 0.0011206826)
(0.0011375238 5.4352557e-05 -8.2192625e-19 0.001113067 -1.082078e-16 0.0011191158)
(0.0011296518 5.135334e-05 -1.5370079e-15 0.0011125503 1.3761153e-17 0.0011181184)
(0.0011214764 4.952266e-05 -1.83232e-17 0.0011123393 -9.0898303e-17 0.001117539)
(0.0011167963 4.790876e-05 -7.9275995e-16 0.0011105433 -6.2600527e-18 0.0011154426)
(0.0011142506 4.6579955e-05 1.6808623e-17 0.0011078321 6.7413558e-18 0.0011124992)
(0.0011125442 4.5483455e-05 -7.9730911e-16 0.0011048537 5.4890182e-17 0.0011093386)
(0.001111394 4.4532511e-05 -3.430872e-18 0.001101752 -1.4797945e-16 0.0011060846)
(0.0011106039 4.3693096e-05 -8.3069722e-16 0.0010986225 -6.231814e-19 0.0011028238)
(0.001109945 4.2948685e-05 1.7406451e-18 0.0010955755 1.2118575e-16 0.001099662)
(0.0011092848 4.2281318e-05 -2.1137664e-17 0.0010926731 -9.2096627e-17 0.0010966575)
(0.001108579 4.1674454e-05 8.4373355e-16 0.0010899335 -8.7394412e-17 0.0010938255)
(0.0011078261 4.1114701e-05 8.9557563e-16 0.0010873534 3.842671e-17 0.0010911604)
(0.0011070514 4.0590639e-05 7.1337399e-18 0.0010849164 -5.7530309e-17 0.0010886438)
(0.0011063036 4.0091841e-05 4.6749432e-18 0.0010825942 -8.916549e-17 0.0010862463)
(0.0011056515 3.9608353e-05 1.1221984e-17 0.0010803476 -1.9728116e-16 0.001083927)
(0.0011051871 3.9129907e-05 -9.2209053e-16 0.0010781276 -2.9047611e-16 0.0010816362)
(0.0011050313 3.8644759e-05 9.3006021e-16 0.0010758706 -4.5975588e-17 0.0010793089)
(0.0011053475 3.8138311e-05 -9.4877139e-16 0.0010734917 -1.2741368e-16 0.001076859)
(0.0011063633 3.7591353e-05 -1.9346534e-17 0.0010708744 -1.293708e-16 0.0010741681)
(0.0011084021 3.6977538e-05 9.6416582e-16 0.0010678547 1.2882157e-16 0.0010710703)
(0.0011119341 3.6259639e-05 2.8768775e-18 0.0010641962 -1.1744735e-16 0.0010673256)
(0.001117645 3.5383776e-05 1.1287758e-17 0.0010595562 3.2029935e-17 0.0010625865)
(0.001126572 3.4270456e-05 1.0002492e-15 0.0010534188 7.7285049e-17 0.00105633)
(0.0011402351 3.2798371e-05 -9.5771334e-16 0.0010450312 5.1718466e-17 0.0010477926)
(0.0011611167 3.0786529e-05 1.015605e-17 0.0010331704 1.505392e-16 0.0010357343)
(0.0011926454 2.7901794e-05 -8.3126348e-18 0.0010161553 7.0473361e-17 0.0010184486)
(0.0012421757 2.3825953e-05 8.0433543e-16 0.00099040909 4.4928895e-17 0.00099231632)
(0.0013155193 1.7087429e-05 6.9267148e-16 0.00095306383 1.5258344e-16 0.00095448635)
(0.0014412233 9.5798309e-06 4.6258956e-16 0.00088897441 -3.106072e-17 0.0008926884)
(0.0016427203 6.9782123e-06 -4.2193989e-18 0.00077580205 -4.2245738e-17 0.00080612388)
(0.0021900028 6.8912045e-06 -6.4624786e-17 0.00036938906 -6.3589211e-17 0.00067973335)
(0.0033342369 -0.00034048596 4.6462171e-16 -0.00076522492 -1.1405687e-15 0.00070703603)
(0.0034350669 -0.00034249128 2.6037773e-16 -0.00081871889 1.1034855e-17 0.00072032241)
(0.0035091716 -0.00038964839 -4.6205774e-16 -0.00075934404 -2.7533268e-16 0.0007328298)
(0.003634308 -0.00030230703 -9.7392732e-17 -0.0006701079 -5.1773255e-17 0.00072185959)
(0.005163038 -0.0019896891 -4.4043916e-17 -0.0025664809 -3.0533423e-17 0.0013657527)
(0.001230419 0.00011748841 5.39673e-17 0.0010684284 4.1311924e-18 0.0010923029)
(0.0011505832 8.4541244e-05 -9.2657449e-18 0.0011086594 -1.2576876e-16 0.0011217256)
(0.0011417559 6.9915106e-05 5.3802198e-16 0.0011096858 -2.1208836e-17 0.0011197239)
(0.0011336652 6.5841225e-05 -1.4158653e-17 0.0011094866 -1.0315112e-16 0.0011186538)
(0.0011252675 6.3477629e-05 1.0671315e-15 0.0011095267 -1.1109385e-16 0.0011180665)
(0.0011204075 6.141762e-05 -5.5517967e-16 0.0011079272 -8.0180733e-17 0.0011159703)
(0.0011177277 5.9720777e-05 2.3880098e-17 0.0011053627 1.4951969e-17 0.0011130279)
(0.0011159162 5.8319142e-05 1.1760117e-17 0.0011024985 -4.4366978e-17 0.0011098692)
(0.0011146779 5.7102249e-05 -5.8043626e-16 0.0010994911 -7.57573e-17 0.0011066174)
(0.0011138124 5.602677e-05 -3.6550504e-19 0.0010964414 -9.6011755e-17 0.0011033585)
(0.0011130878 5.5072054e-05 -9.5048039e-18 0.0010934632 -3.4187832e-18 0.0011001979)
(0.0011123688 5.4215672e-05 1.1684391e-15 0.0010906216 -5.5053623e-17 0.0010971939)
(0.0011116091 5.3436868e-05 5.8466785e-16 0.0010879368 1.6419582e-17 0.0010943619)
(0.0011108058 5.2718737e-05 -5.8398631e-16 0.0010854069 6.9028128e-17 0.0010916963)
(0.0011099831 5.2046696e-05 1.0794018e-17 0.0010830165 -1.3155711e-17 0.001089179)
(0.0011091887 5.1407281e-05 9.5667292e-18 0.0010807382 -4.2509328e-17 0.0010867805)
(0.0011084906 5.0787552e-05 -6.140867e-16 0.0010785336 -7.4821455e-17 0.0010844606)
(0.0011079801 5.0174185e-05 -6.5073488e-16 0.0010763542 -3.2991104e-16 0.0010821695)
(0.0011077768 4.9552025e-05 8.7673642e-18 0.0010741371 5.0001556e-17 0.0010798427)
(0.001108043 4.8902348e-05 -1.6113741e-17 0.0010717981 -1.8149546e-16 0.0010773947)
(0.0011090047 4.8200569e-05 6.4427434e-16 0.0010692215 -1.2687472e-16 0.001074708)
(0.0011109824 4.7412981e-05 9.6216513e-18 0.001066245 1.7562105e-16 0.001071618)
(0.0011144426 4.6491921e-05 7.380271e-18 0.0010626339 -3.1334789e-17 0.0010678866)
(0.0011200647 4.5368382e-05 1.7262974e-17 0.0010580483 2.5988819e-17 0.0010631697)
(0.0011288765 4.3940516e-05 -1.3301313e-15 0.0010519768 5.2677662e-17 0.001056949)
(0.0011423822 4.2053197e-05 5.2940998e-19 0.0010436742 -3.0431953e-17 0.0010484691)
(0.0011630408 3.9474505e-05 -1.2978671e-15 0.0010319288 7.3225227e-17 0.0010365019)
(0.0011942304 3.5783642e-05 1.2291501e-15 0.0010150831 -3.6007442e-17 0.0010193657)
(0.0012432519 3.0547189e-05 5.7673466e-16 0.00098958371 1.7742915e-16 0.00099346937)
(0.0013158192 2.2002645e-05 4.9167076e-16 0.00095262205 1.8660816e-16 0.00095599753)
(0.0014433282 1.148322e-05 1.1723355e-17 0.00088669414 3.0512317e-17 0.00089417426)
(0.0016352929 1.5071799e-05 5.0767642e-17 0.00077874457 1.2745672e-16 0.00081179726)
(0.0020574402 6.8456647e-05 2.4624194e-16 0.00041179891 6.6742631e-16 0.00077148441)
(0.0032834944 -0.00039777466 5.987492e-16 -0.00070692702 1.4473601e-16 0.00070026701)
(0.0033828206 -0.00040325716 1.1778145e-16 -0.00075343641 -5.7633643e-16 0.00070681801)
(0.0034913563 -0.00041069093 1.576743e-17 -0.00073391197 -2.4865081e-16 0.00072556936)
(0.0031426163 -0.00049757885 7.6700982e-17 -0.00021015331 5.5285592e-17 0.00073166585)
(0.0046102793 -0.0022410755 -5.0275531e-16 -0.001995474 -6.796368e-17 0.0014081636)
(0.0012361681 0.00013704261 -3.3932987e-16 0.0010612665 -1.039337e-16 0.0010956262)
(0.0011574293 0.0001054173 7.3015553e-16 0.0011024841 -1.9122774e-16 0.0011230802)
(0.001147783 8.7528863e-05 4.0187401e-17 0.001104872 9.1648723e-17 0.0011205904)
(0.0011393549 8.2198292e-05 -1.9369173e-18 0.0011051531 -2.1104467e-17 0.0011194151)
(0.0011306448 7.9222112e-05 3.9479477e-16 0.0011055484 9.7617758e-17 0.0011188138)
(0.0011255353 7.666414e-05 3.9493382e-16 0.0011042223 -5.5800989e-17 0.0011167165)
(0.0011226694 7.4557105e-05 -3.6274852e-16 0.0011018618 5.9178137e-17 0.0011137745)
(0.0011207108 7.2814882e-05 1.7597656e-17 0.0010991579 -9.6882512e-18 0.0011106171)
(0.001119349 7.1300893e-05 -1.2654452e-17 0.0010962832 -1.0228082e-16 0.0011073673)
(0.0011183777 6.9961503e-05 -4.0871632e-16 0.001093346 -4.0695174e-17 0.00110411)
(0.0011175605 6.8771471e-05 -8.4937736e-16 0.0010904649 1.0639721e-17 0.0011009502)
(0.0011167585 6.7703342e-05 4.1654671e-16 0.0010877091 2.0831764e-17 0.0010979463)
(0.0011159225 6.6731618e-05 8.613144e-16 0.0010851017 1.6656651e-16 0.0010951138)
(0.0011150477 6.5835494e-05 1.51667e-17 0.0010826428 -8.090454e-18 0.0010924471)
(0.0011141569 6.4996945e-05 1.6641023e-17 0.0010803184 2.8282488e-18 0.0010899283)
(0.0011132965 6.4199235e-05 1.2207945e-17 0.0010781024 -4.3380665e-18 0.0010875282)
(0.0011125337 6.3426203e-05 -4.5999057e-16 0.0010759572 -2.055464e-16 0.0010852069)
(0.0011119585 6.2661189e-05 -4.5924381e-16 0.0010738351 -2.1056783e-16 0.0010829146)
(0.0011116895 6.1885286e-05 -4.5477391e-16 0.0010716738 2.3377342e-17 0.0010805873)
(0.0011118875 6.1075198e-05 -1.0648986e-17 0.0010693903 -9.0932487e-17 0.0010781404)
(0.0011127763 6.0200401e-05 9.4899291e-16 0.0010668701 2.4710741e-18 0.0010754571)
(0.0011146736 5.9219091e-05 4.8774744e-16 0.0010639524 1.4159096e-16 0.0010723742)
(0.0011180413 5.8072165e-05 1.0690653e-17 0.0010604049 -3.9834429e-18 0.0010686559)
(0.0011235517 5.6674072e-05 -4.7111359e-16 0.0010558914 8.5969514e-19 0.0010639613)
(0.0011322221 5.4898546e-05 4.7699091e-16 0.001049906 -1.925098e-16 0.0010577772)
(0.0011455383 5.2553426e-05 4.977291e-18 0.0010417126 -1.3496913e-17 0.0010493569)
(0.0011659325 4.9351171e-05 -1.736158e-17 0.0010301131 -1.3543764e-16 0.0010374848)
(0.0011967257 4.4773854e-05 -4.3978027e-16 0.0010134797 7.2203439e-17 0.0010205053)
(0.0012451554 3.8262582e-05 1.314402e-18 0.00098828833 4.0148274e-17 0.00099485782)
(0.0013167565 2.7655772e-05 1.6265639e-17 0.00095186055 1.8629368e-16 0.00095777437)
(0.0014469757 1.3973665e-05 -2.1658341e-16 0.00088338736 5.1029988e-17 0.00089571409)
(0.0016394754 1.4849455e-05 -6.4180682e-18 0.00077038292 3.4833516e-19 0.00081771822)
(0.0020472726 -0.00016188195 -1.908275e-16 0.00040250999 -1.1361538e-16 0.00079336263)
(0.0032529444 -0.00042519232 3.0612171e-16 -0.00067111138 -1.9855812e-18 0.00069644951)
(0.0033320928 -0.00045938001 1.8971934e-16 -0.00069415456 -3.9488815e-17 0.00069859002)
(0.0035332978 -0.00041644433 2.2988067e-16 -0.00076147701 1.0028989e-16 0.00071088699)
(0.0028183985 0.00040983595 4.5974534e-17 0.00015453799 -5.4014352e-17 0.00067130607)
(0.0048950513 -0.0024086552 -2.5725907e-16 -0.0020964757 2.6438847e-18 0.001259564)
(0.0012432128 0.00015618243 -5.0269207e-16 0.0010531597 2.8317198e-17 0.0010994228)
(0.0011669501 0.00012819389 1.4392954e-17 0.0010940114 -5.0257154e-17 0.0011248393)
(0.001156159 0.00010736219 -5.0326082e-16 0.0010981818 1.1820661e-16 0.0011218028)
(0.0011472453 0.00010063722 -5.3395369e-18 0.0010991423 -3.5919745e-17 0.0011204876)
(0.0011381136 9.6967087e-05 8.2856722e-18 0.001100017 8.0154376e-17 0.0011198674)
(0.0011326688 9.3856516e-05 1.0383241e-17 0.0010990585 7.581893e-18 0.0011177685)
(0.0011295516 9.1294866e-05 -5.4766935e-16 0.0010969733 4.4364358e-17 0.0011148269)
(0.0011273933 8.9173871e-05 1.3312983e-17 0.0010944866 -4.0918968e-17 0.0011116715)
(0.0011258631 8.7328321e-05 -4.5709273e-18 0.0010917927 -8.7803786e-18 0.0011084241)
(0.0011247466 8.5693479e-05 3.0878536e-18 0.0010890094 -3.9429285e-17 0.0011051685)
(0.0011238019 8.4239344e-05 -3.0054166e-17 0.0010862619 -9.1902653e-17 0.0011020094)
(0.0011228849 8.2933096e-05 -3.1028206e-18 0.0010836246 -2.6673482e-18 0.0010990053)
(0.0011219429 8.1744058e-05 3.3177273e-17 0.0010811244 2.7322475e-16 0.0010961716)
(0.0011209688 8.0647141e-05 2.496941e-17 0.001078764 6.0287832e-17 0.0010935032)
(0.0011199831 7.9620543e-05 -3.0232783e-16 0.0010765315 5.3138986e-18 0.001090982)
(0.001119031 7.8643924e-05 3.2719072e-16 0.0010744021 -5.2969937e-17 0.0010885792)
(0.0011181785 7.7697557e-05 6.3732908e-16 0.0010723397 -2.1109484e-16 0.001086255)
(0.0011175138 7.6761073e-05 3.3129048e-16 0.0010702976 -2.2061236e-16 0.0010839599)
(0.0011171543 7.581135e-05 -6.7221963e-16 0.0010682146 -2.1546937e-17 0.0010816304)
(0.001117259 7.4819942e-05 3.0558915e-18 0.0010660091 -1.927822e-17 0.0010791824)
(0.0011180493 7.3749631e-05 2.9406266e-17 0.001063568 1.1381022e-16 0.0010765003)
(0.0011198393 7.2549496e-05 3.7515193e-16 0.0010607328 1.9159597e-16 0.0010734221)
(0.0011230857 7.1147595e-05 -3.3499555e-16 0.0010572742 7.8104969e-17 0.0010697142)
(0.0011284526 6.9439882e-05 -7.4232467e-19 0.0010528606 -7.7425715e-17 0.0010650394)
(0.001136945 6.7272916e-05 -6.8347933e-16 0.0010469929 -4.779524e-19 0.0010588896)
(0.0011500279 6.4413509e-05 -3.5011476e-16 0.0010389462 -3.5611901e-17 0.0010505274)
(0.001170103 6.0513023e-05 -1.3767002e-17 0.0010275391 -6.5901355e-17 0.0010387503)
(0.0012004265 5.4946914e-05 -3.4946926e-16 0.0010111785 -9.1989445e-17 0.001021931)
(0.0012481599 4.7025102e-05 -8.2923665e-18 0.00098637834 -4.1034929e-17 0.00099654202)
(0.0013185686 3.4019176e-05 1.7095732e-17 0.00095065285 1.3387615e-16 0.0009598928)
(0.001452489 1.747637e-05 1.7548305e-16 0.0008793627 2.9084089e-17 0.00089685614)
(0.0016409823 2.1387667e-06 -4.1983441e-17 0.00076751431 -9.6138416e-17 0.00082156101)
(0.0031276525 -0.00028231412 5.2689855e-16 -0.00057892963 3.8014458e-16 0.00069781742)
(0.0032803729 -0.00042488522 4.0021198e-16 -0.0007022147 3.2908616e-17 0.00070236306)
(0.0033068223 -0.00049186366 -1.080164e-16 -0.00066241871 8.5649452e-17 0.00069367809)
(0.0035451764 -0.00042244639 1.382417e-16 -0.00074086616 3.3605465e-17 0.00067554764)
(0.0035322261 0.00034802433 -9.300611e-17 -0.00056663585 1.1870168e-16 0.00066196378)
(0.0042630987 -0.0026982066 1.8333782e-17 -0.0014903352 2.1456906e-17 0.001265519)
(0.001252511 0.00017474782 8.1093337e-18 0.0010436171 -6.0952252e-17 0.0011033673)
(0.0011797068 0.00015273828 2.0669909e-18 0.0010828879 -6.8688662e-17 0.0011270725)
(0.0011675202 0.00012955636 1.3847974e-17 0.001089148 -7.1752702e-17 0.0011234532)
(0.0011579749 0.00012139738 1.048076e-17 0.0010909951 2.6283202e-17 0.0011219558)
(0.0011482955 0.00011696704 -4.2463509e-16 0.001092501 5.9848547e-17 0.0011213061)
(0.0011424128 0.00011325228 -4.37934e-16 0.0010920276 -2.4374909e-17 0.0011192023)