/*--------------------------------*- C++ -*----------------------------------*\
  =========                 |
  \\      /  F ield         | OpenFOAM: The Open Source CFD Toolbox
   \\    /   O peration     | Website:  https://openfoam.org
    \\  /    A nd           | Version:  7
     \\/     M anipulation  |
\*---------------------------------------------------------------------------*/
FoamFile
{
    version     2.0;
    format      ascii;
    class       volScalarField;
    location    "2000";
    object      k;
}
// * * * * * * * * * * * * * * * * * * * * * * * * * * * * * * * * * * * * * //

dimensions      [0 2 -2 0 0 0 0];

internalField   nonuniform List<scalar> 
15296
(
0.001693904
0.0016886851
0.0016837328
0.0016790282
0.0016745464
0.0016702733
0.0016661984
0.0016623133
0.0016586104
0.0016550829
0.0016517245
0.0016485291
0.0016454912
0.0016426057
0.0016398674
0.001637272
0.0016348136
0.0016324892
0.0016302946
0.0016282261
0.0016262803
0.0016244538
0.0016227439
0.0016211488
0.0016196685
0.0016183068
0.0016170758
0.0016160051
0.0016151697
0.0016146954
0.0016149501
0.001616909
0.0016231739
0.00164105
0.0016716136
0.0017453587
0.0018481759
0.001989086
0.0016939644
0.0016887447
0.001683797
0.0016790948
0.001674615
0.0016703436
0.0016662702
0.0016623864
0.0016586847
0.0016551581
0.0016518005
0.0016486057
0.0016455683
0.001642683
0.001639945
0.0016373496
0.0016348912
0.0016325666
0.0016303718
0.0016283029
0.0016263566
0.0016245295
0.0016228189
0.0016212231
0.0016197419
0.001618379
0.0016171465
0.0016160738
0.0016152351
0.0016147546
0.0016149957
0.0016169208
0.0016230927
0.0016408259
0.0016710633
0.0017443139
0.0018464741
0.0019625341
0.0016940917
0.0016888745
0.0016839335
0.001679235
0.0016747583
0.0016704895
0.0016664184
0.0016625364
0.0016588362
0.001655311
0.0016519544
0.0016487604
0.0016457235
0.0016428386
0.0016401007
0.0016375053
0.0016350467
0.0016327217
0.0016305263
0.0016284568
0.0016265096
0.0016246815
0.0016229698
0.0016213726
0.0016198898
0.0016185252
0.0016172904
0.0016162146
0.0016153713
0.0016148832
0.0016151079
0.0016169938
0.0016230576
0.0016406345
0.0016705021
0.0017431783
0.0018439763
0.0019388861
0.0016942795
0.0016890718
0.0016841387
0.001679445
0.0016749722
0.0016707067
0.0016666384
0.0016627588
0.0016590606
0.0016555369
0.0016521815
0.0016489885
0.0016459522
0.0016430677
0.0016403298
0.0016377343
0.0016352753
0.0016329497
0.0016307535
0.0016286829
0.0016267345
0.001624905
0.0016231917
0.0016215927
0.0016201079
0.0016187408
0.0016175031
0.0016164235
0.0016155749
0.0016150783
0.0016152857
0.0016171317
0.0016230851
0.0016405048
0.0016700118
0.0017420267
0.0018399259
0.001954718
0.0016945258
0.0016893364
0.0016844119
0.0016797241
0.0016752561
0.0016709946
0.0016669296
0.0016630528
0.0016593569
0.0016558351
0.0016524812
0.0016492891
0.0016462536
0.0016433694
0.0016406316
0.0016380358
0.0016355762
0.0016332498
0.0016310525
0.0016289806
0.0016270306
0.0016251993
0.001623484
0.0016218827
0.0016203952
0.0016190252
0.001617784
0.0016166998
0.0016158451
0.001615339
0.0016155283
0.0016173334
0.0016231742
0.0016404372
0.0016695921
0.001740901
0.0018343649
0.0019798575
0.0016949188
0.0016897643
0.0016848516
0.0016801726
0.001675712
0.0016714565
0.0016673966
0.001663524
0.0016598316
0.0016563126
0.0016529607
0.0016497702
0.0016467356
0.0016438518
0.0016411139
0.0016385176
0.0016360572
0.0016337294
0.0016315304
0.0016294564
0.001627504
0.0016256698
0.0016239513
0.0016223464
0.0016208549
0.0016194803
0.0016182337
0.0016171427
0.001616279
0.0016157598
0.0016159244
0.0016176759
0.0016233695
0.00164043
0.0016691445
0.0017395193
0.0018260068
0.0020090404
0.0016955719
0.0016904771
0.001685582
0.0016809173
0.0016764682
0.0016722222
0.0016681701
0.0016643041
0.0016606169
0.0016571021
0.0016537534
0.0016505651
0.0016475319
0.0016446486
0.0016419105
0.0016393132
0.0016368512
0.0016345212
0.0016323193
0.0016302419
0.0016282854
0.0016264467
0.001624723
0.0016231123
0.0016216144
0.0016202324
0.0016189774
0.001617876
0.0016169986
0.0016164608
0.0016165917
0.0016182733
0.0016237766
0.0016405768
0.0016687596
0.001737901
0.0018151909
0.0020294877
0.0016965268
0.00169149
0.0016866236
0.0016819793
0.0016775461
0.001673313
0.0016692716
0.0016654144
0.0016617344
0.0016582251
0.0016548806
0.0016516951
0.0016486636
0.0016457808
0.0016430423
0.0016404435
0.0016379793
0.0016356461
0.00163344
0.0016313577
0.0016293955
0.0016275504
0.0016258194
0.0016242007
0.0016226939
0.0016213018
0.0016200351
0.0016189199
0.0016180242
0.001617463
0.0016175531
0.0016191534
0.0016244401
0.0016409401
0.0016685613
0.001736188
0.0018050918
0.0020335551
0.0016978947
0.0016928951
0.0016880756
0.0016834603
0.0016790487
0.0016748331
0.0016708061
0.0016669606
0.00166329
0.0016597881
0.001656449
0.0016532673
0.0016502378
0.0016473557
0.0016446163
0.0016420154
0.001639548
0.0016372102
0.0016349984
0.0016329092
0.0016309392
0.0016290852
0.0016273443
0.0016257146
0.0016241954
0.0016227897
0.0016215073
0.0016203735
0.0016194539
0.001618863
0.0016189036
0.0016204094
0.0016254515
0.0016416003
0.0016686388
0.0017343179
0.0017978693
0.0020191723
0.0016997467
0.0016948317
0.0016900696
0.0016854931
0.0016811113
0.0016769197
0.0016729125
0.0016690833
0.0016654259
0.0016619342
0.0016586028
0.0016554264
0.0016524001
0.0016495192
0.0016467791
0.0016441757
0.0016417046
0.001639361
0.001637142
0.0016350441
0.0016330639
0.0016311984
0.0016294446
0.0016278005
0.0016262654
0.0016248418
0.001623539
0.0016223812
0.001621431
0.0016208027
0.0016207832
0.0016221783
0.0016269445
0.00164267
0.0016691096
0.0017322463
0.0017943243
0.0019949554
0.0017022281
0.0016974675
0.0016927742
0.0016882496
0.0016839087
0.0016797505
0.0016757708
0.0016719642
0.0016683251
0.001664848
0.0016615278
0.0016583594
0.0016553383
0.0016524599
0.0016497199
0.0016471141
0.001644639
0.0016422887
0.001640061
0.0016379526
0.00163596
0.0016340801
0.0016323101
0.0016306479
0.0016290925
0.001627646
0.0016263173
0.0016251289
0.0016241401
0.0016234649
0.0016233725
0.001624637
0.0016290935
0.0016442908
0.0016701168
0.0017300577
0.0017939124
0.0019699818
0.0017056406
0.0017009914
0.0016964003
0.0016919471
0.0016876615
0.0016835482
0.0016796054
0.0016758293
0.0016722149
0.0016687574
0.0016654522
0.0016622947
0.0016592808
0.0016564061
0.0016536666
0.0016510582
0.001648578
0.0016462196
0.001643981
0.0016418591
0.0016398505
0.0016379522
0.0016361613
0.0016344756
0.001632894
0.001631418
0.0016300556
0.001628828
0.0016277902
0.001627056
0.0016268746
0.0016279846
0.0016320992
0.0016466147
0.0016718178
0.0017280501
0.0017952531
0.0019498314
0.0017101949
0.0017056945
0.0017012268
0.0016968656
0.0016926533
0.0016885997
0.0016847059
0.0016809698
0.0016773878
0.001673956
0.0016706704
0.0016675273
0.0016645227
0.0016616529
0.001658914
0.0016563023
0.0016538147
0.0016514464
0.0016491938
0.0016470543
0.001645025
0.0016431027
0.0016412845
0.0016395682
0.0016379523
0.001636438
0.0016350319
0.0016337536
0.0016326534
0.0016318446
0.0016315547
0.0016324804
0.0016362228
0.0016498207
0.0016743994
0.0017266439
0.0017971719
0.0019357876
0.0017162083
0.0017119493
0.0017076163
0.0017033709
0.0016992566
0.0016952832
0.001691455
0.0016877728
0.0016842345
0.0016808377
0.0016775793
0.0016744563
0.0016714655
0.0016686036
0.0016658671
0.0016632528
0.0016607574
0.0016583782
0.0016561088
0.0016539484
0.0016518938
0.001649942
0.0016480902
0.0016463358
0.0016446772
0.0016431147
0.0016416539
0.001640312
0.0016391339
0.0016382318
0.0016378101
0.0016385155
0.0016418538
0.0016542258
0.0016781612
0.0017263243
0.0017993339
0.0019265945
0.0017243576
0.0017201868
0.0017160254
0.0017119345
0.0017079496
0.0017040827
0.0017003423
0.0016967325
0.0016932536
0.0016899048
0.0016866845
0.0016835906
0.0016806205
0.0016777718
0.0016750415
0.0016724268
0.0016699248
0.0016675337
0.0016652466
0.0016630627
0.0016609789
0.0016589924
0.0016571004
0.0016553001
0.0016535895
0.0016519681
0.0016504398
0.0016490195
0.0016477459
0.0016467282
0.0016461473
0.0016465897
0.0016494889
0.0016604215
0.0016835536
0.0017276654
0.0018022028
0.0019208838
0.001737056
0.0017330767
0.0017291454
0.0017252759
0.0017214846
0.0017177802
0.0017141749
0.0017106773
0.0017072912
0.0017040181
0.0017008585
0.0016978116
0.0016948762
0.0016920506
0.0016893329
0.0016867209
0.0016842122
0.0016818046
0.0016794954
0.0016772794
0.0016751546
0.0016731189
0.0016711693
0.0016693029
0.0016675168
0.0016658092
0.0016641821
0.0016626465
0.0016612336
0.0016600445
0.0016592363
0.0016593087
0.0016616376
0.0016706687
0.0016926232
0.0017320445
0.0018075283
0.0019180574
0.001756034
0.0017524089
0.0017487869
0.0017452002
0.0017416651
0.0017381845
0.0017347704
0.0017314344
0.0017281838
0.001725023
0.0017219548
0.0017189805
0.0017161003
0.0017133139
0.0017106202
0.0017080182
0.0017055061
0.0017030821
0.0017007454
0.0016984914
0.0016963143
0.0016942148
0.0016921898
0.0016902353
0.0016883476
0.0016865233
0.0016847616
0.001683068
0.0016814659
0.0016800322
0.0016789237
0.0016785141
0.0016801419
0.0016869718
0.0017073738
0.0017417657
0.0018178688
0.0019204512
0.0017804796
0.0017771668
0.001773855
0.0017705654
0.0017673092
0.001764081
0.0017608894
0.0017577465
0.0017546616
0.0017516413
0.0017486903
0.0017458117
0.0017430072
0.0017402776
0.0017376231
0.0017350435
0.0017325379
0.0017301051
0.0017277438
0.0017254538
0.0017232259
0.001721062
0.0017189572
0.0017169075
0.001714908
0.0017129536
0.0017110401
0.0017091671
0.0017073496
0.0017056307
0.0017041837
0.0017032401
0.0017041063
0.0017087701
0.0017274686
0.0017571022
0.0018331631
0.0019288585
0.0018114176
0.0018083783
0.0018053627
0.0018023676
0.0017993963
0.0017964341
0.001793484
0.0017905569
0.0017876618
0.001784806
0.0017819954
0.0017792342
0.0017765254
0.0017738707
0.0017712711
0.0017687273
0.0017662392
0.0017638063
0.0017614276
0.0017591017
0.0017568272
0.0017545996
0.0017524111
0.0017502596
0.0017481392
0.0017460424
0.001743961
0.0017418876
0.001739828
0.0017377961
0.0017359648
0.0017344348
0.001734465
0.0017370432
0.0017537603
0.0017795925
0.0018489872
0.0019375933
0.0018498221
0.0018471249
0.0018444228
0.0018417203
0.0018390304
0.0018363359
0.0018336353
0.0018309368
0.0018282479
0.0018255752
0.0018229244
0.0018203001
0.0018177056
0.0018151433
0.0018126147
0.0018101211
0.0018076629
0.0018052402
0.0018028526
0.0018004983
0.0017981784
0.0017958864
0.0017936166
0.0017913604
0.0017891128
0.001786864
0.0017846013
0.0017823095
0.0017799833
0.0017776105
0.0017753497
0.0017731868
0.0017722963
0.0017729289
0.0017869969
0.0018097315
0.001868771
0.0019484383
0.0018969644
0.0018946222
0.0018922427
0.0018898371
0.0018874306
0.0018850068
0.0018825615
0.0018801012
0.0018776316
0.0018751577
0.0018726843
0.0018702158
0.0018677551
0.0018653045
0.0018628659
0.0018604404
0.001858029
0.001855632
0.0018532492
0.0018508792
0.0018485207
0.0018461697
0.001843824
0.0018414713
0.0018390982
0.001836696
0.0018342462
0.0018317252
0.0018291154
0.001826382
0.0018236341
0.0018208101
0.0018189127
0.0018178113
0.001827804
0.0018476775
0.0018966441
0.0019675693
0.0019541918
0.0019521566
0.0019500949
0.0019479966
0.0019458849
0.0019437411
0.0019415586
0.0019393434
0.001937101
0.0019348358
0.0019325517
0.0019302523
0.0019279402
0.0019256171
0.0019232846
0.0019209436
0.001918595
0.001916239
0.0019138755
0.0019115032
0.0019091199
0.0019067215
0.0019043025
0.0019018574
0.0018993675
0.0018968174
0.001894178
0.0018914219
0.0018885174
0.0018854073
0.0018821276
0.0018786224
0.0018756368
0.001872977
0.0018777378
0.0018947706
0.0019343755
0.0019989879
0.0020226855
0.0020209973
0.0020192975
0.0020175411
0.002015746
0.0020138942
0.0020119798
0.0020100116
0.0020079973
0.0020059416
0.0020038489
0.0020017224
0.0019995641
0.0019973752
0.0019951566
0.0019929089
0.0019906325
0.0019883273
0.0019859928
0.0019836274
0.0019812285
0.0019787914
0.0019763088
0.0019737705
0.0019711654
0.0019684665
0.0019656419
0.0019626509
0.0019594462
0.0019559415
0.0019521226
0.0019479024
0.0019437768
0.0019395689
0.0019397325
0.0019530108
0.0019850452
0.0020353782
0.0021037655
0.0021025886
0.0021013165
0.0020999252
0.0020984534
0.0020968933
0.0020952431
0.0020935157
0.0020917217
0.0020898679
0.0020879593
0.0020859995
0.0020839905
0.0020819329
0.0020798271
0.0020776731
0.0020754707
0.0020732191
0.0020709174
0.0020685635
0.0020661539
0.0020636829
0.0020611421
0.0020585185
0.002055795
0.0020529438
0.0020499334
0.0020467045
0.0020431925
0.002039289
0.0020349337
0.0020299321
0.0020246732
0.0020188449
0.0020152849
0.0020225532
0.0020490807
0.0020780912
0.0021995756
0.0021986778
0.0021977288
0.0021966559
0.0021954811
0.0021941926
0.0021927877
0.0021912816
0.0021896883
0.0021880167
0.0021862734
0.0021844627
0.0021825867
0.0021806461
0.0021786407
0.0021765699
0.002174433
0.0021722287
0.0021699552
0.0021676096
0.0021651876
0.0021626823
0.0021600835
0.0021573762
0.0021545386
0.0021515389
0.0021483343
0.0021448595
0.0021410335
0.0021367253
0.002131833
0.0021260256
0.0021196662
0.0021121287
0.0021056473
0.002104004
0.0021257118
0.0021357923
0.002310978
0.0023105058
0.0023099212
0.0023091571
0.0023082478
0.0023071913
0.0023059893
0.0023046617
0.0023032263
0.0023016949
0.002300076
0.0022983749
0.0022965943
0.0022947349
0.0022927966
0.0022907785
0.002288679
0.0022864966
0.0022842285
0.0022818711
0.0022794189
0.0022768639
0.0022741939
0.0022713913
0.0022684306
0.0022652748
0.0022618725
0.002258147
0.0022540023
0.0022492731
0.0022438308
0.0022372707
0.0022297724
0.0022205576
0.0022114009
0.0022026398
0.002217198
0.0022122741
0.0024398992
0.0024396798
0.0024393459
0.0024388025
0.0024380769
0.0024371699
0.0024360867
0.0024348524
0.00243349
0.002432015
0.0024304385
0.0024287675
0.0024270057
0.0024251542
0.0024232128
0.0024211805
0.0024190555
0.0024168355
0.0024145172
0.0024120963
0.002409566
0.0024069167
0.0024041346
0.0024011992
0.0023980813
0.0023947383
0.0023911114
0.0023871116
0.0023826272
0.0023774664
0.0023714573
0.002364158
0.0023555009
0.0023447353
0.0023329558
0.0023190884
0.0023220331
0.0023043623
0.0025877294
0.00258765
0.0025874305
0.0025869593
0.0025862624
0.0025853472
0.002584226
0.0025829311
0.0025814922
0.0025799292
0.0025782561
0.002576482
0.0025746113
0.0025726457
0.0025705848
0.0025684275
0.0025661714
0.0025638139
0.0025613509
0.0025587771
0.0025560849
0.002553263
0.0025502956
0.0025471596
0.002543822
0.0025402348
0.0025363316
0.0025320126
0.0025271499
0.0025215292
0.0025149364
0.0025068931
0.0024971674
0.0024848835
0.0024706459
0.0024529037
0.0024447201
0.002414816
0.0027563554
0.0027560835
0.0027556519
0.0027549368
0.0027539633
0.0027527462
0.0027513068
0.0027496851
0.0027479168
0.0027460258
0.0027440285
0.0027419347
0.0027397491
0.0027374729
0.0027351051
0.0027326438
0.0027300861
0.0027274283
0.0027246657
0.0027217919
0.0027187981
0.0027156718
0.0027123951
0.0027089424
0.002705277
0.002701346
0.0026970759
0.002692357
0.0026870465
0.0026809111
0.0026736991
0.0026649001
0.0026541747
0.0026404643
0.0026240624
0.0026029656
0.0025876377
0.0025419033
0.0029469034
0.0029460199
0.0029449427
0.0029435475
0.0029418651
0.0029399225
0.0029377548
0.0029354132
0.0029329398
0.0029303621
0.0029276981
0.0029249576
0.0029221443
0.0029192578
0.002916296
0.0029132556
0.0029101323
0.0029069215
0.0029036175
0.0029002129
0.0028966979
0.0028930587
0.0028892757
0.002885321
0.0028811548
0.0028767199
0.0028719365
0.0028666866
0.0028608144
0.0028540726
0.0028461764
0.0028365988
0.0028248954
0.0028099958
0.0027916924
0.0027677607
0.0027480088
0.0026876735
0.003160315
0.0031581835
0.0031558368
0.0031531569
0.0031501773
0.0031469361
0.0031434855
0.0031398886
0.0031361934
0.0031324309
0.0031286198
0.0031247692
0.0031208808
0.0031169527
0.0031129808
0.0031089605
0.0031048864
0.003100753
0.0030965538
0.0030922808
0.0030879235
0.0030834672
0.0030788911
0.0030741656
0.0030692485
0.0030640792
0.0030585731
0.0030526062
0.0030460123
0.0030385352
0.0030298642
0.0030194695
0.0030068221
0.002990891
0.0029711191
0.0029449873
0.002921853
0.0028547193
0.0033976827
0.0033933677
0.0033888431
0.0033840093
0.0033788942
0.003373541
0.0033680205
0.0033624069
0.0033567525
0.0033510903
0.0033454396
0.003339808
0.0033341956
0.0033285992
0.0033230135
0.0033174331
0.0033118524
0.0033062656
0.0033006663
0.0032950464
0.0032893953
0.0032836981
0.0032779332
0.0032720701
0.003266065
0.0032598552
0.0032533527
0.0032464298
0.0032389136
0.0032305445
0.0032209948
0.0032097432
0.0031962096
0.0031794054
0.0031586457
0.0031312169
0.00310543
0.0030368337
0.00365074
0.0036432238
0.003635477
0.0036274404
0.0036191377
0.0036106216
0.0036019921
0.0035933421
0.0035847323
0.0035762026
0.0035677763
0.0035594625
0.0035512623
0.0035431728
0.0035351893
0.0035273068
0.0035195201
0.0035118238
0.0035042118
0.0034966761
0.0034892059
0.0034817858
0.0034743937
0.003466998
0.0034595539
0.0034519969
0.0034442376
0.0034361466
0.0034275483
0.0034181844
0.0034077213
0.0033956539
0.0033813837
0.0033639813
0.0033426878
0.0033150069
0.0032877677
0.0032213052
0.0039014117
0.0038897904
0.0038778017
0.0038654633
0.0038528234
0.0038399738
0.0038270743
0.0038142569
0.0038016053
0.003789176
0.0037770024
0.0037650987
0.003753468
0.0037421081
0.003731014
0.0037201796
0.0037095983
0.003699263
0.0036891658
0.0036792969
0.0036696434
0.0036601877
0.0036509057
0.0036417638
0.0036327153
0.0036236946
0.0036146108
0.0036053347
0.0035956907
0.0035854251
0.0035742069
0.003561551
0.0035468649
0.0035292813
0.0035080297
0.0034808574
0.003453556
0.0033913309
0.0041397853
0.0041230717
0.0041056392
0.0040877086
0.0040694307
0.004050995
0.004032659
0.0040146107
0.0039969626
0.0039797872
0.0039631229
0.0039469819
0.0039313616
0.003916253
0.0039016433
0.0038875191
0.0038738669
0.0038606734
0.0038479249
0.0038356064
0.0038237003
0.0038121849
0.0038010325
0.0037902064
0.0037796574
0.003769318
0.0037590966
0.0037488641
0.0037384466
0.003727596
0.0037159876
0.0037031559
0.0036885264
0.0036712858
0.0036506872
0.003624697
0.0035982953
0.0035411571
0.0043647739
0.0043409991
0.0043163259
0.0042912311
0.0042659621
0.0042408034
0.0042160968
0.0041920609
0.0041688118
0.0041464145
0.0041248911
0.0041042337
0.0040844206
0.0040654244
0.0040472168
0.0040297707
0.0040130614
0.0039970663
0.0039817642
0.0039671335
0.0039531512
0.0039397909
0.0039270211
0.0039148017
0.0039030809
0.0038917895
0.0038808343
0.0038700865
0.0038593733
0.0038484509
0.0038370013
0.0038245747
0.003810617
0.003794356
0.0037750837
0.0037509288
0.0037263219
0.0036742058
0.0045763302
0.0045430778
0.0045090626
0.0044751724
0.0044417074
0.0044089773
0.0043773276
0.0043469324
0.0043178553
0.0042901133
0.0042636839
0.0042385208
0.0042145715
0.0041917844
0.004170112
0.0041495132
0.0041299525
0.0041113993
0.004093826
0.0040772059
0.0040615113
0.004046712
0.0040327723
0.0040196487
0.0040072859
0.003995611
0.0039845279
0.0039739052
0.0039635684
0.0039532736
0.0039427063
0.0039314239
0.0039188895
0.0039043549
0.0038871544
0.0038655076
0.0038435703
0.0037961015
0.0047740138
0.0047287427
0.0046840468
0.0046407262
0.0045987616
0.0045583091
0.004519632
0.0044828225
0.0044478817
0.0044147789
0.0043834512
0.0043538201
0.0043258084
0.0042993462
0.0042743728
0.0042508375
0.0042286982
0.004207919
0.0041884675
0.0041703121
0.0041534197
0.0041377539
0.0041232722
0.0041099236
0.0040976445
0.0040863534
0.0040759454
0.0040662796
0.0040571733
0.0040483742
0.0040395635
0.0040302947
0.0040200399
0.0040080567
0.0039937174
0.0039752685
0.0039568195
0.0039136271
0.0049609668
0.0049038841
0.0048482401
0.0047949984
0.0047439479
0.0046951888
0.0046489454
0.0046052457
0.0045640404
0.0045252574
0.0044887982
0.0044545567
0.0044224357
0.0043923503
0.0043642294
0.0043380141
0.004313655
0.0042911086
0.0042703331
0.0042512857
0.0042339202
0.004218185
0.004204021
0.0041913589
0.0041801166
0.0041701927
0.0041614622
0.004153764
0.0041468958
0.0041405859
0.0041345004
0.0041281767
0.0041210865
0.0041124771
0.0041017509
0.0040871431
0.0040728511
0.0040337302
0.0051390967
0.0050715618
0.0050051952
0.0049416131
0.0048807491
0.0048228834
0.0047683158
0.0047170651
0.0046690601
0.0046242017
0.0045823636
0.0045434175
0.0045072486
0.0044737581
0.0044428613
0.0044144857
0.0043885657
0.0043650375
0.0043438353
0.0043248881
0.0043081183
0.0042934406
0.0042807609
0.0042699743
0.0042609628
0.0042535898
0.0042476954
0.0042430847
0.0042395235
0.0042367093
0.0042342843
0.0042317597
0.0042286015
0.0042240379
0.0042174954
0.0042071971
0.0041974381
0.0041623966
0.0053071762
0.0052289764
0.0051516933
0.0050775194
0.0050065152
0.0049392052
0.0048760108
0.0048169842
0.0047620721
0.0047111779
0.0046641699
0.0046209119
0.0045812776
0.0045451511
0.0045124246
0.0044829942
0.0044567549
0.0044335959
0.0044133973
0.0043960299
0.0043813555
0.0043692278
0.0043594935
0.0043519909
0.004346548
0.0043429774
0.0043410723
0.0043405935
0.0043412681
0.0043427571
0.0043446772
0.0043465124
0.004347727
0.004347533
0.0043453821
0.0043395262
0.0043342353
0.0043034396
0.0054644769
0.0053737755
0.0052843188
0.0051987622
0.0051171587
0.005040221
0.004968444
0.0049019025
0.0048405696
0.0047843636
0.0047331552
0.0046867977
0.0046451387
0.004608018
0.0045752669
0.0045467058
0.0045221415
0.0045013665
0.0044841606
0.0044702945
0.0044595342
0.0044516455
0.004446395
0.0044435499
0.0044428756
0.0044441291
0.0044470553
0.0044513731
0.0044567759
0.0044628959
0.0044693349
0.0044755615
0.0044810553
0.0044850273
0.0044869666
0.0044852261
0.0044838197
0.0044574801
0.0056089341
0.0055032427
0.005399933
0.0053019457
0.0052092032
0.0051225577
0.0050425393
0.0049692421
0.0049026673
0.0048427356
0.0047892874
0.0047421106
0.0047009523
0.0046655226
0.0046355014
0.0046105452
0.0045902929
0.004574373
0.0045624123
0.0045540454
0.0045489222
0.0045467119
0.0045471036
0.0045498024
0.0045545241
0.0045609868
0.0045689054
0.0045779765
0.0045878805
0.0045982431
0.0046086752
0.0046186522
0.0046276971
0.0046350418
0.0046402335
0.0046418111
0.0046432415
0.0046214989
0.0057386607
0.0056155883
0.0054966613
0.0053850471
0.0052805751
0.005184298
0.0050968147
0.0050182609
0.0049486382
0.0048877827
0.0048353671
0.0047909441
0.0047539799
0.004723883
0.004700034
0.0046818088
0.0046685962
0.0046598132
0.0046549176
0.0046534169
0.0046548718
0.0046588932
0.0046651348
0.0046732823
0.0046830427
0.0046941329
0.0047062727
0.004719169
0.0047325211
0.0047459764
0.0047591845
0.0047716526
0.0047829768
0.0047924293
0.0047996404
0.0048034043
0.0048063549
0.0047892184
0.0058545133
0.0057110758
0.0055741858
0.0054473334
0.0053304974
0.0052251135
0.0051319142
0.0050510255
0.0049822544
0.004925046
0.0048785452
0.0048417158
0.004813443
0.0047926142
0.0047781755
0.0047691644
0.0047647251
0.0047641148
0.0047667036
0.0047719672
0.0047794733
0.0047888631
0.0047998309
0.0048121057
0.0048254367
0.004839581
0.0048542987
0.0048693372
0.0048844409
0.0048993029
0.0049136329
0.0049269873
0.0049390567
0.0049491605
0.0049570366
0.0049617651
0.0049649294
0.0049522779
0.0059591815
0.0057904451
0.0056320614
0.0054880096
0.0053588009
0.0052464144
0.0051515812
0.0050739907
0.0050125934
0.0049657019
0.0049312698
0.0049071927
0.0048915156
0.0048825404
0.0048788572
0.0048793297
0.0048830616
0.0048893609
0.0048977038
0.0049076983
0.004919047
0.0049315138
0.0049448969
0.0049590101
0.0049736721
0.0049886992
0.0050039057
0.0050190908
0.0050340531
0.0050485383
0.0050623229
0.0050750142
0.0050864064
0.005095855
0.0051032295
0.0051078737
0.0051102168
0.0051018496
0.0060528447
0.0058519189
0.0056678762
0.0055056401
0.0053667375
0.005253472
0.0051656301
0.0051010283
0.0050562328
0.0050272089
0.0050100466
0.0050014448
0.0049988745
0.0050005182
0.0050051202
0.0050118318
0.0050200919
0.0050295396
0.0050399491
0.0050511761
0.005063115
0.0050756685
0.0050887317
0.005102185
0.0051158972
0.0051297263
0.0051435265
0.0051571367
0.0051704002
0.0051831048
0.0051950864
0.0052059911
0.0052157154
0.005223623
0.0052297453
0.0052336074
0.0052345185
0.0052302318
0.0061311643
0.0058897586
0.0056772732
0.0055001909
0.0053610902
0.0052607566
0.0051948741
0.0051561463
0.0051365454
0.0051289849
0.0051282524
0.0051310805
0.0051356961
0.0051412569
0.0051474167
0.0051540697
0.0051612216
0.0051689256
0.0051772404
0.0051861993
0.005195792
0.0052059606
0.0052166076
0.0052276095
0.0052388317
0.005250135
0.0052613853
0.0052724388
0.0052831651
0.0052933774
0.0053029577
0.0053115727
0.0053192188
0.0053252284
0.0053298385
0.0053326201
0.0053319215
0.0053315799
0.0061896159
0.0058993847
0.0056604319
0.0054823062
0.0053655887
0.0053022014
0.0052762034
0.0052711218
0.0052744995
0.0052791307
0.0052821205
0.005283137
0.0052828942
0.0052822565
0.0052818992
0.0052822724
0.0052836568
0.0052862094
0.0052899822
0.0052949318
0.0053009361
0.0053078214
0.0053153909
0.0053234489
0.0053318161
0.0053403314
0.0053488555
0.0053572488
0.0053653962
0.0053731245
0.0053803538
0.0053867557
0.0053924289
0.0053966297
0.0053998621
0.0054015688
0.0053993432
0.005403123
0.0062218283
0.0058804023
0.0056302158
0.0054814385
0.0054180408
0.0054078991
0.005418019
0.0054275048
0.0054283952
0.0054208166
0.0054080672
0.005393594
0.005379802
0.0053679777
0.0053586472
0.0053519372
0.0053477848
0.0053460179
0.0053463795
0.0053485499
0.0053521791
0.0053569244
0.0053624786
0.005368584
0.0053750333
0.0053816581
0.0053883236
0.0053948994
0.0054012856
0.005407322
0.0054129612
0.0054178776
0.0054222563
0.0054252769
0.005427685
0.0054287496
0.0054255214
0.0054327308
0.0062353758
0.0058555903
0.0056242915
0.0055348893
0.0055328136
0.0055577689
0.0055723273
0.005565885
0.0055427236
0.005511186
0.0054783305
0.0054484551
0.005423445
0.0054036718
0.0053888065
0.0053783031
0.0053715861
0.0053680832
0.0053672225
0.0053684456
0.0053712377
0.0053751559
0.0053798437
0.005385028
0.0053905057
0.0053961208
0.0054017539
0.0054072895
0.005412645
0.0054176733
0.005422353
0.0054263609
0.0054299451
0.0054322212
0.0054341169
0.0054347481
0.0054307276
0.0054405727
0.0062316378
0.0058323181
0.005666623
0.0056668943
0.005715513
0.0057384421
0.0057189333
0.005670122
0.0056097821
0.005550565
0.0054990579
0.0054574684
0.0054255246
0.0054019218
0.0053851811
0.0053739968
0.0053672797
0.0053640993
0.0053636377
0.0053651825
0.005368139
0.0053720394
0.0053765367
0.0053813838
0.0053864085
0.0053914842
0.0053965172
0.0054014132
0.0054061104
0.0054104766
0.0054145167
0.0054179061
0.0054209559
0.0054226979
0.005424272
0.0054245251
0.0054198622
0.0054321812
0.0062094045
0.005839063
0.0057975475
0.005885454
0.0059322532
0.0058979841
0.0058116326
0.0057092579
0.0056131054
0.0055327633
0.0054702873
0.0054240363
0.0053910405
0.0053683061
0.005353357
0.0053442995
0.0053396872
0.0053383763
0.0053394386
0.0053421282
0.0053458696
0.0053502437
0.0053549622
0.0053598349
0.0053647384
0.0053695849
0.0053743116
0.0053788476
0.0053831537
0.005387111
0.0053907511
0.0053937394
0.0053964575
0.0053978163
0.0053992427
0.0053990887
0.0053940527
0.0054085355
0.0061817282
0.0059246961
0.0060420261
0.0061533403
0.0061170565
0.0059815289
0.0058193198
0.0056714584
0.0055522777
0.0054629107
0.0053992397
0.0053556717
0.0053269558
0.0053088963
0.0052984137
0.0052933142
0.0052920163
0.0052933444
0.0052964097
0.0053005484
0.0053052858
0.0053103025
0.0053153983
0.0053204537
0.005325399
0.005330186
0.0053347819
0.0053391376
0.0053432344
0.005346963
0.0053503816
0.0053531342
0.0053556858
0.0053567769
0.0053582355
0.005357585
0.0053526627
0.005368617
0.0061718262
0.0061399405
0.0063741199
0.006390168
0.0062038613
0.0059580333
0.0057357369
0.0055622273
0.0054367384
0.0053507187
0.0052943849
0.0052591094
0.005238249
0.0052270746
0.0052223445
0.005221862
0.0052241305
0.0052281141
0.0052330884
0.005238554
0.0052441831
0.0052497773
0.0052552292
0.0052604869
0.0052655285
0.0052703386
0.0052749086
0.0052792058
0.0052832289
0.005286872
0.0052902205
0.0052928842
0.0052954309
0.0052963723
0.0052980878
0.0052968318
0.0052928589
0.0053088879
0.0062171413
0.0064952194
0.0067034313
0.0065120941
0.0061582412
0.0058252293
0.0055705788
0.0053931833
0.0052763605
0.0052032254
0.0051598134
0.005135801
0.0051241861
0.0051203532
0.0051212724
0.0051249904
0.0051302772
0.0051363627
0.0051427608
0.0051491686
0.0051554103
0.0051613989
0.0051671044
0.0051725265
0.0051776772
0.0051825628
0.0051871906
0.0051915376
0.0051956157
0.0051993175
0.0052027578
0.0052055002
0.0052082422
0.0052092051
0.0052114986
0.005209591
0.0052078733
0.0052215555
0.0063541906
0.0069149221
0.0069200739
0.0064742548
0.0059778482
0.0055935762
0.0053344096
0.005171103
0.005073344
0.005018261
0.0049895831
0.0049768425
0.0049736776
0.0049760555
0.0049813851
0.0049881126
0.0049953829
0.0050027423
0.0050099465
0.0050168656
0.0050234427
0.0050296691
0.0050355641
0.0050411566
0.0050464755
0.0050515368
0.0050563556
0.0050609126
0.0050652311
0.005069199
0.0050729663
0.0050760437
0.0050792909
0.0050805864
0.0050839552
0.0050815683
0.0050839308
0.005091775
0.0065458638
0.0072624697
0.0069563387
0.0062633797
0.0056638696
0.0052633641
0.0050212666
0.0048824376
0.004807107
0.0047695317
0.0047530733
0.0047487365
0.004751421
0.0047577482
0.0047655769
0.004773792
0.0047819189
0.0047897755
0.0047972898
0.004804437
0.0048112226
0.0048176733
0.0048238265
0.0048297183
0.0048353801
0.0048408281
0.0048460808
0.0048511209
0.0048559851
0.0048605606
0.0048650443
0.0048689004
0.0048731867
0.0048754248
0.0048806939
0.0048785574
0.0048872881
0.004885515
0.0067044498
0.0074762313
0.0067887206
0.0058616301
0.0052006924
0.0048119516
0.0045967899
0.0044821884
0.0044248449
0.0043991012
0.0043893337
0.0043890144
0.0043943366
0.0044022191
0.0044108113
0.004419367
0.0044276863
0.0044357315
0.0044434931
0.0044509715
0.0044581808
0.0044651472
0.0044719025
0.0044784758
0.0044848929
0.0044911675
0.004497322
0.0045033463
0.0045092984
0.0045150787
0.0045209482
0.0045263534
0.0045325789
0.004536848
0.0045453177
0.0045450772
0.0045625134
0.0045503124
0.0065593431
0.007519821
0.0063564381
0.0052058253
0.004501433
0.0041064914
0.0038892509
0.0037747022
0.0037181394
0.0036925014
0.003681881
0.0036816593
0.0036874804
0.0036956398
0.0037043344
0.0037130335
0.0037216426
0.0037301389
0.0037385001
0.0037467116
0.0037547743
0.0037627014
0.0037705129
0.0037782289
0.0037858717
0.0037934587
0.0038010246
0.0038085804
0.0038162179
0.0038238815