/*--------------------------------*- C++ -*----------------------------------*\
  =========                 |
  \\      /  F ield         | OpenFOAM: The Open Source CFD Toolbox
   \\    /   O peration     | Website:  https://openfoam.org
    \\  /    A nd           | Version:  7
     \\/     M anipulation  |
\*---------------------------------------------------------------------------*/
FoamFile
{
    version     2.0;
    format      ascii;
    class       volScalarField;
    location    "2000";
    object      omega;
}
// * * * * * * * * * * * * * * * * * * * * * * * * * * * * * * * * * * * * * //

dimensions      [0 0 -1 0 0 0 0];

internalField   nonuniform List<scalar> 
15296
(
0.85603891
0.85299768
0.8500127
0.84708579
0.84421304
0.84139306
0.83862481
0.83590738
0.8332399
0.83062146
0.8280511
0.82552781
0.8230506
0.82061846
0.81823041
0.81588556
0.8135823
0.81132019
0.80909825
0.80691553
0.80477117
0.80266433
0.80059426
0.79856035
0.79656237
0.79460083
0.79267802
0.79079994
0.78898289
0.78724434
0.78565835
0.78444281
0.78426369
0.78728788
0.80068406
0.84419525
1.0977914
2.3389753
0.85606493
0.8530222
0.85003901
0.84711307
0.84424119
0.84142204
0.83865457
0.83593788
0.8332711
0.83065332
0.82808358
0.82556087
0.82308421
0.82065258
0.81826501
0.81592061
0.81361776
0.81135604
0.80913445
0.80695205
0.80480798
0.80270141
0.80063158
0.79859788
0.79660007
0.79463865
0.79271589
0.79083771
0.78902035
0.78728098
0.78569255
0.78446965
0.78426696
0.78721872
0.80036346
0.84234108
1.1378447
0.39331302
0.85611921
0.85307514
0.8500941
0.84716919
0.8442982
0.84147989
0.83871319
0.83599723
0.83333112
0.83071395
0.82814477
0.82562258
0.82314637
0.82071516
0.81832795
0.8159839
0.81368131
0.81141983
0.80919844
0.80701619
0.80487224
0.80276575
0.80069596
0.79866225
0.79666438
0.79470285
0.79277986
0.79090126
0.78908322
0.78734261
0.78575103
0.78451936
0.78428916
0.7871614
0.79995666
0.84036405
1.1650167
0.059252771
0.85619871
0.85315549
0.8501764
0.84725247
0.84438234
0.8415648
0.8387988
0.83608347
0.83341793
0.83080128
0.82823254
0.82571074
0.82323486
0.82080391
0.81841691
0.81607302
0.81377055
0.81150913
0.80928773
0.80710544
0.8049614
0.80285477
0.80078479
0.79875084
0.79675267
0.79479075
0.79286727
0.79098796
0.78916892
0.78742679
0.78583177
0.78459112
0.78433337
0.78713274
0.79954328
0.83922708
1.1647161
0.044880018
0.85630242
0.85326324
0.85028568
0.84736264
0.84449332
0.84167648
0.8389111
0.83619631
0.83353124
0.83091499
0.82834658
0.82582503
0.82334933
0.8209185
0.81853155
0.81618762
0.81388511
0.81162356
0.80940198
0.80721944
0.80507509
0.8029681
0.8008977
0.79886327
0.79686454
0.79490198
0.79297772
0.79109741
0.78927704
0.78753308
0.7859343
0.78468436
0.78439862
0.78713065
0.79910132
0.83927185
1.1367191
0.45219279
0.85646732
0.85343742
0.85046125
0.84753928
0.84467093
0.84185491
0.83909021
0.836376
0.8337114
0.83109551
0.82852736
0.82600596
0.82353032
0.82109944
0.81871234
0.81636814
0.81406536
0.8118034
0.80958131
0.80739818
0.80525316
0.80314542
0.80107418
0.79903882
0.79703905
0.79507532
0.7931497
0.79126774
0.78944518
0.78769853
0.78609447
0.78483219
0.78450996
0.78716213
0.79849485
0.84079859
1.0775246
1.1467202
0.85674079
0.85372751
0.85075237
0.84783172
0.84496451
0.84214933
0.83938529
0.83667157
0.8340073
0.83139158
0.82882344
0.82630189
0.82382595
0.82139461
0.81900692
0.81666195
0.81435836
0.81209541
0.80987216
0.80768775
0.80554133
0.80343207
0.80135917
0.79932202
0.7973203
0.79535442
0.79342637
0.79154155
0.7897153
0.78796451
0.78635296
0.78507424
0.78470476
0.7872673
0.79768116
0.84432892
0.99998661
1.5855913
0.85714192
0.85413914
0.85116679
0.84824798
0.84538191
0.84256746
0.83980388
0.8370904
0.83442617
0.83181026
0.82924172
0.82671956
0.82424279
0.82181044
0.81942153
0.81707513
0.81477006
0.81250536
0.81028017
0.80809364
0.80594495
0.80383324
0.80175772
0.79971776
0.79771302
0.79574386
0.79381217
0.79192319
0.79009152
0.78833526
0.78671423
0.78541601
0.78499247
0.78746379
0.79681188
0.84813897
0.93274986
1.8165936
0.85771844
0.85470905
0.85174375
0.84882756
0.84596261
0.84314871
0.84038531
0.83767172
0.83500707
0.83239046
0.82982093
0.8272975
0.82481919
0.82238504
0.81999407
0.81764534
0.81533788
0.8130704
0.81084216
0.80865239
0.80650022
0.80438482
0.80230538
0.80026124
0.79825205
0.7962781
0.79434117
0.7924463
0.79060711
0.78884346
0.78721042
0.78588898
0.78540408
0.78777487
0.7960501
0.85028252
0.8937664
1.791848
0.85849521
0.85549419
0.85253532
0.84962203
0.84675841
0.84394504
0.84118167
0.83846767
0.83580223
0.83318442
0.8306133
0.82808792
0.8256073
0.82317049
0.82077654
0.81842446
0.81611361
0.81384213
0.81160962
0.80941528
0.80725825
0.80513768
0.80305277
0.80100284
0.79898749
0.79700693
0.7950628
0.79315993
0.7913109
0.78953726
0.78788908
0.78653975
0.78598577
0.78823054
0.79559566
0.84955218
0.88133782
1.6710368
0.85952959
0.85656205
0.85360807
0.850698
0.8478362
0.84502357
0.84226023
0.83954567
0.83687909
0.8342596
0.8316863
0.82915823
0.82667445
0.82423403
0.82183602
0.81947943
0.81716408
0.81488715
0.8126489
0.81044844
0.8082849
0.80615741
0.80406518
0.80200749
0.79998389
0.79799451
0.79604079
0.79412732
0.79226546
0.79047871
0.7888115
0.7874284
0.78679778
0.78886841
0.79562418
0.84598616
0.88418045
1.5486359
0.86094936
0.85798646
0.85504418
0.85213935
0.84927987
0.84646814
0.84370468
0.84098914
0.83832079
0.8356988
0.83312228
0.83059035
0.82810209
0.82565657
0.82325291
0.8208901
0.81856809
0.81628404
0.81403801
0.8118292
0.80965679
0.80751992
0.80541776
0.80334958
0.80131485
0.7993136
0.79734704
0.79541945
0.79354081
0.79173679
0.79004554
0.78862129
0.78790771
0.78973501
0.79619958
0.84080293
0.89086873
1.4522163
0.86283294
0.8598825
0.85695246
0.85405353
0.851197
0.84838636
0.84562253
0.84290538
0.84023431
0.83760857
0.83502736
0.83248987
0.82999522
0.82754254
0.82513096
0.82275954
0.82042781
0.81813445
0.8158778
0.81365761
0.81147317
0.80932357
0.80720798
0.80512563
0.80307593
0.80105875
0.79907502
0.79712865
0.79522813
0.79340135
0.79167967
0.79020499
0.78940251
0.79090405
0.79727437
0.83546619
0.8948614
1.3815377
0.86529882
0.86239569
0.85947322
0.85658011
0.85372805
0.85091952
0.84815563
0.84543663
0.84276215
0.84013162
0.83754437
0.83499966
0.8324967
0.83003469
0.82761281
0.82523019
0.82288605
0.8205806
0.81830991
0.81607499
0.81387494
0.81170883
0.80957581
0.80747509
0.80540597
0.80336812
0.80136216
0.79939152
0.79746307
0.79560683
0.79384696
0.79231066
0.79141106
0.79251812
0.79880147
0.83097562
0.89468895
1.3263375
0.86862134
0.86569077
0.86277918
0.85989714
0.85705245
0.8542477
0.85148458
0.84876387
0.84608558
0.84344936
0.84085474
0.83830112
0.83578782
0.83331414
0.83087932
0.82848258
0.82612304
0.82380136
0.82151352
0.81926019
0.81704042
0.81485339
0.8126983
0.81057429
0.8084805
0.80641638
0.80438216
0.80238066
0.80041713
0.79852295
0.79671557
0.79510469
0.7940954
0.79477664
0.80080268
0.82785921
0.89124649
1.2795092
0.87374946
0.87081522
0.86791472
0.86504712
0.86221373
0.85941526
0.85665378
0.85393083
0.85124696
0.84860226
0.84599655
0.84342945
0.84090049
0.83840908
0.8359546
0.83353637
0.83115362
0.82880595
0.82649326
0.82421208
0.82196234
0.81974359
0.8175551
0.81539583
0.81326469
0.81116079
0.80908382
0.80703564
0.80501985
0.80306677
0.80118943
0.79947302
0.7983125
0.79847774
0.80393198
0.82602232
0.88566827
1.2294592
0.88131454
0.87842012
0.87554358
0.87269325
0.8698727
0.86708169
0.86432203
0.86159571
0.85890382
0.85624695
0.85362533
0.85103893
0.84848752
0.84597071
0.84348806
0.84103903
0.83862301
0.83623924
0.83388864
0.83156881
0.82927596
0.827012
0.82477598
0.82256647
0.82038206
0.8182214
0.8160835
0.8139688
0.81188007
0.8098356
0.80786399
0.8060104
0.80464883
0.80426781
0.80883099
0.82621038
0.8813709
1.1766108
0.89094136
0.88806195
0.88520079
0.88236351
0.87955302
0.87676748
0.87400796
0.87127648
0.86857444
0.86590279
0.86326214
0.86065277
0.85807471
0.85552779
0.85301172
0.85052613
0.84807054
0.84564432
0.84324706
0.84087991
0.83853696
0.83622038
0.83392816
0.83165884
0.82941091
0.82718261
0.82497217
0.82277825
0.82060305
0.8184483
0.81636716
0.81436024
0.81276949
0.81187865
0.8154452
0.82862836
0.87937512
1.1292629
0.90298905
0.90010048
0.89723941
0.89440424
0.89159519
0.88880805
0.88604259
0.88330048
0.88058308
0.87789145
0.8752264
0.87258843
0.86997774
0.86739432
0.86483805
0.86230866
0.85980581
0.85732901
0.85487769
0.85245135
0.85005074
0.84767312
0.84531372
0.84297335
0.84065034
0.8383423
0.83604649
0.83375964
0.8314824
0.82920703
0.82699545
0.82481541
0.82296565
0.82160455
0.82401017
0.83438217
0.87444618
1.0830872
0.91779664
0.91491174
0.91204699
0.90920319
0.9063833
0.90358292
0.90080099
0.89803873
0.89529719
0.89257724
0.88987965
0.88720495
0.88455342
0.88192512
0.87931999
0.87673786
0.87417846
0.8716414
0.8691262
0.8666318
0.86416039
0.861708
0.85927264
0.85684968
0.85443911
0.85203835
0.84964343
0.84724906
0.84485329
0.84244271
0.84007867
0.83770578
0.83556885
0.83377552
0.83486768
0.84327291
0.87088662
1.0412624
0.93582733
0.93293559
0.93005595
0.92719107
0.92434718
0.92152055
0.9187097
0.91591549
0.91313866
0.91037976
0.90763935
0.90491788
0.90221555
0.89953243
0.89686845
0.89422345
0.8915972
0.88898934
0.88639943
0.88382658
0.8812706
0.87872975
0.87620508
0.87369101
0.87118092
0.86867489
0.86616716
0.86365065
0.86112002
0.85856037
0.85600603
0.85342628
0.85098292
0.84877881
0.84846552
0.85500521
0.87233101
1.0094045
0.95758995
0.95465594
0.95173911
0.94883708
0.94595498
0.94308803
0.94023388
0.93739315
0.93456644
0.93175415
0.92895672
0.92617448
0.92340757
0.92065598
0.9179196
0.91519825
0.91249167
0.9097995
0.90712125
0.90445618
0.90180341
0.89916153
0.89652876
0.89390578
0.89128459
0.8886613
0.88602449
0.88336945
0.88068711
0.87796103
0.87518572
0.87238262
0.86961665
0.86698319
0.86536528
0.86999556
0.8791824
0.98937908
0.98355851
0.98057127
0.97760906
0.9746598
0.97172615
0.96880279
0.96588724
0.96298063
0.96008401
0.95719804
0.95432326
0.95146008
0.94860862
0.94576885
0.94294061
0.94012367
0.93731772
0.93452237
0.93173709
0.92896109
0.92619332
0.92343224
0.92067565
0.91792062
0.91516681
0.91240417
0.90962335
0.90681403
0.90396291
0.90104586
0.8980419
0.89498422
0.89187603
0.8887705
0.88614278
0.88851848
0.89306607
0.97132553
1.0142975
1.0112921
1.0082863
1.0052754
1.0022687
0.99926427
0.99626112
0.99326151
0.99026739
0.98727995
0.98430009
0.98132841
0.97836514
0.9754103
0.97246372
0.96952514
0.9665942
0.96367046
0.96075329
0.95784185
0.95493494
0.95203083
0.94912705
0.94621993
0.9433054
0.94037574
0.93742563
0.93443701
0.93139133
0.92826308
0.92502103
0.92164388
0.91818523
0.91457906
0.9111754
0.91089946
0.9134917
0.95888135
1.0508152
1.0476738
1.0445493
1.0414235
1.0382995
1.0351736
1.0320439
1.0289128
1.0257831
1.0226563
1.019534
1.0164168
1.0133053
1.0101996
1.0070995
1.0040047
1.000915
0.99782965
0.99474808
0.99166932
0.98859199
0.98551413
0.98243296
0.9793444
0.97624289
0.97312018
0.96996576
0.96676341
0.96349112
0.9601209
0.95661584
0.95288264
0.94905706
0.9449322
0.94082998
0.93805297
0.93918902
0.95997448
1.0937464
1.0904835
1.0872179
1.0839357
1.0806447
1.0773443
1.0740343
1.0707183
1.0674001
1.0640819
1.0607657
1.0574526
1.0541433
1.0508379
1.0475365
1.0442388
1.0409443
1.0376526
1.0343627
1.0310737
1.027784
1.0244914
1.0211926
1.0178832
1.0145567
1.0112038
1.0078116
1.0043614
1.0008287
0.99717369
0.99336213
0.98928483
0.98500944
0.98035753
0.9755448
0.97090063
0.97007921
0.97465672
1.1443992
1.1408767
1.1373627
1.1338342
1.1302946
1.1267422
1.1231763
1.1196013
1.1160214
1.1124397
1.1088587
1.1052798
1.1017041
1.0981319
1.0945632
1.0909979
1.0874355
1.0838755
1.0803169
1.0767585
1.0731987
1.0696349
1.0660636
1.0624796
1.0588757
1.0552413
1.0515619
1.0478161
1.0439759
1.0399954
1.0358291
1.0313738
1.0265795
1.0213879
1.0158586
1.0097216
1.0068369
0.99982022
1.203919
1.200074
1.1962323
1.1923682
1.1884852
1.1845833
1.1806632
1.1767308
1.1727919
1.1688506
1.1649102
1.1609728
1.1570396
1.1531113
1.1491881
1.1452698
1.1413561
1.1374462
1.1335393
1.129634
1.1257283
1.1218195
1.1179036
1.1139749
1.1100252
1.1060428
1.1020115
1.0979071
1.0936983
1.0893342
1.084759
1.0798641
1.0745589
1.0687061
1.0624497
1.0550392
1.0504577
1.0350728
1.2742282
1.2699044
1.2655819
1.2612322
1.2568584
1.2524618
1.2480451
1.2436159
1.2391816
1.2347476
1.2303179
1.2258952
1.221481
1.2170761
1.2126807
1.2082947
1.2039177
1.199549
1.1951874
1.1908315
1.1864791
1.1821271
1.177771
1.1734045
1.1690186
1.1646004
1.1601318
1.1555864
1.150929
1.1461042
1.1410479
1.1356402
1.1297881
1.1232058
1.1161548
1.1076004
1.1017495
1.0801665
1.3577591
1.3527346
1.3477119
1.3426612
1.3375854
1.3324876
1.327373
1.3222513
1.3171315
1.3120202
1.3069218
1.3018394
1.2967746
1.2917282
1.2867003
1.2816905
1.2766983
1.2717228
1.2667628
1.2618164
1.2568813
1.251954
1.2470296
1.242101
1.2371584
1.2321875
1.2271686
1.2220728
1.2168615
1.2114749
1.2058411
1.1998333
1.1933371
1.1860616
1.1780637
1.1684091
1.1614713
1.1355496
1.4577989
1.4517623
1.4457362
1.4396907
1.4336274
1.4275498
1.4214661
1.4153881
1.4093262
1.4032877
1.3972778
1.3912994
1.3853543
1.3794427
1.3735647
1.3677196
1.3619068
1.356125
1.3503728
1.3446482
1.3389485
1.3332698
1.3276067
1.3219515
1.3162933
1.3106167
1.3048999
1.299112
1.2932105
1.287132
1.2807968
1.2740739
1.2668261
1.2587749
1.2498451
1.2389187
1.230884
1.2021192
1.5790412
1.5715647
1.5641196
1.5566769
1.5492347
1.541795
1.5343686
1.5269699
1.5196102
1.5122978
1.5050381
1.4978345
1.4906885
1.4836003
1.4765698
1.4695962
1.4626786
1.4558158
1.4490062
1.4422474
1.4355364
1.428869
1.4222391
1.4156382
1.4090545
1.4024709
1.395864
1.3892002
1.3824335
1.3754966
1.3683026
1.3607165
1.3525858
1.3436227
1.3337636
1.3215936
1.3121811
1.2811654
1.723264
1.7138496
1.7044879
1.6951555
1.6858456
1.6765591
1.6673118
1.6581224
1.6490048
1.6399693
1.6310235
1.6221713
1.6134151
1.6047555
1.5961925
1.5877255
1.5793534
1.571075
1.5628882
1.5547905
1.5467782
1.5388465
1.5309883
1.5231941
1.5154505
1.5077389
1.5000335
1.4922978
1.4844821
1.4765151
1.4683029
1.4597059
1.4505598
1.4405712
1.4296667
1.4163966
1.405708
1.3723767
1.8861198
1.874222
1.862393
1.8506194
1.8388919
1.8272131
1.8156097
1.8041092
1.792731
1.7814901
1.7703972
1.7594585
1.748677
1.7380538
1.7275889
1.7172812
1.7071292
1.6971304
1.6872821
1.6775805
1.6680207
1.6585963
1.6492989
1.640117
1.6310353
1.6220327
1.6130806
1.6041393
1.5951548
1.5860511
1.5767277
1.5670393
1.5568125
1.5457452
1.5337704
1.5193536
1.5077544
1.4721964
2.0645597
2.0496579
2.0347889
2.0199793
2.0052357
1.9905769
1.9760521
1.961704
1.947561
1.9336445
1.9199685
1.9065401
1.8933618
1.8804336
1.8677535
1.8553183
1.8431241
1.8311664
1.8194398
1.8079382
1.7966544
1.7855796
1.7747027
1.7640098
1.7534827
1.7430973
1.7328215
1.7226115
1.7124087
1.7021314
1.6916723
1.6808789
1.6695695
1.6574302
1.6444074
1.6288686
1.6164327
1.5788421
2.2614045
2.242548
2.22374
2.205063
2.1865369
2.1681958
2.1501109
2.1323359
2.114904
2.0978377
2.0811494
2.0648426
2.0489155
2.0333633
2.0181792
2.0033554
1.9888838
1.9747556
1.960962
1.9474931
1.9343384
1.9214856
1.9089206
1.8966258
1.8845796
1.872754
1.8611126
1.8496065
1.8381714
1.8267188
1.8151335
1.8032534
1.7908879
1.7777067
1.7636721
1.7470362
1.7338475
1.6940338
2.4801477
2.456038
2.4320914
2.4084972
2.3852776
2.3624646
2.3401333
2.3183298
2.2970763
2.2763849
2.2562572
2.2366864
2.2176611
2.199168
2.1811931
2.163722
2.146741
2.1302364
2.1141946
2.0986016
2.0834425
2.0687013
2.0543594
2.040395
2.0267819
2.0134871
2.0004684
1.9876706
1.9750218
1.9624247
1.9497538
1.9368347
1.9234653
1.9092933
1.894298
1.8765894
1.8627441
1.8203858
2.7242351
2.6932342
2.6629441
2.6335149
2.6048417
2.5768862
2.5496946
2.5232893
2.497675
2.4728516
2.4488094
2.4255317
2.4029984
2.3811886
2.360081
2.3396556
2.3198927
2.3007737
2.2822798
2.264392
2.2470902
2.2303527
2.2141552
2.1984697
2.1832632
2.1684953
2.1541158
2.1400601
2.126246
2.1125639
2.0988749
2.0849878
2.0706852
2.0555863
2.039687
2.0209266
2.0065115
1.9612343
2.9980192
2.9597379
2.92243
2.8863518
2.8513406
2.8173426
2.7844091
2.7525562
2.7217821
2.6920805
2.6634344
2.6358188
2.6092057
2.5835667
2.5588734
2.5350985
2.5122158
2.490199
2.4690221
2.4486576
2.4290769
2.4102487
2.392139
2.3747094
2.3579156
2.3417054
2.3260159
2.3107689
2.2958668
2.2811834
2.2665613
2.2517875
2.2366245
2.2206564
2.2038933
2.1840796
2.1691401
2.1205482
3.3129295
3.265299
3.2190963
3.1746726
3.1317586
3.0902738
3.0502695
3.0117494
2.9747024
2.9391142
2.9049579
2.8721987
2.8407988
2.8107195
2.7819219
2.7543673
2.7280173
2.7028325
2.6787723
2.655794
2.6338521
2.6128986
2.5928816
2.5737446
2.555425
2.5378517
2.5209427
2.5045993
2.4887033
2.4731056
2.4576255
2.4420225
2.4260351
2.4092063
2.3915585
2.370625
2.3551114
2.3027987
3.6689751
3.6122003
3.5565839
3.5028652
3.4508427
3.400558
3.352158
3.3056929
3.2611807
3.2186228
3.1779963
3.139263
3.1023765
3.0672847
3.0339319
3.0022592
2.9722048
2.9437038
2.9166876
2.8910845
2.8668193
2.8438141
2.8219876
2.8012546
2.7815245
2.762699
2.7446691
2.7273097
2.710476
2.6939914
2.6776481
2.6611751
2.6442844
2.6264764
2.6077843
2.5855282
2.5692169
2.5127528
4.0867757
4.0155978
3.9464293
3.8801347
3.8162903
3.7549122
3.6961541
3.6400606
3.5866521
3.5359289
3.4878586
3.4423863
3.3994407
3.3589377
3.3207827
3.284873
3.2510991
3.2193455
3.1894925
3.1614174
3.134996
3.110104
3.0866169
3.0644099
3.0433555
3.0233215
3.0041674
2.985738
2.9678603
2.9503297
2.9329119
2.9153067
2.8972026
2.8780604
2.857926
2.8339193
2.8163322
2.755215
4.568867
4.4804397
4.3948293
4.3132263
4.2350167
4.1602539
4.08913
4.0217043
3.9580117
3.8980498
3.8417629
3.7890522
3.7397856
3.6938041
3.6509288
3.6109674
3.5737194
3.5389806
3.5065473
3.4762199
3.4478056
3.4211202
3.3959878
3.372239
3.3497087
3.3282318
3.3076394
3.2877512
3.2683716
3.2492747
3.2302074
3.2108478
3.1908695
3.1697022
3.1474095
3.1209342
3.1013013
3.0348887
5.1320679
5.0214027
4.9150412
4.8144185
4.7185889
4.6276477
4.5418444
4.4612736
4.3859871
4.3159519
4.2510303
4.1910006
4.1355796
4.0844415
4.0372383
3.993615
3.953222
3.9157238
3.8808052
3.8481755
3.8175697
3.788748
3.7614922
3.7356017
3.7108877
3.6871678
3.6642595
3.6419727
3.6201038
3.5984195
3.5766607
3.5544961
3.5315947
3.5073651
3.4818939
3.4519654
3.4292938
3.3567312
5.8001752
5.6614513
5.5286782
5.4038376
5.2858035
5.1748947
5.0715179
4.975825
4.8878183
4.8072892
4.7338262
4.6668793
4.6058236
4.5500101
4.498805
4.4516163
4.4079075
4.367204
4.3290934
4.2932228
4.2592917
4.2270434
4.1962557
4.1667309
4.138288
4.1107536
4.0839555
4.0577128
4.0318305
4.006081
3.9802097
3.9538829
3.9267699
3.8982592
3.8684605
3.8339896
3.8072721
3.7274287
6.6181306
6.439076
6.2692977
6.1114149
5.9641111
5.8281135
5.7039185
5.5914968
5.4904037
5.3997735
5.3184517
5.2451766
5.1787175
5.117958
5.0619349
5.0098464
4.9610422
4.9150043
4.8713259
4.8296883
4.7898394
4.7515747
4.7147202
4.6791209
4.6446303
4.6111027
4.578387
4.5463171
4.5147072
4.4833322
4.4519345
4.4201685
4.3876903
4.3538509
4.3187709
4.2788338
4.2473516
4.1587067
7.6373886
7.4002909
7.1782214
6.9752354
6.7902534
6.6244151
6.4777345
6.348968
6.2360547
6.1364414
6.0475266
5.9670027
5.8930064
5.8241243
5.7593298
5.6978994
5.6393343
5.5832946
5.5295468
5.4779234
5.4282919
5.3805343
5.3345335
5.2901664
5.2473
5.2057887
5.1654713
5.1261639
5.0876564
5.0496934
5.0119802
4.9741261
4.935737
4.8960892
4.8552906
4.8093508
4.7729269
4.6731921
8.9333978
8.6079366
8.3112549
8.0489471
7.8197422
7.6235975
7.4572905
7.3154059
7.1920231
7.0817986
6.9806469
6.8858591
6.7958478
6.7097794
6.6272643
6.5481451
6.4723699
6.3999182
6.3307591
6.2648283
6.202019
6.1421832
6.0851382
6.030676
5.9785712
5.928585
5.8804659
5.8339435
5.7887232
5.7444667
5.7007924
5.6572218
5.6132592
5.5680641
5.5216963
5.4695735
5.4285905
5.3137246
10.602725
10.15206
9.7572305
9.426844
9.1566454
8.9386086
8.7586148
8.60239
8.459193
8.3228084
8.190712
8.0626092
7.9391588
7.8211762
7.7092783
7.6037973
7.5048082
7.4121849
7.325652
7.2448282
7.1692645
7.0984774
7.0319767
6.9692851
6.9099479
6.8535342
6.7996307
6.7478283
6.6977068
6.6488132
6.600643
6.5526029
6.5040425
6.4539765
6.4023565
6.3437644
6.2985367
6.1618745
12.516095
11.912169
11.411224
11.026853
10.737074
10.507621
10.304756
10.108329
9.9119707
9.7173022
9.5286647
9.3500485
9.1839588
9.0313856
8.8922168
8.765692
8.6507351
8.5461536
8.4507444
8.3633507
8.2828964
8.2084073
8.1390216
8.0739877
8.0126518
7.9544378
7.8988213
7.8453029
7.7933757
7.7425037
7.6920705
7.6413848
7.5896022
7.5356175
7.4791466
7.4139521
7.3639932
7.2028037
14.484445
13.700731
13.109653
12.70023
12.397306
12.130515
11.861595
11.584494
11.30862
11.04548
10.803043
10.584916
10.391393
10.220795
10.070548
9.9378697
9.820118
9.7149263
9.620233
9.5342693
9.4555382
9.3827903
9.3149942
9.2513025
9.1910123
9.1335237
9.0782975
9.0248193
8.9725527
8.9209221
8.8692321
8.8167125
8.7623448
8.7048943
8.6438787
8.5721056
8.5177411
8.3290028
16.841355
15.85843
15.202035
14.772751
14.407923
14.026653
13.62509
13.23007
12.865868
12.544737
12.269036
12.035449
11.838228
11.671126
11.528371
11.405048
11.29715
11.201471
11.115472
11.037146
10.964922
10.897571
10.83414
10.773882
10.716196
10.660568
10.606526
10.553591
10.50123
10.44884
10.395639
10.340761
10.282963
10.220843
10.153643
10.072961
10.012372
9.7867628
19.722556
18.514248
17.802538
17.272397
16.715486
16.126731
15.566026
15.076062
14.66956
14.341374
14.079318
13.869915
13.70094
13.562295
13.446094
13.34639
13.258795
13.180115
13.108035
13.040891
12.977484
12.916954
12.858679
12.802193
12.747118
12.693112
12.639812
12.586804
12.533559
12.479434
12.423528
12.364838
12.301819
12.232816
12.156748
12.063533
11.993975
11.718656
23.228344
21.822609
20.923713
20.064649
19.191159
18.414513
17.791587
17.318741
16.968326
16.710891
16.52105
16.378509
16.268006
16.178616
16.102779
16.035411
15.973198
15.914061
15.856751
15.800543
15.745036
15.690013
15.635359
15.58099
15.526808
15.472663
15.418302
15.363357
15.307267
15.249308
15.188394
15.123302
15.0521
14.972719
14.88376
14.772663
14.690447
14.346593
27.6806
25.783293
24.252108
22.893998
21.858281
21.156504
20.704027
20.418869
20.243468
20.13782
20.073829
20.03193
19.999681
19.969789
19.938245
19.903098
19.863714
19.820254
19.773267
19.72342
19.671345
19.617579
19.562541
19.506516
19.449651
19.391932
19.333165
19.272958
19.210656
19.145364
19.075725
19.000169
18.916272
18.821304
18.713655
18.577011
18.47755
18.036201
33.168085
29.715528
27.183546
25.833629
25.28711
25.12874
25.137507
25.21934
25.329866
25.442455
25.539081
25.611374
25.657977
25.680915
25.6833
25.668543
25.640078
25.601081
25.554236
25.50165
25.444895
25.385107
25.323079
25.25932
25.194085
25.127386
25.058975
24.988341
24.914629
24.836665
24.752713
24.66068
24.55757
24.439615
24.305292
24.13274
24.01058
23.427473
38.881088
31.883914
29.657135
30.006584
30.952515
31.860126
32.622328
33.241479
33.72799
34.093494
34.349992
34.516727
34.614576
34.660865
34.668793
34.648645
34.608531
34.554598
34.491243
34.421466
34.34727
34.269973
34.190419
34.10909
34.026155
33.941492
33.854668
33.764931
33.671121
33.571657
33.464329
33.346322
33.214067
33.062275
32.890066
32.668194
32.51564
31.728878
40.843801
30.807413
33.657134
38.246909
41.758292
44.28021
46.110857
47.419623
48.318219
48.902802
49.257871
49.452153
49.538793
49.553386
49.519976
49.45553
49.371782
49.276337
49.173818
49.066941
48.957296
48.845813
48.733
48.619035
48.503803
48.386886
48.267544
48.144667
48.016695
47.881525
47.736403
47.577596
47.401087
47.199496
46.973555
46.685551
46.487975
45.430532
31.748176
28.78025
44.747433
56.48021
63.761795
68.633959
71.918911
74.012395
75.248896
75.917132
76.237282
76.344294
76.322954
76.226288
76.088036
75.929039
75.760916
75.589364
75.416863
75.244387
75.072268
74.900553
74.729109
74.557621
74.385561
74.212141
74.036263
73.856444
73.670743
73.476557
73.270726
73.048608
72.806328
72.534009
72.236006
71.867419
71.596659
70.30523
13.656213
33.816735
71.536498
92.34311
104.21942
112.15754
117.15929
119.9555
121.33866
121.91879
122.08597
121.99651
121.77584
121.50062
121.20982
120.92025
120.63717
120.36093
120.0904
119.82434
119.56168
119.30161
119.04343
118.78641
118.52977
118.27253
118.01352
117.75124
117.48388
117.20897
116.92387
116.62409
116.30767
115.96367
115.60349
115.18103
114.83156
113.73565
1.1409724
59.074052
121.49201
152.62583
170.33054
182.60165
189.7783
193.31454
194.81184
195.29369
195.32435
194.98814
194.52547
194.05049
193.59539
193.16429
192.75311
192.35658
191.97054
191.59209
191.21925
190.85072
190.4855
190.12283
189.76201
189.40237
189.04329
188.68408
188.3241
187.96251
187.59901
187.23187
186.86401
186.48779
186.12597
185.73789
185.41038
185.0654
53.548951
265.20949
252.68621
291.45238
321.14818
343.84026
356.57551
362.56136
365.11105
366.00058
366.15572
365.37881
364.48863
363.66549
362.90065
362.17639
361.47989
360.80255
360.13886
359.48535
358.83989
358.20122
357.56865
356.94192
356.32118
355.70704
355.10065
354.50392
353.9195
353.3517
352.80548
352.29002
351.81345
351.3955
351.04615
350.81619
350.62616
351.56595
923.23768
2091.3665
798.98103
858.86747
975.77425
1071.0197
1130.337
1161.8466
1177.687
1185.0383
1188.1449
1185.8163
1182.9652
1180.1983
1177.4833
1174.8018
1172.1447
1169.5072
1166.8863
1164.2802
1161.6878
1159.1086
1156.5426
1153.9898
1151.4509
1148.9272
1146.4202
1143.9328
1141.4681
1139.033
1136.631
1134.2802
1131.9759
1129.7766
1127.6155
1125.7264
1123.6772
1123.2412
14924.693
14513.502
14444.938
14412.202
14378.681
14345.871
14315.834
14288.177
14261.977
14236.628
14211.751
14187.432
14163.24
14139.122
14115.076
14091.099
14067.19
14043.348
14019.574
13995.865
13972.224
13948.648
13925.138
13901.693
13878.314
13855.001
13831.753
13808.571
13785.455
13762.406
13739.424
13716.513
13693.668
13670.905
13648.2
13625.618
13603.028
13580.593
14864.31
15990.514
17957.275
19559.698
20946.814
22188.473
23306.849
24314.9
25219.029
26023.489
26731.227
27344.338
27864.544
28293.572
28633.435
28885.976
29053.756
29139.787
29147.527
29080.855
28944.014
28741.542
28478.197
28158.881
27788.521
27372.807
897.33021
1326.2867
955.36171
1447.1166
1933.2767
2234.3296
2456.8466
2632.2298
2780.9486
2911.4689
3026.5701
3127.2707
3213.731
3285.3501
3340.5986
3381.9296
3409.5315
3423.7143
3424.9319
3413.7697
3390.917
3357.145
3313.2682
3260.1557
3198.4671
3129.2541
85.52442
286.97872
405.14452
577.33737
731.60071
830.77257
897.62693
948.89324
992.96233
1032.4369
1067.8283
1099.1615
1126.3115
1148.951
1166.6578
1179.9234
1188.7648
1193.2121
1193.3452
1189.2991
1181.2529
1169.4174
1154.0061
1135.2803
1113.2715
1088.36
16.411832
74.026679
184.27524
295.7329
392.78166
460.14641
504.11585
535.35034
560.88246
583.3624
603.4206
621.11039
636.36759
649.03804
658.9928
666.38425
671.25429
673.6288
673.54819
671.08179
666.32834
659.41003
650.45026
639.63538
627.03071
612.88448
0.42898076
30.457075
84.650515
162.08958
230.69496
284.00281
319.07237
343.39541
362.13925
378.10221
392.21108
404.62295
415.29472
424.13967
431.1116
436.26711
439.64723
441.28445
441.2157
439.49598
436.2037
431.43864
425.30389
417.96522
409.53807
400.21136
0.18971371
18.375822
36.504088
81.159583
124.66553
163.76065
193.56981
214.95356
229.9098
241.67534
251.65512
260.31099
267.71994
273.86106
278.72614
282.33749
284.7265
285.92722
285.97421
284.91068
282.79594
279.70694
275.72478
270.9819
265.60654
259.72495
0.13253799
14.656936
21.566488
37.654566
65.202949
91.207858
113.23338
130.87956
144.74498
154.95597
162.88106
169.36717
174.78463
179.26235
182.84363
185.54582
187.39106
188.411
188.63912
188.11229
186.87622
184.98906
182.51248
179.5457
176.20638
172.57078
0.24196439
11.28783
15.745731
21.071911
33.138138
51.362953
68.282666
82.087155
93.164683
102.33239
109.78012
115.38505
119.8306
123.43412
126.33462
128.57265
130.17231
131.15991
131.56417
131.41744
130.75769
129.63132
128.08713
126.20289
124.07964
121.75742
1.3179879
8.1308371
12.13972
14.666046
19.143156
27.890006
40.390183
52.045188
61.403382
68.898461
75.058419
80.372804
84.50424
87.733138
90.298769
92.288704
93.767425
94.768763
95.31894
95.446264
95.182123
94.563882
93.630842
92.449096
91.101667
89.602145
1.8120643
6.0235477
9.560396
11.438021
13.299361
16.718722
22.958798
31.651064
39.922983
46.688923
51.900905
56.213277
59.986268
63.192291
65.703746
67.611252
69.057549
70.093579
70.760196
71.091879
71.117352
70.867416
70.374582
69.685106
68.871649
67.930324
1.9407943
4.8021834
7.7867321
9.4124186
10.415483
11.818191
14.330876
18.73504
24.709136
30.75394
35.676725
39.502263
42.668477
45.327432
47.630845
49.58513
51.124046
52.261007
53.065841
53.584091
53.846293
53.882718
53.723214
53.398094
52.972369
52.428655
1.9494107
3.9798713
6.5311397
7.9582308
8.7196598
9.3557457
10.386824
12.206099
15.240332
19.270231
23.67964
27.327399
30.263052
32.56312
34.46117
36.093953
37.499997
38.69129
39.634245
40.323472
40.785586
41.051837
41.148959
41.104162
40.973467
40.728421
1.8934678
3.3938331
5.5913651
6.8448575
7.5225006
7.886316
8.3201872
9.0736483
10.365619
12.358827
15.031827
18.098495
20.91378
23.139732
24.902042
26.30495
27.462957
28.464868
29.330527
30.05915
30.640094
31.067751
31.35106
31.511165
31.597751
31.573953
1.8115686
2.9544399
4.8418864
5.9401863
6.5401678
6.8419725
7.0453103
7.3452744
7.8800407
8.7523911
9.9951324
11.751254
13.742608
15.773166
17.531136
18.903055
19.982579
20.858051
21.589124
22.217199
22.758922
23.216255
23.587318
23.873513
24.106624
24.238449
1.7189327
2.6136035
4.2113366
5.1608217
5.6911665
5.9911721
6.1304898
6.2547789
6.4637322
6.8303047
7.3865347
8.1905744
9.2317286
10.497948
11.797661
13.040025
14.122741
14.999978
15.700775
16.278283
16.76754
17.187183
17.546893
17.852921
18.133668
18.338986
1.6088691
2.3055779
3.5710763
4.3596668
4.8247497
5.1107865
5.2624818
5.3314195
5.3946129
5.5027624
5.6873321
5.9764609
6.380489
6.902774
7.5235645
8.2395337
8.9719068
9.6795313
10.339189
10.924486
11.425003
11.843427
12.191535
12.485589
12.75768
12.971653
1.494177
2.0343919
2.9456252
3.6016839
4.0222759
4.2953297
4.4750981
4.5666813
4.6058767
4.6358148
4.6827082
4.7667526
4.9005302
5.0909835
5.3360784
5.6350088
5.9716893
6.3396903
6.7265644
7.1078122
7.4652229
7.7952011