0.47777778 	1.9968667 	0.00015933871 	-2.9905921e-08
0.48888889 	2.4349411 	0.00022803512 	-3.8207749e-08
0.5 	2.6265244 	0.00041363025 	-6.4583539e-08
0.51111111 	2.7493761 	0.00058771491 	-6.8989806e-08
0.52222222 	2.8372761 	0.00079896203 	-2.6452931e-07
0.53333333 	2.9039757 	0.00098231645 	-1.128998e-08
0.54444444 	2.9550529 	0.0011611507 	2.9150769e-08
0.55555556 	2.9941282 	0.0013251236 	-1.3793311e-07
0.56666667 	3.024013 	0.0014654973 	-1.7988954e-07
0.57777778 	3.0465122 	0.0015760606 	-1.1236045e-07
0.58888889 	3.0630193 	0.0016598531 	6.6882063e-08
0.6 	3.0745881 	0.0017134906 	-1.4339206e-08
0.61111111 	3.0821706 	0.0017361755 	-3.3310939e-07
0.62222222 	3.0869785 	0.0017382066 	-5.811304e-07
0.63333333 	3.0896448 	0.0017270328 	-1.2494016e-07
0.64444444 	3.0902487 	0.001698485 	-7.7015427e-08
0.65555556 	3.0890672 	0.0016533768 	-5.6195385e-07
0.66666667 	3.0870611 	0.0016063685 	-6.4082369e-08
0.67777778 	3.0835631 	0.0015442812 	-2.2832065e-07
0.68888889 	3.079167 	0.0014759766 	-2.8347336e-07
0.7 	3.0741524 	0.0014045392 	-4.8864753e-08
0.71111111 	3.0677871 	0.0013216532 	-3.5403284e-07
0.72222222 	3.0613405 	0.0012424746 	-8.695518e-08
0.73333333 	3.0534929 	0.0011548854 	-3.1767973e-07
0.74444444 	3.0453765 	0.001068893 	-1.5508129e-07
0.75555556 	3.036152 	0.00098102622 	-2.6993041e-07
0.76666667 	3.0261769 	0.00089143865 	-4.6129883e-07
0.77777778 	3.0152372 	0.00080415142 	-2.5628647e-07
0.78888889 	3.0033671 	0.00071680663 	-5.9078542e-08
0.8 	2.9903583 	0.00063396706 	-1.1619875e-07
0.81111111 	2.9762309 	0.0005542366 	-7.3412831e-08
0.82222222 	2.9608511 	0.00047798018 	-1.6140206e-07
0.83333333 	2.9438668 	0.00040936472 	-7.5523563e-08
0.84444444 	2.9251768 	0.00034554307 	-3.717698e-08
0.85555556 	2.9045791 	0.00028773769 	-7.3920796e-08
0.86666667 	2.8815749 	0.00023822311 	-4.9507783e-09
0.87777778 	2.8558139 	0.00019637517 	-8.0050721e-09
0.88888889 	2.8268778 	0.00016143596 	3.1129741e-10
0.9 	2.793987 	0.00013337269 	8.4782652e-09
0.91111111 	2.7562127 	0.00011172394 	1.1530673e-08
0.92222222 	2.7122939 	9.5351964e-05 	9.1732335e-09
0.93333333 	2.6604888 	8.2273554e-05 	3.3383365e-09
0.94444444 	2.5982038 	8.0451845e-05 	-9.4105634e-08
0.95555556 	2.5201274 	4.5858934e-05 	-4.3702401e-09
0.96666667 	2.4172687 	6.3831706e-05 	-2.9603704e-08
0.97777778 	2.2658422 	3.287419e-05 	-4.5231627e-09
0.98888889 	1.9756976 	5.3011607e-05 	-2.114159e-09
