1.640171e-35 	1.5744725 	-1.0693015e-13 	-3.8866281e-20
0.010869565 	1.5762648 	-0.0011430501 	1.0122123e-07
0.02173913 	1.5811917 	-0.0022632922 	7.9418905e-08
0.032608696 	1.5892775 	-0.0033643514 	6.0658014e-09
0.043478261 	1.6003556 	-0.0044277885 	4.1284671e-07
0.054347826 	1.6143517 	-0.0054589976 	1.1678032e-06
0.065217391 	1.6320245 	-0.006496503 	1.3561603e-06
0.076086957 	1.6496471 	-0.0073471574 	8.0386105e-07
0.086956522 	1.670587 	-0.0081865443 	2.3035901e-06
0.097826087 	1.6934003 	-0.0089598183 	4.0649589e-06
0.10869565 	1.7179413 	-0.0096747176 	9.7138993e-07
0.11956522 	1.7441834 	-0.010289796 	4.3958217e-06
0.13043478 	1.7716724 	-0.010834846 	7.963459e-06
0.14130435 	1.8002699 	-0.011319816 	4.8711963e-07
0.15217391 	1.8303272 	-0.011681244 	1.7031011e-05
0.16304348 	1.860807 	-0.012009748 	1.7217392e-06
0.17391304 	1.8926368 	-0.01219813 	1.9463808e-05
0.18478261 	1.9245433 	-0.012361117 	4.7847505e-06
0.19565217 	1.9572582 	-0.012391008 	2.2239098e-05
0.20652174 	1.9901602 	-0.012398023 	8.7880452e-07
0.2173913 	2.0233326 	-0.012259951 	2.9321985e-05
0.22826087 	2.0567346 	-0.012110801 	5.8819795e-07
0.23913043 	2.0895615 	-0.01183361 	2.7042586e-05
0.25 	2.1223318 	-0.011537917 	6.6270772e-06
0.26086957 	2.1546071 	-0.011163672 	1.0134461e-05
0.27173913 	2.1857403 	-0.010749267 	2.3217669e-05
0.2826087 	2.217057 	-0.010305688 	1.0886056e-06
0.29347826 	2.2452963 	-0.0098518049 	2.2425738e-05
0.30434783 	2.2732055 	-0.0093904886 	8.9559633e-06
0.31521739 	2.299926 	-0.0089205248 	5.1639176e-07
0.32608696 	2.3234444 	-0.0084842206 	2.4530183e-05
0.33695652 	2.3465861 	-0.0080498922 	2.1004225e-06
0.34782609 	2.3674258 	-0.007637629 	5.7018075e-07
0.35869565 	2.3854647 	-0.0072641234 	1.8786817e-05
0.36956522 	2.4029304 	-0.0068957085 	2.1473825e-06
0.38043478 	2.4180278 	-0.0065531002 	1.0561815e-06
0.39130435 	2.4309933 	-0.0062429765 	9.3864982e-06
0.40217391 	2.442831 	-0.0059416774 	6.4602557e-06
0.41304348 	2.4531498 	-0.0056514417 	1.3672684e-06
0.42391304 	2.4620205 	-0.0053874785 	9.8525448e-08
0.43478261 	2.4690606 	-0.0051359635 	1.2890347e-05
0.44565217 	2.475596 	-0.0048865954 	3.558383e-07
0.45652174 	2.4804495 	-0.004648667 	1.228259e-06
0.4673913 	2.4846864 	-0.0044266571 	2.7108914e-06
0.47826087 	2.4876409 	-0.004211094 	6.9877952e-06
0.48913043 	2.489797 	-0.0039977451 	6.9008525e-07
0.5 	2.4910579 	-0.003788646 	1.0059244e-06
0.51086957 	2.4919566 	-0.0035844451 	3.2025076e-06
0.52173913 	2.4919075 	-0.0033864347 	3.8343097e-06
0.5326087 	2.4909727 	-0.0031916266 	8.4114679e-07
0.54347826 	2.4895688 	-0.0029939076 	7.356498e-07
0.55434783 	2.4877106 	-0.0027953586 	4.7468765e-06
0.56521739 	2.4852534 	-0.0026009887 	2.6259327e-08
0.57608696 	2.4818097 	-0.0024101038 	1.1946532e-06
0.58695652 	2.4782387 	-0.0022103251 	1.6741709e-07
0.59782609 	2.4739044 	-0.0020143489 	3.9117892e-06
0.60869565 	2.4689302 	-0.0018202301 	6.5863326e-07
0.61956522 	2.4634914 	-0.0016208139 	5.1880631e-07
0.63043478 	2.4574965 	-0.0014188721 	5.4062819e-06
0.64130435 	2.4507885 	-0.0012193885 	4.1239359e-07
0.65217391 	2.4434667 	-0.0010156164 	5.8658492e-07
0.66304348 	2.4355673 	-0.00080637724 	4.3736138e-06
0.67391304 	2.4268647 	-0.00059983767 	3.8903475e-07
0.68478261 	2.4174771 	-0.00038746251 	4.3266151e-07
0.69565217 	2.4073565 	-0.00017057424 	3.6014873e-06
0.70652174 	2.3963439 	4.3018295e-05 	5.2380295e-07
0.7173913 	2.3845862 	0.0002670769 	1.1464584e-07
0.72826087 	2.3718835 	0.00048883269 	2.7035364e-08
0.73913043 	2.3580917 	0.0007088429 	4.8857469e-07
0.75 	2.3433456 	0.00093898921 	3.3647411e-06
0.76086957 	2.3275359 	0.001158264 	2.9698007e-07
0.77173913 	2.3106112 	0.0013884602 	1.834416e-07
0.7826087 	2.2923652 	0.0016035597 	7.1302402e-08
0.79347826 	2.2728733 	0.0018214756 	4.6278418e-08
0.80434783 	2.2520463 	0.0020266783 	-1.4093343e-08
0.81521739 	2.2297195 	0.0022236757 	-2.2552936e-08
0.82608696 	2.2059481 	0.0024040263 	-8.2295973e-08
0.83695652 	2.1805078 	0.0025697225 	-6.6416762e-08
0.84782609 	2.1535078 	0.0027034668 	-3.2011069e-07
0.85869565 	2.1245917 	0.0028202159 	2.3615361e-07
0.86956522 	2.0942527 	0.0028852805 	-9.5301255e-07
0.88043478 	2.0614653 	0.0029271345 	-6.0890095e-08
0.89130435 	2.0268733 	0.0029148409 	-2.432957e-07
0.90217391 	1.9903548 	0.0028325212 	-1.2090645e-06
0.91304348 	1.951008 	0.002702147 	-2.705597e-08
0.92391304 	1.9092454 	0.0025240583 	-1.104113e-06
0.93478261 	1.8649655 	0.0022678514 	-2.0781097e-07
0.94565217 	1.8128008 	0.0019108074 	-1.8539471e-06
0.95652174 	1.7551776 	0.0015238879 	-1.0930435e-06
0.9673913 	1.6830625 	0.0010782305 	-1.5641639e-07
0.97826087 	1.5805413 	0.00063534945 	-5.3219116e-07
0.98913043 	1.3695686 	0.00012498491 	-1.8793863e-07
