0.47777778 	0.03749078 	-0.017021493 	9.897109e-07 	0.062720625 	1.818489e-06 	0.0083267718
0.48888889 	0.036134158 	-0.01630327 	3.5616987e-06 	0.060287219 	-1.2991369e-05 	0.023760421
0.5 	0.033143328 	-0.014948768 	1.5712444e-07 	0.055358572 	-5.9562431e-07 	0.02074025
0.51111111 	0.029961132 	-0.013591475 	1.735806e-06 	0.050210656 	-1.6958519e-06 	0.0028312841
0.52222222 	0.027026828 	-0.012140041 	1.1129662e-05 	0.045059492 	-3.9777385e-05 	0.015699691
0.53333333 	0.02429455 	-0.01072182 	3.7578336e-06 	0.040047203 	-1.3229733e-05 	0.013885883
0.54444444 	0.02190188 	-0.0093414253 	6.550091e-07 	0.035328887 	-1.0046214e-06 	0.0065532393
0.55555556 	0.019928043 	-0.0080204666 	1.0503609e-06 	0.03102405 	-1.8584661e-06 	0.0016563139
0.56666667 	0.018402904 	-0.0067644903 	9.4892711e-07 	0.027208025 	-1.964335e-06 	0.0012502342
0.57777778 	0.01730777 	-0.0055767109 	5.3780647e-07 	0.02392033 	-1.2938052e-06 	0.0037730578
0.58888889 	0.01658488 	-0.0044576461 	1.1177167e-06 	0.021176541 	-2.8597978e-06 	0.0074223952
0.6 	0.016182089 	-0.0034002104 	1.1483568e-05 	0.018989635 	-2.4621853e-05 	0.0067536856
0.61111111 	0.015984975 	-0.0023983537 	1.2585369e-05 	0.01732381 	-2.0551197e-05 	0.0062849488
0.62222222 	0.015924234 	-0.0014451168 	1.9732025e-07 	0.016133626 	-5.1258101e-07 	0.0048481485
0.63333333 	0.015948659 	-0.00055135856 	2.3222989e-07 	0.01546011 	-5.2325261e-07 	0.0047865672
0.64444444 	0.01601898 	0.00029036339 	1.5954925e-05 	0.015240951 	-6.9248497e-06 	0.0057930097
0.65555556 	0.016106056 	0.001100225 	4.9168539e-08 	0.015292366 	-9.1791973e-08 	0.0055956549
0.66666667 	0.016209319 	0.0018554179 	1.9157297e-06 	0.015673454 	3.149175e-07 	0.0057678225
0.67777778 	0.016331833 	0.0025737735 	9.9015809e-06 	0.016296056 	7.0713334e-06 	0.0058947888
0.68888889 	0.016478274 	0.0032651124 	1.4466128e-06 	0.017052721 	-1.8185314e-06 	0.0017168028
0.7 	0.016645298 	0.0039025466 	1.4602974e-05 	0.017989808 	1.761754e-05 	0.0061448552
0.71111111 	0.016853118 	0.0045309051 	2.001977e-06 	0.01899157 	-2.1042864e-06 	0.00086886378
0.72222222 	0.017085892 	0.0050997587 	1.2525384e-05 	0.020092578 	2.0538184e-05 	0.0065425366
0.73333333 	0.017365984 	0.0056619742 	2.1935501e-06 	0.021217786 	-1.9652396e-06 	0.00092808646
0.74444444 	0.017682972 	0.0061898248 	1.0910279e-05 	0.022438889 	2.2238503e-05 	0.0070818748
0.75555556 	0.018045924 	0.0067030926 	2.3031067e-06 	0.02364446 	-1.7980758e-06 	0.0010503136
0.76666667 	0.018460386 	0.0072062889 	8.0433564e-06 	0.024973877 	1.9338395e-05 	0.007734979
0.77777778 	0.018917993 	0.0076938528 	1.2633834e-06 	0.02628413 	-8.765397e-07 	0.0045032026
0.78888889 	0.0194274 	0.0081728286 	3.6452587e-06 	0.027672619 	9.9197138e-06 	0.0084788826
0.8 	0.019984282 	0.0086413619 	1.743761e-06 	0.029082296 	5.2278358e-06 	0.0091602698
0.81111111 	0.020592718 	0.0091060397 	1.0512766e-06 	0.030514026 	-5.9712726e-07 	0.0056636895
0.82222222 	0.021256879 	0.0095685329 	5.9281017e-06 	0.032032414 	1.9195975e-05 	0.01004746
0.83333333 	0.021966337 	0.010028711 	7.1594387e-08 	0.033573482 	-3.7260735e-08 	0.010528138
0.84444444 	0.022738261 	0.010491745 	1.3467439e-06 	0.035146684 	-6.4774676e-07 	0.0050838041
0.85555556 	0.023565567 	0.010960151 	2.563714e-06 	0.036826952 	9.2925756e-06 	0.011836152
0.86666667 	0.024449948 	0.011429602 	3.9175552e-06 	0.038538034 	1.481403e-05 	0.012690592
0.87777778 	0.025389216 	0.011903567 	6.6707539e-07 	0.040303395 	2.6156291e-06 	0.013568059
0.88888889 	0.026388784 	0.012381383 	8.3531018e-07 	0.042105561 	-3.4013311e-07 	0.008710326
0.9 	0.027443711 	0.012863318 	1.3755939e-06 	0.043965129 	-5.4371004e-07 	0.004498249
0.91111111 	0.028549985 	0.013349112 	1.3003344e-06 	0.045889451 	-5.027503e-07 	0.004462571
0.92222222 	0.029701714 	0.013837445 	7.0233709e-07 	0.047874074 	-2.6509694e-07 	0.0098390128
0.93333333 	0.030888583 	0.014327171 	5.9511499e-07 	0.049897568 	2.6628433e-06 	0.018092736
0.94444444 	0.032086406 	0.014809356 	2.1286409e-06 	0.051916687 	9.5979752e-06 	0.018978466
0.95555556 	0.033247553 	0.015297646 	7.3759064e-07 	0.053880897 	-1.2732965e-07 	0.0067429793
0.96666667 	0.034389981 	0.015641976 	3.3731481e-07 	0.055630242 	2.6753182e-06 	0.021050202
0.97777778 	0.035215125 	0.015960283 	-4.7623777e-09 	0.057088615 	1.9758659e-07 	0.021998436
0.98888889 	0.034556221 	0.015703646 	-1.1729739e-06 	0.056443875 	-4.2927399e-06 	0.021951808
