0.47777778 	2.0037656 	0.00016743433 	-2.8812335e-08
0.48888889 	2.4433544 	0.00025709382 	-4.7383078e-08
0.5 	2.6358649 	0.00046543657 	-8.3279571e-08
0.51111111 	2.7592595 	0.00066358377 	-9.9699753e-08
0.52222222 	2.8472957 	0.00089922183 	-2.9946791e-07
0.53333333 	2.9137586 	0.0011043549 	-5.7592069e-08
0.54444444 	2.9642257 	0.0013032668 	-5.3115527e-08
0.55555556 	3.0023567 	0.0014845602 	-2.0090783e-07
0.56666667 	3.0311217 	0.0016349186 	-2.4340166e-07
0.57777778 	3.0523839 	0.0017515136 	-1.7807828e-07
0.58888889 	3.0677192 	0.0018387006 	-1.5344651e-08
0.6 	3.0779885 	0.0018891548 	-8.3203225e-08
0.61111111 	3.0844709 	0.0019083462 	-3.7709952e-07
0.62222222 	3.0883019 	0.0019063092 	-5.9713325e-07
0.63333333 	3.09012 	0.0018900796 	-1.7457737e-07
0.64444444 	3.0899972 	0.0018560837 	-1.3142629e-07
0.65555556 	3.0881847 	0.0018049678 	-5.5399868e-07
0.66666667 	3.0856325 	0.0017506946 	-1.0833657e-07
0.67777778 	3.0816771 	0.0016810474 	-2.4972519e-07
0.68888889 	3.0768811 	0.0016045459 	-2.839487e-07
0.7 	3.0715259 	0.0015244046 	-8.805512e-08
0.71111111 	3.0648802 	0.0014326791 	-3.2451546e-07
0.72222222 	3.0582095 	0.0013441873 	-3.1825008e-08
0.73333333 	3.0501737 	0.001247422 	-2.7392191e-07
0.74444444 	3.0419283 	0.0011513698 	-2.0423513e-08
0.75555556 	3.0326045 	0.0010543875 	-2.1358124e-07
0.76666667 	3.0226115 	0.00095401735 	-9.4470426e-08
0.77777778 	3.0116418 	0.00085801492 	-1.7483784e-07
0.78888889 	2.9998147 	0.00076001139 	-8.9503783e-09
0.8 	2.9868984 	0.00066834958 	-6.7800649e-08
0.81111111 	2.9729081 	0.00057934195 	-2.6829023e-08
0.82222222 	2.9577366 	0.00049366999 	-1.5646722e-09
0.83333333 	2.9409506 	0.00041786344 	1.6271113e-09
0.84444444 	2.9225234 	0.00034649936 	2.6835971e-08
0.85555556 	2.9022459 	0.00028157276 	3.8254293e-09
0.86666667 	2.8795364 	0.00022709402 	1.7007502e-08
0.87777778 	2.8541071 	0.00018148701 	5.9295558e-08
0.88888889 	2.8255013 	0.00014403306 	9.6777658e-08
0.9 	2.792924 	0.00011481678 	1.1212607e-07
0.91111111 	2.755427 	9.3457786e-05 	1.087807e-07
0.92222222 	2.711729 	7.8719908e-05 	8.6574296e-08
0.93333333 	2.6600703 	6.835098e-05 	4.3694212e-08
0.94444444 	2.5979643 	7.131787e-05 	-3.9005994e-08
0.95555556 	2.5197211 	3.9402002e-05 	3.1538323e-08
0.96666667 	2.4166263 	6.126236e-05 	7.8262175e-10
0.97777778 	2.2651173 	3.2307682e-05 	5.4548441e-09
0.98888889 	1.9748118 	5.3449605e-05 	8.6035566e-10
