0.4742268 	0.028745021 	-0.013442591 	2.4507674e-07 	0.047516701 	-8.4522202e-07 	0.008451344
0.48453608 	0.039776375 	-0.018364532 	3.2951013e-08 	0.065607214 	-8.5528066e-08 	0.016499149
0.49484536 	0.034476737 	-0.016277158 	1.1462044e-05 	0.057490647 	-4.3250784e-05 	0.017506103
0.50515464 	0.02838941 	-0.01365871 	-8.9107132e-08 	0.047739455 	3.4143771e-07 	0.01370755
0.51546392 	0.023311395 	-0.011153064 	5.0445162e-06 	0.038891396 	-1.6429018e-05 	0.011402212
0.5257732 	0.019619062 	-0.0085718873 	2.4822048e-05 	0.03086729 	-7.3101233e-05 	0.0097114679
0.53608247 	0.017526532 	-0.006260319 	7.9192082e-06 	0.024664482 	-2.049243e-05 	0.008415811
0.54639175 	0.016677323 	-0.0043580067 	4.4784712e-07 	0.020570179 	-9.3387373e-07 	0.00756113
0.55670103 	0.016631292 	-0.0027526613 	-2.6987052e-08 	0.018267851 	2.7177102e-08 	0.0070210235
0.56701031 	0.016889375 	-0.0013872361 	3.4240642e-06 	0.017295757 	-2.6220482e-06 	0.0069912458
0.57731959 	0.017186809 	-0.00022889984 	9.3661542e-06 	0.017197628 	-1.4666373e-06 	0.0070422319
0.58762887 	0.017452603 	0.00077005398 	1.2428198e-05 	0.017626384 	4.5272595e-06 	0.0071994665
0.59793814 	0.0176812 	0.0016463844 	1.8815148e-06 	0.018362273 	1.4721347e-06 	0.0074198261
0.60824742 	0.017879439 	0.0024167742 	-1.2902366e-06 	0.019282978 	-1.783623e-06 	0.00024758817
0.6185567 	0.018054151 	0.0030897648 	3.1161254e-06 	0.020289292 	3.4431139e-06 	0.0076808637
0.62886598 	0.018217007 	0.0036951141 	6.1146008e-06 	0.021316628 	8.2271116e-06 	0.0079630793
0.63917526 	0.018373932 	0.0042448891 	-8.8908384e-07 	0.02233212 	-1.7770609e-06 	0.001830716
0.64948454 	0.01852222 	0.0047275919 	3.7700066e-06 	0.023320147 	5.7087672e-06 	0.0082586879
0.65979381 	0.018667848 	0.0051691688 	1.2018765e-06 	0.024263679 	1.9393793e-06 	0.0085543067
0.67010309 	0.018809967 	0.0055634208 	-1.7338904e-07 	0.025146967 	-4.1105433e-07 	0.0070271738
0.68041237 	0.018946987 	0.0059134074 	3.3247979e-06 	0.025969506 	5.4266291e-06 	0.0088446934
0.69072165 	0.019081472 	0.0062331322 	-5.1368767e-07 	0.026729902 	-1.2864392e-06 	0.0036862462
0.70103093 	0.019208133 	0.0065129891 	3.1377999e-06 	0.027432119 	4.7959873e-06 	0.0091196239
0.71134021 	0.019331877 	0.0067690135 	-4.8278029e-07 	0.028067966 	-1.2656881e-06 	0.0034969485
0.72164948 	0.019445587 	0.0069908796 	1.8250908e-06 	0.028647578 	2.0680808e-06 	0.009371305
0.73195876 	0.019553659 	0.0071903971 	-2.1971829e-07 	0.02916007 	-6.0148353e-07 	0.0063167549
0.74226804 	0.019655073 	0.0073681779 	6.3838799e-07 	0.029631147 	4.1125843e-08 	0.0095854702
0.75257732 	0.01974933 	0.0075258604 	-5.8981829e-09 	0.030045649 	-1.6917631e-08 	0.0094842561
0.7628866 	0.019837775 	0.0076662464 	1.5202729e-07 	0.03041448 	-5.4029544e-07 	0.0097523924
0.77319588 	0.019920202 	0.0077926947 	2.1238199e-08 	0.030744195 	-7.5479222e-08 	0.009753021
0.78350515 	0.019997091 	0.0079072919 	1.3379311e-08 	0.031037166 	-1.1402783e-06 	0.0098797343
0.79381443 	0.02006945 	0.0080118534 	-6.4847945e-08 	0.031295278 	-2.1643517e-07 	0.0076689412
0.80412371 	0.020140334 	0.0081139042 	-9.2621835e-08 	0.031545833 	-2.5988736e-06 	0.0099820139
0.81443299 	0.020210325 	0.0082095271 	-1.2734368e-07 	0.031755143 	-5.295115e-07 	0.0011173684
0.82474227 	0.020285613 	0.0083159309 	-1.2582199e-08 	0.032013088 	-2.3899301e-06 	0.010073271
0.83505155 	0.020368664 	0.0084270969 	1.7224135e-08 	0.032262768 	-1.2310468e-07 	0.010166844
0.84536082 	0.020465633 	0.0085495945 	7.3417871e-08 	0.032528379 	1.1542623e-07 	0.0059354465
0.8556701 	0.020589407 	0.0087000221 	6.6647311e-07 	0.03287733 	-5.7248962e-07 	0.010277489
0.86597938 	0.020746449 	0.0088768259 	5.4561875e-07 	0.033289942 	4.9474187e-07 	0.010417966
0.87628866 	0.020952443 	0.0090886927 	3.5315811e-07 	0.03379003 	9.0133596e-07 	0.0033027273
0.88659794 	0.021230805 	0.0093559601 	2.5689618e-07 	0.03446942 	7.0851528e-07 	0.0065591459
0.89690722 	0.021613002 	0.0096894488 	7.3567704e-07 	0.035358735 	1.6195183e-06 	0.01084853
0.90721649 	0.022138462 	0.010100373 	2.3044152e-06 	0.03650346 	5.8537928e-06 	0.011165627
0.91752577 	0.0228519 	0.010601642 	3.3612127e-06 	0.037972469 	9.4425722e-06 	0.011567575
0.92783505 	0.023814202 	0.011206289 	3.0984093e-06 	0.039837864 	9.3939491e-06 	0.012062518
0.93814433 	0.025085308 	0.011921101 	7.0008543e-07 	0.042161759 	2.2761131e-06 	0.012652284
0.94845361 	0.026721486 	0.012736151 	8.0853545e-07 	0.044947405 	3.0245673e-06 	0.0020330367
0.95876289 	0.028691883 	0.013669577 	1.8592827e-06 	0.048255849 	7.2717413e-06 	0.014829376
0.96907216 	0.030989837 	0.014478632 	3.8154308e-07 	0.05151423 	1.608311e-06 	0.0049427746
0.97938144 	0.033127728 	0.015249048 	4.2736556e-07 	0.054628353 	1.888625e-06 	0.016708324
0.98969072 	0.033479105 	0.015294394 	-1.0306188e-06 	0.055054531 	-3.801222e-06 	0.016981105
