0.47826087 	0.039708875 	-0.018345403 	8.5282229e-08 	0.065668032 	-2.9443045e-07 	0.022286431
0.48913043 	0.037856296 	-0.017538833 	8.4523886e-09 	0.062562592 	4.5993362e-08 	0.01834001
0.5 	0.032732002 	-0.015466408 	3.6082958e-08 	0.054634644 	-1.3413157e-07 	0.022794158
0.51086957 	0.027441463 	-0.013204106 	4.9530141e-06 	0.046179486 	-1.7853866e-05 	0.019278097
0.52173913 	0.022931154 	-0.010799536 	-1.17655e-06 	0.037925157 	4.1173785e-06 	0.0028224284
0.5326087 	0.01962802 	-0.0085329006 	3.3399583e-06 	0.030831116 	-9.6953693e-06 	0.012744919
0.54347826 	0.017709743 	-0.0064443112 	1.6776533e-05 	0.025192432 	-4.2745068e-05 	0.011242851
0.55434783 	0.016831729 	-0.0046566013 	1.1050234e-05 	0.021218414 	-2.2894973e-05 	0.01022435
0.56521739 	0.016660852 	-0.0031070025 	9.6463887e-06 	0.018749259 	-1.4215765e-05 	0.0096658148
0.57608696 	0.016812691 	-0.0017632942 	1.2217712e-05 	0.017495696 	-1.0398814e-05 	0.0094596195
0.58695652 	0.017046757 	-0.00060262006 	6.9297815e-06 	0.017116859 	-1.8064557e-06 	0.0094862005
0.59782609 	0.017273479 	0.00040712907 	-2.4707136e-07 	0.017328317 	-9.8417685e-08 	0.0083499577
0.60869565 	0.017472402 	0.001289479 	-1.4705237e-06 	0.017922947 	-1.4245125e-06 	0.0013191061
0.61956522 	0.017646547 	0.002061999 	-3.2977606e-07 	0.01872401 	-4.7336287e-07 	0.0078475302
0.63043478 	0.017804297 	0.0027481856 	7.9961899e-06 	0.019646725 	8.1872968e-06 	0.010254006
0.64130435 	0.017955278 	0.0033669744 	-5.60329e-07 	0.020615347 	-1.012337e-06 	0.0065373452
0.65217391 	0.018101796 	0.0039178311 	-4.7494024e-07 	0.021592174 	-9.9734113e-07 	0.0068656798
0.66304348 	0.018244907 	0.0044120719 	4.5066889e-06 	0.022555613 	6.5412315e-06 	0.011007021
0.67391304 	0.018390366 	0.0048613929 	-1.0428448e-06 	0.023471608 	-2.4344721e-06 	0.0016984177
0.68478261 	0.018530482 	0.0052622495 	2.703689e-06 	0.024359587 	4.1954243e-06 	0.011402581
0.69565217 	0.018672391 	0.0056280756 	-4.6931997e-07 	0.025183569 	-1.1867766e-06 	0.0067552673
0.70652174 	0.018809605 	0.0059575465 	6.5033363e-07 	0.025963707 	1.0188422e-06 	0.011793498
0.7173913 	0.01894602 	0.0062572265 	-2.6833719e-07 	0.026680961 	-7.247811e-07 	0.0087572471
0.72826087 	0.019075106 	0.0065254601 	4.081645e-07 	0.027343957 	5.8918383e-07 	0.012169798
0.73913043 	0.019203591 	0.006772242 	-2.6387254e-07 	0.027952329 	-7.5745229e-07 	0.0083678732
0.75 	0.019326852 	0.0069989491 	4.4350141e-07 	0.028528342 	5.2792635e-07 	0.012512845
0.76086957 	0.019449614 	0.0072070397 	-2.0996543e-07 	0.029047731 	-6.4265004e-07 	0.0084745585
0.77173913 	0.019571727 	0.0074073038 	6.8883815e-08 	0.029561442 	5.8978479e-08 	0.012807509
0.7826087 	0.019695195 	0.0075957224 	-3.4558212e-08 	0.030035624 	-1.1488238e-07 	0.012025687
0.79347826 	0.019820552 	0.0077759254 	-8.8719349e-08 	0.030481668 	-3.4351588e-07 	0.0083265996
0.80434783 	0.019955059 	0.0079610323 	7.3721043e-07 	0.030952697 	3.482294e-07 	0.013297219
0.81521739 	0.020099169 	0.0081413625 	-4.4939934e-08 	0.031381629 	-3.6814579e-07 	0.0011831527
0.82608696 	0.020261762 	0.0083417329 	2.8903266e-07 	0.031901931 	2.3330363e-07 	0.013533366
0.83695652 	0.020452148 	0.0085543123 	4.5335831e-07 	0.032436914 	5.8649293e-07 	0.013787914
0.84782609 	0.020676799 	0.0087827945 	2.8963205e-07 	0.033000099 	6.6120761e-07 	0.0021005026
0.85869565 	0.020949747 	0.0090495266 	1.1808328e-07 	0.033707332 	3.125395e-07 	0.010905698
0.86956522 	0.021292651 	0.0093550666 	1.7032367e-06 	0.03452958 	3.6180548e-06 	0.014426773
0.88043478 	0.021722252 	0.0097060813 	1.4789986e-06 	0.035498659 	3.5926098e-06 	0.014841906
0.89130435 	0.022264727 	0.010112534 	5.8201695e-08 	0.036659457 	1.774336e-07 	0.014263234
0.90217391 	0.022959379 	0.010585146 	3.099478e-07 	0.038060605 	9.9430214e-07 	0.01065394
0.91304348 	0.023841111 	0.011132894 	3.634192e-07 	0.039759588 	1.2209637e-06 	0.010581871
0.92391304 	0.024951491 	0.011760798 	1.3433989e-07 	0.041800246 	4.7126236e-07 	0.015095041
0.93478261 	0.026328124 	0.012466762 	2.4562963e-06 	0.044191993 	8.5066025e-06 	0.018233618
0.94565217 	0.02796863 	0.013233374 	1.8074441e-06 	0.046915565 	6.5063141e-06 	0.019135326
0.95652174 	0.029811835 	0.01404825 	6.5627921e-07 	0.04982963 	2.6836344e-06 	0.00065906403
0.9673913 	0.031859842 	0.014749631 	1.1535023e-07 	0.052744646 	5.1709154e-07 	0.021690452
0.97826087 	0.033631979 	0.015387464 	4.8794474e-07 	0.055294997 	2.2377532e-06 	0.022974596
0.98913043 	0.033801075 	0.01539281 	-1.607007e-06 	0.055501246 	-6.0773977e-06 	0.023023626
