2.7909061e-19 	0.046038853 	-3.1267381e-15 	-2.6420574e-21 	1.9085491e-17 	2.7480255e-19 	1.3295808e-17
0.010869565 	0.045899924 	-0.0026628903 	1.3372492e-06 	0.058251251 	-0.00025581004 	0.0080085963
0.02173913 	0.04583517 	-0.0051346798 	5.3666529e-07 	0.060668945 	-0.00013773896 	0.012672333
0.032608696 	0.045907372 	-0.0075552555 	1.602154e-07 	0.064208273 	-2.2006518e-05 	0.017346195
0.043478261 	0.046192784 	-0.009867047 	1.5922017e-06 	0.068387504 	-9.4932447e-05 	0.022234585
0.054347826 	0.046682165 	-0.012047808 	-1.1517099e-06 	0.072753901 	-2.3691506e-05 	0.0024334837
0.065217391 	0.047396653 	-0.014137824 	-8.3781767e-07 	0.07710486 	-1.2500358e-05 	0.018007216
0.076086957 	0.048063665 	-0.015815164 	-1.9656599e-06 	0.080523388 	-2.3226215e-05 	0.0068739262
0.086956522 	0.048694425 	-0.017402882 	-8.7985441e-08 	0.083679252 	-8.9216193e-07 	0.040715287
0.097826087 	0.049173667 	-0.018738864 	4.691561e-06 	0.085996121 	-3.9736803e-05 	0.046868216
0.10869565 	0.049358972 	-0.019786025 	-2.2139359e-06 	0.087280723 	-1.9464501e-05 	0.01621268
0.11956522 	0.049259985 	-0.02055742 	-1.4870309e-06 	0.087843167 	-1.0064886e-05 	0.032091795
0.13043478 	0.04885689 	-0.021043144 	-3.6797914e-07 	0.087529668 	-2.4906463e-06 	0.051919466
0.14130435 	0.04796199 	-0.021142667 	-4.4983425e-06 	0.08580436 	-1.9066324e-05 	0.00026755283
0.15217391 	0.046962642 	-0.021054301 	-3.7773804e-07 	0.08402837 	-8.374074e-07 	0.057211612
0.16304348 	0.045452178 	-0.020561142 	-4.2051107e-06 	0.080742998 	-9.3223093e-06 	0.014188524
0.17391304 	0.043923065 	-0.019955891 	-1.2091884e-06 	0.077545244 	-1.4230945e-06 	0.043471322
0.18478261 	0.042125473 	-0.019099303 	-3.237818e-06 	0.073551067 	-3.8105897e-06 	0.016869715
0.19565217 	0.040371705 	-0.01819373 	-5.6106422e-07 	0.069734875 	-6.7252904e-07 	0.039266745
0.20652174 	0.038529487 	-0.017176123 	-2.3712162e-06 	0.065581607 	-2.8422981e-06 	0.01189914
0.2173913 	0.036795445 	-0.016167764 	6.6314236e-06 	0.061769562 	-2.5679981e-05 	0.037485235
0.22826087 	0.035101392 	-0.0151757 	-1.1697429e-06 	0.057914943 	-4.8201718e-06 	0.0026802293
0.23913043 	0.033534751 	-0.014197944 	1.6401886e-05 	0.05446833 	-6.160065e-05 	0.029809426
0.25 	0.032073721 	-0.013315457 	4.4447069e-07 	0.051173727 	-4.3756965e-06 	0.010742406
0.26086957 	0.030713255 	-0.012448791 	8.8320946e-08 	0.048162465 	-8.6949639e-07 	0.020553794
0.27173913 	0.029465671 	-0.011674265 	4.4005004e-06 	0.045405519 	-1.626419e-05 	0.022395802
0.2826087 	0.028314385 	-0.010959942 	1.5885974e-06 	0.0428191 	-5.9103728e-06 	0.0041034377
0.29347826 	0.027265422 	-0.010282667 	1.9705493e-05 	0.040539495 	-7.2257999e-05 	0.017758558
0.30434783 	0.026270952 	-0.0096617643 	5.0788936e-07 	0.038344865 	-1.3393015e-06 	0.013744297
0.31521739 	0.025369832 	-0.0090839995 	1.0039165e-06 	0.036348217 	-2.6473224e-06 	0.0087393106
0.32608696 	0.024549235 	-0.008549 	2.797836e-05 	0.034545161 	-0.00010162434 	0.01335293
0.33695652 	0.023755857 	-0.0080342629 	6.3758531e-07 	0.032770863 	-1.31287e-06 	0.0098500008
0.34782609 	0.023049922 	-0.0075528122 	5.6412555e-07 	0.031174782 	-1.1616069e-06 	0.0084476433
0.35869565 	0.022425623 	-0.0071033552 	2.7509583e-05 	0.029723628 	-9.7266152e-05 	0.010054909
0.36956522 	0.021810184 	-0.0066582837 	1.7156183e-06 	0.028278037 	-6.065944e-06 	0.0094867718
0.38043478 	0.021283581 	-0.0062373657 	9.2615572e-07 	0.0269676 	-1.4795459e-06 	0.005166491
0.39130435 	0.020845775 	-0.0058363024 	2.1039425e-05 	0.025817229 	-6.9488816e-05 	0.0076201789
0.40217391 	0.020424821 	-0.0054383257 	1.1329493e-05 	0.024676319 	-3.7418943e-05 	0.0071894054
0.41304348 	0.020050705 	-0.0050452103 	2.2317351e-06 	0.023577575 	-2.5917853e-06 	0.00012585327
0.42391304 	0.019778309 	-0.0046727287 	1.1255754e-05 	0.022710315 	-3.226513e-05 	0.0058667459
0.43478261 	0.019549668 	-0.0043000124 	2.3292051e-05 	0.021876652 	-6.6767724e-05 	0.0055420378
0.44565217 	0.019321028 	-0.0039272962 	3.5207255e-06 	0.021042989 	-1.009232e-05 	0.0052173298
0.45652174 	0.019165336 	-0.0035623354 	2.2352813e-07 	0.020345834 	-1.6363223e-07 	0.0040637103
0.4673913 	0.019093261 	-0.0032010007 	1.9181465e-05 	0.019830054 	-4.2690371e-05 	0.00438834
0.47826087 	0.019025147 	-0.0028391198 	1.9714853e-05 	0.019319262 	-4.3877483e-05 	0.0041440108
0.48913043 	0.018957033 	-0.0024772388 	2.008313e-06 	0.018808469 	-4.4697121e-06 	0.0038996815
0.5 	0.018949979 	-0.0021111009 	3.0412619e-06 	0.018466248 	-4.4479603e-06 	0.0035850459
0.51086957 	0.01898454 	-0.0017394405 	2.1917845e-05 	0.018257252 	-3.2055675e-05 	0.0034002678
0.52173913 	0.0190191 	-0.0013677802 	1.7795529e-05 	0.018048256 	-2.6026632e-05 	0.0032154896
0.5326087 	0.019053661 	-0.0009961198 	1.0269585e-06 	0.01783926 	-1.5019656e-06 	0.0030307115
0.54347826 	0.019127841 	-0.00061191054 	6.8217349e-06 	0.01782554 	-4.8663558e-06 	0.0028751724
0.55434783 	0.019219666 	-0.00021925901 	2.5037369e-05 	0.017893546 	-1.7860669e-05 	0.0027336197
0.56521739 	0.01931149 	0.00017339252 	1.2377779e-05 	0.017961553 	-8.8298182e-06 	0.0025920671
0.57608696 	0.019407636 	0.00056509466 	6.5998225e-07 	0.018058858 	2.7700107e-07 	0.00034209953
0.58695652 	0.019529711 	0.00097141021 	1.4314262e-05 	0.018358349 	-1.0967016e-06 	0.0023883373
0.59782609 	0.019656279 	0.0013785526 	1.9021045e-05 	0.018668751 	-1.4573166e-06 	0.0022786059
0.60869565 	0.019782847 	0.001785695 	2.8488758e-06 	0.018979153 	-2.182695e-07 	0.0021688744
0.61956522 	0.019928682 	0.0022003734 	8.1843081e-06 	0.019430223 	3.756449e-06 	0.0021422406
0.63043478 	0.020087185 	0.0026222924 	2.1785315e-05 	0.01994719 	9.9990645e-06 	0.0020567501
0.64130435 	0.020245687 	0.0030442114 	5.8329846e-06 	0.020464158 	2.6772341e-06 	0.0019712597
0.65217391 	0.020421635 	0.0034731361 	5.972083e-06 	0.021075153 	5.4623813e-06 	0.001973668
0.66304348 	0.02061761 	0.0039126455 	2.1317255e-05 	0.021775525 	1.9497883e-05 	0.0019071046
0.67391304 	0.020813584 	0.0043521548 	5.3666869e-06 	0.022475897 	4.9086542e-06 	0.0018405413
0.68478261 	0.021034716 	0.0048016053 	7.2625579e-06 	0.023272112 	9.5106533e-06 	0.0018685706
0.69565217 	0.021277747 	0.0052615964 	1.7850691e-05 	0.024144078 	2.3376299e-05 	0.0018169107
0.70652174 	0.021520777 	0.0057215874 	1.7026806e-06 	0.025016045 	2.2297384e-06 	0.0017652508
0.7173913 	0.021810367 	0.0061987374 	1.1923777e-05 	0.026021706 	1.9754987e-05 	0.0018164683
0.72826087 	0.022112118 	0.0066814764 	1.1345882e-05 	0.027060103 	1.8797546e-05 	0.0017767436
0.73913043 	0.022430218 	0.0071691797 	2.3762852e-06 	0.028136952 	4.6678365e-06 	0.0018394585
0.75 	0.022803223 	0.0076767816 	1.8629895e-05 	0.029340643 	3.6595483e-05 	0.0018092571
0.76086957 	0.023176229 	0.0081843835 	1.6357704e-06 	0.030544334 	3.2132123e-06 	0.0017790558
0.77173913 	0.023619373 	0.0087137535 	1.3564415e-05 	0.03188712 	3.0363824e-05 	0.0018627196
0.7826087 	0.024076466 	0.0092481529 	6.0532023e-06 	0.033257642 	1.355004e-05 	0.0018402761
0.79347826 	0.024591268 	0.009798569 	9.6569512e-06 	0.034728474 	2.401211e-05 	0.0019363875
0.80434783 	0.025145039 	0.010360502 	8.0694209e-06 	0.036267578 	2.00647e-05 	0.0019201937
0.81521739 	0.02575336 	0.010934894 	8.2919803e-06 	0.037890264 	2.2543118e-05 	0.0020287579
0.82608696 	0.026414476 	0.011521825 	7.5361472e-06 	0.03959463 	2.0488261e-05 	0.0020175985
0.83695652 	0.027138127 	0.012117667 	9.41049e-06 	0.041381115 	2.7766725e-05 	0.0021373694
0.84782609 	0.027911158 	0.012720583 	4.333134e-06 	0.043233036 	1.2785406e-05 	0.0021302354
0.85869565 	0.02876027 	0.013321517 	1.2575563e-05 	0.04516023 	4.0305959e-05 	0.002258145
0.86956522 	0.029639226 	0.013918665 	4.4581197e-08 	0.047108387 	4.1507248e-07 	0.0007318781
0.88043478 	0.030582527 	0.014482932 	8.7250733e-06 	0.049080708 	3.094103e-05 	0.0023845548
0.89130435 	0.031525545 	0.015006328 	4.7999283e-06 	0.050984299 	1.9868005e-05 	0.0025066785
0.90217391 	0.032463099 	0.015478276 	1.4954579e-07 	0.052801962 	6.1900436e-07 	0.0025064848
0.91304348 	0.033272506 	0.01580198 	2.2166648e-06 	0.054267286 	1.3885707e-05 	0.0026101482
0.92391304 	0.033890777 	0.015968262 	-3.1763494e-06 	0.055298637 	1.1665912e-06 	0.0026785109
0.93478261 	0.034259313 	0.015921642 	-4.8639166e-06 	0.055755971 	-8.3476106e-06 	0.0026926474
0.94565217 	0.034136916 	0.01552645 	-1.0371378e-05 	0.055202824 	-2.4718865e-05 	0.0026717088
0.95652174 	0.033335966 	0.014759211 	-2.4340808e-08 	0.053383764 	-6.0340534e-08 	0.0024960376
0.9673913 	0.031413968 	0.01343465 	-8.9089329e-06 	0.049582975 	-2.7215564e-05 	0.0024458735
0.97826087 	0.027912217 	0.011528008 	-1.5946331e-07 	0.043370324 	-5.4177085e-07 	0.0021957306
0.98913043 	0.020606914 	0.008676543 	-2.0955264e-06 	0.032460681 	-8.5813047e-06 	0.0014948198
