0.47777778 	1.9894238 	0.0001018534 	-2.7499563e-07
0.48888889 	2.4249842 	8.1231108e-05 	9.4600419e-08
0.5 	2.6153796 	0.00017548708 	1.5636772e-07
0.51111111 	2.737599 	0.00027381471 	6.2575763e-07
0.52222222 	2.8251546 	0.00038554794 	-6.1631447e-07
0.53333333 	2.8913092 	0.00050310693 	9.622533e-07
0.54444444 	2.9430359 	0.00061534936 	9.2016529e-07
0.55555556 	2.9834419 	0.0007160824 	5.3491303e-07
0.56666667 	3.0147071 	0.000802822 	3.918981e-07
0.57777778 	3.0385747 	0.00086868993 	3.7621575e-07
0.58888889 	3.0564899 	0.00091351368 	3.0943254e-07
0.6 	3.0696801 	0.00093810291 	-4.0650194e-08
0.61111111 	3.0791628 	0.00094296371 	-6.5115901e-08
0.62222222 	3.0853266 	0.00089884615 	-2.6137153e-06
0.63333333 	3.088776 	0.00090267499 	-4.5450571e-07
0.64444444 	3.0903414 	0.00086352853 	-7.685424e-07
0.65555556 	3.090353 	0.00078549636 	-3.0275328e-06
0.66666667 	3.0886966 	0.00076542004 	-9.3063193e-07
0.67777778 	3.086024 	0.00070760921 	-4.5139034e-07
0.68888889 	3.0822342 	0.00064727921 	-1.1576385e-07
0.7 	3.0773026 	0.00058222195 	-1.3029996e-06
0.71111111 	3.0716786 	0.00050328925 	-1.4542397e-06
0.72222222 	3.0650471 	0.0004496628 	-1.691598e-06
0.73333333 	3.0578719 	0.00036925054 	-1.6664392e-06
0.74444444 	3.0495494 	0.00031767245 	-1.6644367e-06
0.75555556 	3.0407625 	0.00023919028 	-1.7260452e-06
0.76666667 	3.0305501 	0.00019019457 	-1.6677318e-06
0.77777778 	3.0198342 	0.00010803464 	-2.7298239e-06
0.78888889 	3.007615 	7.2096315e-05 	-1.1295438e-06
0.8 	2.9946737 	1.9549152e-05 	-5.006094e-08
0.81111111 	2.9803043 	-3.0057825e-05 	-1.6811002e-07
0.82222222 	2.964441 	-7.1144093e-05 	-7.5690319e-07
0.83333333 	2.9473901 	-0.0001131025 	-6.9184548e-07
0.84444444 	2.9283231 	-0.00013945794 	-3.5679144e-08
0.85555556 	2.9070656 	-0.00016131006 	-3.2013779e-07
0.86666667 	2.8836826 	-0.00017700607 	-1.2109074e-07
0.87777778 	2.8576952 	-0.00018606271 	-3.4089864e-09
0.88888889 	2.8283739 	-0.00019687459 	-1.0443095e-06
0.9 	2.7950969 	-0.00019580492 	-1.390822e-06
0.91111111 	2.7569831 	-0.00018483535 	-1.2587645e-06
0.92222222 	2.7127937 	-0.00016512321 	-6.8518289e-07
0.93333333 	2.6606521 	-0.00014082118 	6.6937327e-08
0.94444444 	2.5977898 	-0.00011896011 	-1.4163297e-08
0.95555556 	2.520399 	-0.00011509716 	-1.2784976e-07
0.96666667 	2.4185116 	-6.5110072e-05 	-6.9577633e-08
0.97777778 	2.2661652 	-5.2821309e-05 	1.9639527e-08
0.98888889 	1.975218 	-1.9414913e-05 	-9.1639379e-07
