0.47777778 	0.037246127 	-0.017275189 	4.8764249e-08 	0.061783384 	-1.6940906e-07 	0.0037898778
0.48888889 	0.037580672 	-0.017199687 	2.7034398e-06 	0.061749391 	-1.0246689e-05 	0.010582197
0.5 	0.034400414 	-0.015909465 	4.9604778e-06 	0.056842523 	-1.8359486e-05 	0.0097513824
0.51111111 	0.030873377 	-0.014506883 	9.6149705e-06 	0.051454931 	-3.5788662e-05 	0.0088401762
0.52222222 	0.027569752 	-0.012968161 	-3.8581975e-09 	0.045939012 	1.6022389e-08 	0.0072316359
0.53333333 	0.024518863 	-0.011445919 	1.7724311e-05 	0.040607572 	-6.104453e-05 	0.0068252857
0.54444444 	0.021875143 	-0.009964273 	1.8774508e-05 	0.035637548 	-6.2219192e-05 	0.0061538237
0.55555556 	0.019734855 	-0.008542446 	1.2703438e-05 	0.031143114 	-3.995358e-05 	0.0055251457
0.56666667 	0.018140951 	-0.0071917439 	1.1335827e-05 	0.027208056 	-3.3132202e-05 	0.0049658925
0.57777778 	0.017056131 	-0.0059273257 	1.4030412e-05 	0.023892942 	-3.7147482e-05 	0.0044980929
0.58888889 	0.016390491 	-0.004754375 	1.9996276e-05 	0.02121471 	-4.5878986e-05 	0.0041351024
0.6 	0.016035916 	-0.0036660678 	1.7152146e-05 	0.019146469 	-3.1750606e-05 	0.0038810688
0.61111111 	0.015889492 	-0.0026544879 	4.9660505e-06 	0.017632745 	-6.6100877e-06 	0.0037286462
0.62222222 	0.015877244 	-0.0017175869 	-2.1027265e-07 	0.016664968 	1.0754465e-07 	0.0012575866
0.63333333 	0.015934641 	-0.00086845382 	1.1070782e-05 	0.016239504 	-8.4105826e-06 	0.0036626189
0.64444444 	0.016013847 	-7.2016899e-05 	1.2336748e-05 	0.016150314 	-2.1786487e-06 	0.0036701135
0.65555556 	0.016105271 	0.00068017316 	-2.2700569e-07 	0.01633453 	-1.9536559e-07 	0.00071197247
0.66666667 	0.016207345 	0.0013613625 	1.1306217e-05 	0.016840039 	4.2549993e-06 	0.0037379818
0.67777778 	0.016319394 	0.0020136151 	5.6226769e-06 	0.017483476 	4.8918296e-06 	0.003856624
0.68888889 	0.016447626 	0.0026271295 	2.8669765e-06 	0.018275558 	2.4943208e-06 	0.003858134
0.7 	0.016601711 	0.0032037014 	1.0680414e-05 	0.019189774 	1.3808908e-05 	0.0040239313
0.71111111 	0.016772541 	0.00376285 	-3.768815e-08 	0.020155016 	-9.3459224e-08 	0.0031713149
0.72222222 	0.016983115 	0.0042819883 	1.1887158e-05 	0.021196813 	1.9458345e-05 	0.0042375176
0.73333333 	0.017208195 	0.0047896541 	-4.4196553e-08 	0.022249395 	-1.2954179e-07 	0.0028427744
0.74444444 	0.01748557 	0.0052766343 	1.0997046e-05 	0.023369568 	2.1208587e-05 	0.00449059
0.75555556 	0.017777694 	0.0057530341 	-3.5719837e-08 	0.024486774 	-1.2232275e-07 	0.0027170781
0.76666667 	0.018134044 	0.0062256726 	1.091199e-05 	0.025682255 	2.3760206e-05 	0.0047653862
0.77777778 	0.01850849 	0.0066894145 	-4.6380956e-08 	0.026868188 	-1.9407678e-07 	0.00034083705
0.78888889 	0.018948324 	0.0071560191 	8.1635314e-06 	0.028136735 	1.9397658e-05 	0.0050503104
0.8 	0.019416674 	0.0076191641 	1.5168719e-06 	0.029413924 	3.865341e-06 	0.0053420007
0.81111111 	0.019941016 	0.0080841207 	2.3235328e-06 	0.030737568 	5.9208997e-06 	0.0053445239
0.82222222 	0.020522991 	0.0085553991 	7.787663e-06 	0.032116629 	2.1053249e-05 	0.0056451678
0.83333333 	0.021147053 	0.0090317922 	9.223839e-10 	0.033535691 	1.9561188e-09 	0.00582108
0.84444444 	0.021843699 	0.0095190387 	1.4311738e-06 	0.035027122 	4.074072e-06 	0.0059571521
0.85555556 	0.022610305 	0.010018165 	6.7194498e-06 	0.036591496 	2.0029446e-05 	0.0062741368
0.86666667 	0.023439871 	0.010527999 	4.9515381e-06 	0.038221041 	1.5385631e-05 	0.006597272
0.87777778 	0.024340456 	0.011049778 	1.3074307e-06 	0.039923846 	4.2186336e-06 	0.0069243391
0.88888889 	0.025318855 	0.011581939 	4.1216091e-08 	0.041694716 	1.4298131e-07 	0.0036484037
0.9 	0.026377908 	0.012125872 	7.4578612e-08 	0.04354568 	2.7023493e-07 	0.00062509771
0.91111111 	0.027515501 	0.012680818 	7.0775552e-08 	0.045478916 	2.6586684e-07 	0.00062750496
0.92222222 	0.028726774 	0.013244039 	2.8308205e-08 	0.047487882 	1.0956667e-07 	0.0049170445
0.93333333 	0.029998796 	0.013809559 	1.65743e-06 	0.049539546 	6.1636417e-06 	0.0085109048
0.94444444 	0.031303332 	0.014368291 	4.9026963e-06 	0.051604737 	1.8378791e-05 	0.0087937885
0.95555556 	0.032594152 	0.014934281 	2.0779573e-07 	0.053654885 	7.3875636e-07 	0.0090590954
0.96666667 	0.033847225 	0.015354963 	1.291906e-06 	0.055388187 	6.7550863e-06 	0.0094712616
0.97777778 	0.034835393 	0.015731155 	1.0053254e-07 	0.056833228 	4.7543774e-07 	0.0097500963
0.98888889 	0.034335189 	0.015566338 	-2.4108199e-06 	0.056194465 	-9.3949111e-06 	0.009587653
