0 	1.0881672 	-7.3902778e-14 	-2.6861704e-20
0.010869565 	1.093607 	-0.0031750717 	1.8233465e-07
0.02173913 	1.1044523 	-0.0063142435 	1.0764908e-07
0.032608696 	1.1216844 	-0.0094311285 	7.8308883e-06
0.043478261 	1.1457282 	-0.012357202 	1.1630419e-06
0.054347826 	1.1747351 	-0.015317231 	2.3091883e-05
0.065217391 	1.2113297 	-0.018109759 	1.2747739e-05
0.076086957 	1.2481333 	-0.020523293 	1.9192504e-05
0.086956522 	1.2907635 	-0.022752834 	4.777381e-06
0.097826087 	1.3366349 	-0.024815871 	1.6118697e-05
0.10869565 	1.3851475 	-0.026722999 	3.0598575e-06
0.11956522 	1.4371366 	-0.028356184 	9.9066978e-06
0.13043478 	1.4906706 	-0.029721145 	3.2288287e-05
0.14130435 	1.5458245 	-0.030975788 	7.1115353e-06
0.15217391 	1.6023906 	-0.031795809 	4.8266625e-05
0.16304348 	1.6593579 	-0.032545917 	1.7113679e-05
0.17391304 	1.7163606 	-0.03300429 	4.7255839e-05
0.18478261 	1.7731766 	-0.033371686 	1.8105023e-05
0.19565217 	1.8286666 	-0.033504013 	4.7174089e-05
0.20652174 	1.8837826 	-0.033589856 	5.3109541e-06
0.2173913 	1.9355997 	-0.03349334 	5.5748859e-05
0.22826087 	1.9872831 	-0.033496365 	3.1671318e-05
0.23913043 	2.034076 	-0.033168484 	5.9083254e-05
0.25 	2.0802377 	-0.032958734 	7.6412893e-06
0.26086957 	2.1225814 	-0.032656582 	1.8270083e-05
0.27173913 	2.1619911 	-0.032343354 	2.6279386e-05
0.2826087 	2.1998104 	-0.032169584 	4.7939299e-05
0.29347826 	2.23321 	-0.031661783 	3.8582547e-05
0.30434783 	2.265305 	-0.031314819 	5.6546831e-06
0.31521739 	2.2944078 	-0.031001816 	3.2642999e-05
0.32608696 	2.3205078 	-0.030503336 	4.2932694e-05
0.33695652 	2.3451165 	-0.030173598 	2.9053221e-05
0.34782609 	2.3672577 	-0.029756835 	3.8463179e-05
0.35869565 	2.3871273 	-0.029208394 	3.4070943e-05
0.36956522 	2.4052746 	-0.028832193 	2.7660535e-05
0.38043478 	2.4214097 	-0.028434387 	6.0846887e-05
0.39130435 	2.4362172 	-0.027790717 	1.417251e-05
0.40217391 	2.4490991 	-0.027338292 	7.2182278e-06
0.41304348 	2.4600338 	-0.027033033 	9.2770545e-05
0.42391304 	2.4702671 	-0.026332501 	2.1550177e-05
0.43478261 	2.4790262 	-0.025779498 	1.7049611e-05
0.44565217 	2.4859504 	-0.025370468 	4.8341877e-05
0.45652174 	2.4920647 	-0.024879628 	7.067699e-05
0.4673913 	2.4979382 	-0.024180803 	6.3504629e-06
0.47826087 	2.5022065 	-0.023663495 	1.8668879e-06
0.48913043 	2.5047425 	-0.023265752 	6.1636442e-05
0.5 	2.5072147 	-0.022710045 	6.3212318e-05
0.51086957 	2.5096918 	-0.021994934 	3.1485465e-06
0.52173913 	2.5106015 	-0.021492563 	9.4027631e-06
0.5326087 	2.5103552 	-0.021090374 	6.8353558e-05
0.54347826 	2.5101191 	-0.020473998 	5.2489601e-05
0.55434783 	2.5097547 	-0.019758088 	4.8143624e-06
0.56521739 	2.5079426 	-0.019285982 	2.8509589e-05
0.57608696 	2.5056478 	-0.018865881 	8.4766909e-05
0.58695652 	2.5032405 	-0.018112326 	2.5660161e-05
0.59782609 	2.5002678 	-0.017486154 	3.0546147e-06
0.60869565 	2.496169 	-0.017055923 	5.9472693e-05
0.61956522 	2.4919141 	-0.016413161 	4.32564e-05
0.63043478 	2.4873486 	-0.015702567 	5.8573094e-06
0.64130435 	2.4815801 	-0.015239138 	4.5766633e-05
0.65217391 	2.4755091 	-0.014634289 	4.7163487e-05
0.66304348 	2.4690857 	-0.013893055 	6.1827658e-06
0.67391304 	2.4614276 	-0.013411115 	4.3662918e-05
0.68478261 	2.4533543 	-0.01277231 	3.8962172e-05
0.69565217 	2.4447617 	-0.01204341 	4.5215928e-07
0.70652174 	2.434891 	-0.011560967 	5.1765088e-05
0.7173913 	2.4244553 	-0.010822329 	2.0246394e-05
0.72826087 	2.413037 	-0.010179067 	1.7610675e-05
0.73913043 	2.4006136 	-0.0096085131 	4.642836e-05
0.75 	2.3873466 	-0.0088085978 	3.8706102e-06
0.76086957 	2.3725476 	-0.0082746738 	4.334972e-05
0.77173913 	2.3567401 	-0.0074883455 	1.0036757e-05
0.7826087 	2.3393845 	-0.0068646568 	2.7219935e-05
0.79347826 	2.3206695 	-0.0061368432 	1.8461633e-05
0.80434783 	2.3002577 	-0.0054439494 	1.905685e-05
0.81521739 	2.2780727 	-0.0047276791 	1.912955e-05
0.82608696 	2.2538709 	-0.004012756 	1.7619244e-05
0.83695652 	2.2275006 	-0.0032687476 	1.331874e-05
0.84782609 	2.1986693 	-0.0025800861 	2.1558876e-05
0.85869565 	2.1672285 	-0.0017791222 	2.4342838e-06
0.86956522 	2.132821 	-0.0011692216 	2.8578003e-05
0.88043478 	2.0946979 	-0.00037970161 	4.5730937e-06
0.89130435 	2.0530155 	0.00028482467 	9.0752697e-06
0.90217391 	2.0075746 	0.00085354537 	1.8313649e-05
0.91304348 	1.956983 	0.0014713513 	4.4582458e-06
0.92391304 	1.9015618 	0.001995926 	7.7787452e-07
0.93478261 	1.8420973 	0.0022930402 	3.8547013e-06
0.94565217 	1.7716542 	0.0024677188 	-1.7378494e-08
0.95652174 	1.6958243 	0.0023698722 	4.36438e-06
0.9673913 	1.6052186 	0.0020704747 	7.8622994e-07
0.97826087 	1.4896941 	0.0014800635 	3.6409259e-07
0.98913043 	1.2837401 	0.00053748551 	-2.7177939e-07
