-0.1 	0.0099 	-4.5739779e-20 	0.0016770337 	-0.00013694327 	-1.7945005e-07 	0.00073392861 	3.0046379e-07 	0.00013453998
-5.9305859e-17 	0.1385 	-3.0357661e-18 	0.0014403952 	-0.00041402478 	1.2257551e-07 	0.0014485746 	-6.8421204e-07 	9.8243578e-05
0.1 	0.1811 	-3.0357661e-18 	0.001241062 	-0.00032043417 	-5.5495131e-08 	0.0019199541 	-3.9966977e-07 	0.00012793494
0.2 	0.214 	-8.6736174e-19 	0.0012650027 	-0.00014193687 	3.139642e-07 	0.0022212559 	-2.3493612e-07 	0.00016172933
0.3 	0.2333 	-3.9031278e-18 	0.0011991966 	-6.2830063e-06 	9.4433107e-07 	0.0020885762 	2.3538187e-06 	0.00045531799
0.4 	0.2651 	-6.0715322e-18 	0.0013670115 	-9.3442337e-05 	-1.1719443e-06 	0.0021220001 	-3.359086e-06 	7.9921156e-05
0.5 	0.2921 	-7.0202091e-18 	0.0014824464 	-0.00019250301 	1.384101e-06 	0.002081545 	2.9929792e-06 	0.00051087378
0.6 	0.3156 	-2.2985086e-17 	0.0015411707 	-0.00026742629 	-1.0923878e-06 	0.0018901774 	-3.8837978e-06 	0.00024900023
0.7 	0.3364 	-2.6020852e-17 	0.0015745793 	-0.00033893995 	-6.4702963e-07 	0.0017635481 	-2.0569647e-06 	0.00050499627
0.8 	0.3548 	-2.1033522e-17 	0.0015906889 	-0.00040282894 	2.7834844e-07 	0.0016437231 	3.8579744e-07 	0.0010359663
0.9 	0.3714 	-1.3010426e-17 	0.0016078559 	-0.0004737881 	-5.5564492e-07 	0.0015718249 	-1.3523141e-06 	0.00082743156
1 	0.3863 	-2.0816682e-17 	0.0016338385 	-0.00054169283 	-1.0852284e-06 	0.0015288108 	-1.8815206e-06 	0.00041228517
1.1 	0.3998 	-2.4286129e-17 	0.0016648717 	-0.00059494572 	-1.0256077e-06 	0.0015148622 	-1.2068303e-06 	1.0257239e-05
4.17 	0.4913 	0 	0.00335653 	-0.0015789852 	1.6057977e-06 	0.0033333446 	-3.330477e-06 	0.0011515737
4.27 	0.4913 	0 	0.0033802904 	-0.0015889785 	1.4672781e-06 	0.0033577965 	-3.0426131e-06 	0.0012209594
4.37 	0.4913 	-1.7347235e-18 	0.0034018909 	-0.0015980417 	1.3390826e-06 	0.0033800692 	-2.7754177e-06 	0.0012903751
4.47 	0.4913 	-3.469447e-18 	0.003421556 	-0.0016062767 	1.2202813e-06 	0.0034003919 	-2.5272279e-06 	0.0013597948
4.57 	0.4913 	-4.3368087e-18 	0.0034394895 	-0.0016137762 	1.1101156e-06 	0.0034189671 	-2.2967031e-06 	0.0014292002
4.67 	0.4913 	-5.2041704e-18 	0.0034558445 	-0.0016206045 	1.0081021e-06 	0.0034359439 	-2.0830522e-06 	0.0014985607
4.77 	0.4913 	-5.2041704e-18 	0.0034707311 	-0.0016268064 	9.1390136e-07 	0.0034514319 	-1.8856496e-06 	0.0015678399
4.87 	0.4913 	-6.0715322e-18 	0.003484246 	-0.0016324231 	8.2706599e-07 	0.0034655293 	-1.703577e-06 	0.0016370041
4.97 	0.4913 	-4.3368087e-18 	0.00349648 	-0.0016374934 	7.4708162e-07 	0.0034783273 	-1.5358144e-06 	0.001706023
5.07 	0.5013 	-2.6020852e-18 	0.0027930949 	-0.0013048213 	-1.5910841e-07 	0.0027683383 	3.4767217e-07 	0.00010769314
5.17 	0.5013 	-8.6736174e-19 	0.0028272936 	-0.0013205395 	-1.5658864e-07 	0.0028026834 	3.4313752e-07 	0.00010924802
5.27 	0.5013 	2.6020852e-18 	0.0028597537 	-0.0013354255 	-1.5396854e-07 	0.0028353016 	3.3827097e-07 	0.00011073659
5.37 	0.5013 	8.6736174e-19 	0.002890573 	-0.0013495314 	-1.5130235e-07 	0.0028662887 	3.3315652e-07 	0.00011216182
5.47 	0.5013 	1.7347235e-18 	0.002919846 	-0.0013629078 	-1.4860503e-07 	0.0028957372 	3.2783957e-07 	0.00011352658
8.6667 	0.4961 	1.994932e-17 	0.0035088581 	-0.0016327643 	-3.7084885e-09 	0.0034969044 	1.0859633e-08 	0.0014846754
8.9167 	0.4961 	2.0816682e-17 	0.0035023077 	-0.0016292382 	2.1256177e-07 	0.0034888423 	-4.490414e-07 	0.00048960083
9.1667 	0.4961 	2.2117724e-17 	0.0035081315 	-0.0016322245 	-1.6345801e-10 	0.0034969688 	2.4522358e-09 	0.0014828028
9.4167 	0.4961 	1.6479873e-17 	0.0035021882 	-0.001629165 	1.2128731e-07 	0.0034902557 	-2.5485467e-07 	0.00080864364
9.6667 	0.4961 	1.3010426e-17 	0.0035040907 	-0.0016303561 	1.9692099e-09 	0.0034943537 	-1.77313e-09 	0.0014799513
9.9167 	0.4961 	1.2143064e-17 	0.0034977241 	-0.0016274811 	5.3563109e-08 	0.0034889994 	-1.1181203e-07 	0.0011257318
10.1667 	0.4961 	1.1275703e-17 	0.0034879615 	-0.0016246642 	1.0630665e-08 	0.0034873829 	5.2296562e-09 	0.0011800704
10.4167 	0.4961 	1.5612511e-17 	0.0034577854 	-0.0016148547 	4.8865174e-09 	0.0034753164 	1.3750721e-09 	0.00026531878
10.6667 	0.4961 	1.3877788e-17 	0.0033868753 	-0.0015928705 	2.5792874e-07 	0.0034497998 	-5.6364328e-07 	0.0017722828
10.9167 	0.4961 	1.4528309e-17 	0.0032155457 	-0.0015296576 	8.9808864e-08 	0.0033422256 	-2.0490086e-07 	0.0026476976
11.1667 	0.4856 	2.1684043e-17 	0.0031374821 	-0.0015156496 	9.2622244e-07 	0.0033508411 	-2.2220229e-06 	0.00035732244
11.4167 	0.4646 	2.6888214e-17 	0.0031597975 	-0.0015641873 	-9.1238258e-07 	0.0034969171 	1.9571121e-06 	0.00037624095
11.6667 	0.4226 	1.6479873e-17 	0.0035935157 	-0.0019668666 	-2.6765737e-07 	0.0043140502 	5.6871679e-07 	0.0022301583
11.9167 	0.3701 	2.1250363e-17 	0.002402322 	-0.0012524418 	-4.0668076e-06 	0.0031073491 	9.2845037e-06 	0.0004801119
12.1667 	0.2966 	2.1141942e-17 	0.0032800585 	-0.00091353702 	-2.2104502e-06 	0.0043364866 	2.6379508e-05 	0.0012927688
12.4167 	0.1811 	2.1684043e-17 	0.0095631202 	-0.0019196111 	-3.8654191e-07 	0.011840501 	5.3780863e-05 	2.6922652e-05
12.6667 	0.0236 	1.2739376e-17 	0.014562788 	0.00023918258 	5.6303183e-07 	0.020018777 	-5.8071983e-06 	0.0012358473
12.9167 	0.0236 	1.3457659e-17 	0.0083213246 	-0.0022253442 	4.9699981e-06 	0.021203276 	1.2081571e-06 	0.001048642
13.1667 	0.0236 	1.3444107e-17 	0.0090694891 	-0.001961098 	9.7538852e-07 	0.019201187 	-5.2839472e-06 	0.0005812971
13.4167 	0.0236 	1.3498317e-17 	0.0096890778 	-0.0016418206 	1.677662e-06 	0.01660123 	-1.5317463e-05 	0.00017818298
13.6667 	0.0236 	1.3444107e-17 	0.0098901545 	-0.0014206882 	4.4688664e-07 	0.014538829 	-4.2245167e-06 	0.00020535454
13.9167 	0.0236 	1.3444107e-17 	0.0097650957 	-0.0012542349 	8.4953483e-07 	0.013007387 	-7.8320344e-06 	0.00047198094
14.1667 	0.0236 	1.3715157e-17 	0.0094669312 	-0.0011255497 	2.6218175e-07 	0.011853978 	-2.3744017e-06 	0.00070786637
14.4167 	0.0236 	1.3552527e-17 	0.0090982041 	-0.0010245723 	4.6179105e-07 	0.010966808 	-4.0996361e-06 	0.00088906112
14.6667 	0.0236 	1.3227267e-17 	0.0087166513 	-0.00094235201 	1.7072538e-07 	0.010257055 	-1.5035165e-06 	0.0010737746
14.9167 	0.0236 	1.3606737e-17 	0.0083499834 	-0.00087432705 	2.7342584e-07 	0.0096741017 	-2.3837258e-06 	0.001214872
15.1667 	0.0236 	1.3715157e-17 	0.0080083981 	-0.00081585331 	1.2390924e-07 	0.0091799491 	-1.0743494e-06 	0.0013700605
15.4167 	0.0236 	1.3633842e-17 	0.0076945981 	-0.00076522352 	1.7195554e-07 	0.008752488 	-1.4839247e-06 	0.0014859789
15.6667 	0.0236 	1.3715157e-17 	0.0074072119 	-0.00071998107 	9.7361255e-08 	0.0083746152 	-8.3831061e-07 	0.0016201246
15.9167 	0.0236 	1.3769368e-17 	0.007143557 	-0.00067970513 	1.091648e-07 	0.0080359701 	-9.4220667e-07 	0.0017168781
16.1667 	0.0236 	1.4365679e-17 	0.0069001858 	-0.00064297763 	7.9836551e-08 	0.0077286703 	-6.9204623e-07 	0.0018342879
16.4167 	0.0236 	1.4148838e-17 	0.0066745643 	-0.0006098397 	6.611973e-08 	0.0074471561 	-5.7719156e-07 	0.0019153699
