0 	0.0017369439 	-1.1796438e-16 	-4.2876931e-23 	8.0115403e-30 	2.9119829e-36 	1.0584287e-42
0.010309278 	0.0016908154 	-0.00013942859 	1.412027e-08 	0.00072521064 	-9.9279285e-08 	0.00021888134
0.020618557 	0.0017032276 	-0.00018330026 	2.167722e-07 	0.00074887557 	-1.2668693e-06 	0.0004392953
0.030927835 	0.0016783574 	-0.00021929643 	3.5143047e-08 	0.00075909282 	-1.8343139e-07 	0.00063143986
0.041237113 	0.0016534528 	-0.00025213354 	8.813958e-08 	0.00076456735 	-4.6357599e-07 	0.00080286767
0.051546392 	0.0016262145 	-0.00025338507 	-3.0595305e-06 	0.00087002709 	3.2079454e-06 	0.00017597252
0.06185567 	0.0016227743 	-0.00027828397 	-2.4030719e-06 	0.0008739918 	2.349413e-06 	0.00030418429
0.072164948 	0.0016196755 	-0.00031184701 	-4.6199862e-07 	0.00086143147 	4.375743e-07 	0.00061119452
0.082474227 	0.0016177144 	-0.00033235733 	4.7907055e-07 	0.0008967787 	-1.4255738e-06 	0.00055264049
0.092783505 	0.0016170549 	-0.00034639808 	9.4367392e-08 	0.00093917879 	-2.7363985e-07 	0.00038676639
0.10309278 	0.0016240159 	-0.00035454847 	-5.3948527e-07 	0.0009913705 	4.9753963e-07 	9.1413924e-05
0.11340206 	0.0016258498 	-0.00037219787 	6.3925618e-07 	0.0010147555 	-1.8121556e-06 	8.9615461e-05
0.12371134 	0.0016316832 	-0.00038332595 	2.3230922e-07 	0.001047841 	-6.4155466e-07 	3.9872599e-05
0.13402062 	0.0016366091 	-0.00039204874 	7.8612931e-07 	0.001074748 	-2.1710069e-06 	0.00013923571
0.1443299 	0.0016415351 	-0.00040077152 	1.0836187e-07 	0.0011016551 	-2.9925659e-07 	0.00023859882
0.15463918 	0.0016399831 	-0.00040819073 	2.9162679e-07 	0.001133237 	-2.8221746e-07 	0.00026551778
0.16494845 	0.0016534392 	-0.00041820017 	4.2178356e-07 	0.001154894 	-1.1269597e-06 	0.00044029313
0.17525773 	0.0016426638 	-0.00042377822 	5.5561649e-07 	0.0011947398 	-3.7835291e-07 	0.00036562276
0.18556701 	0.0016266872 	-0.0004283685 	1.2780357e-06 	0.0012376914 	-8.702919e-07 	0.00024136285
0.19587629 	0.0016709841 	-0.0004442909 	7.261192e-08 	0.0012360101 	-1.8517388e-07 	0.00073914982
0.20618557 	0.0016382604 	-0.00044452574 	1.0358078e-06 	0.0012946524 	-3.7188023e-07 	0.00041249639
0.21649485 	0.0016142536 	-0.0004468013 	1.2731949e-06 	0.0013465673 	-4.5710799e-07 	0.00018330241
0.22680412 	0.0016634476 	-0.00046513159 	8.9239039e-08 	0.0013426388 	-3.203899e-08 	0.00074313027
0.2371134 	0.0016402006 	-0.00046510855 	3.3700698e-07 	0.0013963066 	-1.698201e-09 	0.00049477085
0.24742268 	0.0016033714 	-0.00046241785 	8.4798012e-07 	0.0014617137 	-4.2730293e-09 	9.3514989e-05
0.25773196 	0.0016393996 	-0.00047883403 	1.0318534e-07 	0.0014704632 	-2.273552e-07 	0.00051651119
0.26804124 	0.0016314912 	-0.00048071435 	1.3903453e-07 	0.0015148142 	-3.0634414e-07 	0.00042768406
0.27835052 	0.0015988211 	-0.00047510697 	4.6407923e-07 	0.0015800888 	1.7194731e-07 	3.8327989e-05
0.28865979 	0.001616576 	-0.00048637081 	2.2568259e-07 	0.001606214 	-3.8023028e-07 	0.00025690889
0.29896907 	0.0016101678 	-0.00048647571 	4.8001781e-07 	0.0016527702 	-8.0873454e-07 	0.00017472683
0.30927835 	0.0016037595 	-0.0004865806 	8.9835368e-08 	0.0016993265 	-1.5135473e-07 	9.2544776e-05
0.31958763 	0.0015978915 	-0.00048580361 	3.418396e-07 	0.0017476622 	-3.8612543e-07 	1.5185673e-05
0.32989691 	0.0015941113 	-0.00048352409 	7.8865442e-07 	0.0017976607 	-8.9082576e-07 	5.8422942e-05
0.34020619 	0.0015906525 	-0.00048130941 	1.6025058e-07 	0.0018478104 	-1.8101128e-07 	0.00012387284
0.35051546 	0.0015868588 	-0.00047414652 	1.9885234e-07 	0.0018991373 	-1.2226919e-07 	0.00018725161
0.36082474 	0.0015831801 	-0.00046768836 	8.5984091e-07 	0.0019524219 	-5.2869407e-07 	0.000245587
0.37113402 	0.0015795015 	-0.0004612302 	1.1827577e-07 	0.0020057065 	-7.2724728e-08 	0.0003039224
0.3814433 	0.0015833244 	-0.00044461754 	4.8736897e-07 	0.0020490728 	3.7286603e-07 	0.00024186391
0.39175258 	0.0015707292 	-0.00043207867 	6.8918457e-07 	0.0021135852 	-1.475182e-07 	0.00041365691
0.40206186 	0.0015659162 	-0.00041897678 	2.1325605e-07 	0.0021701327 	-4.5646916e-08 	0.00046431803
0.41237113 	0.0015921181 	-0.00039664293 	2.0850663e-06 	0.0021877439 	1.2289188e-06 	2.9913932e-05
0.42268041 	0.0015559868 	-0.00036960815 	1.8433624e-07 	0.0022738265 	-7.2684641e-08 	0.00056331841
0.43298969 	0.0015472292 	-0.00033704773 	8.0970549e-07 	0.0023180057 	-3.1927066e-07 	0.00060597386
0.44329897 	0.0015610056 	-0.0003014976 	1.283552e-06 	0.0023293286 	8.1605609e-07 	0.00029791889
0.45360825 	0.0015641942 	-0.00026005753 	1.418545e-06 	0.0023516046 	9.0188188e-07 	0.00032293603
0.46391753 	0.0015446353 	-0.00021516144 	5.6382524e-07 	0.0024000324 	-3.9511249e-07 	0.00077854542
0.4742268 	0.0015413116 	-0.00016946567 	1.4553341e-07 	0.0024164972 	1.3889574e-07 	0.00075385482
0.48453608 	0.0015656801 	-0.00012853641 	1.7201709e-06 	0.0023895055 	1.6417152e-06 	0.00012553818
0.49484536 	0.0015697793 	-8.2599029e-05 	9.7458197e-07 	0.0023954603 	9.3013202e-07 	0.00053464844
0.50515464 	0.0015694152 	-3.6813997e-05 	4.5150244e-07 	0.0024079009 	-4.460519e-07 	0.0010351168
0.51546392 	0.0015749186 	5.7087673e-07 	4.3886177e-07 	0.0024082288 	4.9110106e-07 	0.00076178313
0.5257732 	0.0015867133 	3.2193716e-05 	1.4585467e-06 	0.0023979806 	1.6321627e-06 	8.4916862e-05
0.53608247 	0.001597852 	7.1741085e-05 	7.6291669e-07 	0.0023978529 	8.537294e-07 	0.00065317583
0.54639175 	0.0016076768 	0.00011124329 	2.489961e-07 	0.0023997618 	-3.1130757e-07 	0.0012634056
0.55670103 	0.00161235 	0.00013929001 	4.8381982e-07 	0.0023967023 	4.5395843e-07 	0.00076149802
0.56701031 	0.0016172933 	0.00016429907 	1.2019538e-06 	0.0023897175 	1.1277691e-06 	4.687858e-06
0.57731959 	0.0016337097 	0.00019914018 	4.8219824e-07 	0.0023861058 	4.5243694e-07 	0.00086246803
0.58762887 	0.001646227 	0.00023167849 	2.3181859e-08 	0.0023838321 	1.5037585e-08 	0.0014049536
0.59793814 	0.0016456528 	0.00025248826 	5.7371297e-07 	0.002377268 	3.7215557e-07 	0.00052604361
0.60824742 	0.0016527635 	0.00027674725 	6.7039125e-07 	0.0023701387 	4.3486874e-07 	0.00040132539
0.6185567 	0.001671088 	0.00030603949 	1.0478864e-07 	0.0023621847 	6.7974192e-08 	0.0013771551
0.62886598 	0.0016721438 	0.00032723818 	2.7341902e-07 	0.0023554317 	6.9293718e-08 	0.00092976226
0.63917526 	0.0016686811 	0.00034566136 	6.4276707e-07 	0.0023474345 	1.6289913e-07 	8.2192565e-05
0.64948454 	0.0016869116 	0.00037067842 	1.9070532e-07 	0.0023351585 	4.8331243e-08 	0.0011714933
0.65979381 	0.0016911785 	0.00039120896 	1.5483737e-07 	0.0023249586 	-3.6185857e-08 	0.0011480566
0.67010309 	0.0016821598 	0.00040725123 	5.1011686e-07 	0.0023154865 	-1.1921551e-07 	3.8709582e-05
0.68041237 	0.0016981842 	0.00042905016 	1.5679425e-07 	0.0022992865 	-3.6643185e-08 	0.0011659826
0.69072165 	0.001699958 	0.00044747847 	1.3848529e-07 	0.002285861 	-1.032527e-07 	0.001126062
0.70103093 	0.0016897656 	0.00046289164 	3.9996991e-07 	0.0022735176 	-2.9821198e-07 	0.00010748902
0.71134021 	0.0017043849 	0.0004830086 	6.643727e-08 	0.0022532494 	-4.9534701e-08 	0.0014116917
0.72164948 	0.0016974776 	0.00049913401 	1.9130719e-07 	0.002238109 	-2.2214651e-07 	0.00081962456
0.73195876 	0.0016928067 	0.00051555229 	2.5215345e-07 	0.0022204386 	-2.9280138e-07 	0.00054403184
0.74226804 	0.0017013061 	0.00053428684 	7.7503826e-09 	0.0021981615 	-1.0784631e-08 	0.0016174942
0.75257732 	0.0016840585 	0.00054898197 	3.1112967e-07 	0.0021822087 	-4.3293589e-07 	0.00019255945
0.7628866 	0.0016900035 	0.00056783686 	6.7662973e-08 	0.0021570106 	-9.4152799e-08 	0.0013124607
0.77319588 	0.00167996 	0.00058421329 	1.8653905e-07 	0.0021370873 	-2.6871099e-07 	0.0007389789
0.78350515 	0.0016746663 	0.00060202626 	1.6157293e-07 	0.002113711 	-2.327471e-07 	0.00083722898
0.79381443 	0.0016705771 	0.00062024225 	1.0037197e-07 	0.0020895636 	-1.3891894e-07 	0.0011042295
0.80412371 	0.0016590767 	0.00063763459 	2.1251338e-07 	0.002067164 	-2.9412728e-07 	0.00055608592
0.81443299 	0.0016569781 	0.00065727751 	5.5287951e-08 	0.0020406315 	-7.1970423e-08 	0.0012615754
0.82474227 	0.0016437249 	0.00067446676 	2.067797e-07 	0.0020181497 	-2.6917298e-07 	0.00049663415
0.83505155 	0.0016405265 	0.00069431704 	5.395512e-08 	0.0019913034 	-6.7679179e-08 	0.0011864707
0.84536082 	0.001629162 	0.00071123721 	1.3990253e-07 	0.0019679181 	-1.7548823e-07 	0.00068571166
0.8556701 	0.0016223123 	0.00072884458 	8.6676025e-08 	0.0019426629 	-1.0956894e-07 	0.00085368909
0.86597938 	0.0016160121 	0.00074554982 	3.7912999e-08 	0.0019174209 	-4.7926597e-08 	0.0011516955
0.87628866 	0.0016042022 	0.00075807056 	9.7683408e-08 	0.0018939973 	-1.9243531e-07 	0.00023600458
0.88659794 	0.0016027174 	0.00077696465 	9.9934881e-09 	0.0018676453 	-1.1910229e-07 	0.0013561434
0.89690722 	0.00159702 	0.00077823313 	-3.3936261e-08 	0.0018406552 	-9.9645182e-08 	0.00074368773
0.90721649 	0.0015947237 	0.00077965548 	-1.5318142e-07 	0.001812554 	-1.6152023e-07 	0.00033198779
0.91752577 	0.0015993367 	0.00077780711 	-3.508288e-09 	0.0017838323 	-3.3926976e-09 	0.0012578103
0.92783505 	0.0016046085 	0.00077543039 	-4.7650729e-09 	0.001756996 	-1.837551e-08 	0.0012584482
0.93814433 	0.0016127853 	0.00077468702 	-3.9196746e-08 	0.0017367015 	-3.9223756e-08 	0.00084304122
0.94845361 	0.001631462 	0.00077761043 	-1.9228985e-08 	0.0017235105 	-1.0987368e-07 	0.001228331
0.95876289 	0.0016495845 	0.00078146025 	-4.8019959e-08 	0.0017166554 	-6.4595842e-08 	0.00024324221
0.96907216 	0.0016390107 	0.00077254399 	-2.5978445e-08 	0.0016842088 	-5.2488134e-08 	0.001005923
0.97938144 	0.0014378885 	0.00068584752 	-2.6219755e-07 	0.0014634547 	-5.8081755e-07 	0.00018186323
0.98969072 	0.00057803955 	0.00026998894 	-3.0603264e-07 	0.00058196336 	-6.5190257e-07 	5.8314605e-05
