0.17894737 	0.00011947396 	-1.239171e-05 	2.3503135e-07 	7.464534e-05 	-8.5283436e-07 	4.1347937e-05
0.18947368 	0.00093531348 	-7.4268102e-05 	4.6170902e-07 	0.0015723035 	1.0413929e-06 	0.00043854303
0.2 	0.0011444388 	-6.9723714e-05 	-1.4759853e-07 	0.0021003136 	3.2046868e-07 	0.00040296995
0.21052632 	0.0012494237 	-0.00012849392 	-3.6486233e-07 	0.0022160678 	-4.464833e-07 	0.00028092136
0.22105263 	0.0012812567 	-0.00015942946 	-8.2776111e-08 	0.0022325005 	-2.8658115e-07 	0.00015148915
0.23157895 	0.0012950941 	-0.00017778204 	-2.2542223e-07 	0.0022370772 	-1.0707398e-06 	2.4362445e-05
0.24210526 	0.0013002111 	-0.00018745603 	-1.1011691e-07 	0.0022408316 	-1.1563922e-06 	0.00011230072
0.25263158 	0.0013004848 	-0.00019205078 	-7.5989512e-08 	0.0022437542 	-1.4132229e-06 	0.00023760176
0.26315789 	0.0012979244 	-0.00019437972 	-2.6371342e-08 	0.0022455806 	-9.2093534e-07 	0.0003590607
0.27368421 	0.0012941668 	-0.00019576357 	4.2969102e-07 	0.0022442797 	-3.4111776e-07 	0.00034934631
0.28421053 	0.0012919855 	-0.00019634954 	1.5457713e-06 	0.0022401144 	-1.0625643e-06 	0.00014145987
0.29473684 	0.0012839378 	-0.00019277017 	9.220303e-10 	0.0022530409 	-4.0668984e-08 	0.00070164091
0.30526316 	0.0012796425 	-0.00019041622 	6.8348546e-07 	0.0022551043 	-3.9690064e-07 	0.00061463952
0.31578947 	0.0012818199 	-0.00018830286 	2.9905266e-06 	0.0022522998 	-1.4231129e-06 	6.9220088e-05
0.32631579 	0.001273554 	-0.0001822495 	3.5114773e-07 	0.0022782692 	-1.3441358e-07 	0.00084108094
0.33684211 	0.0012779915 	-0.00017822215 	1.6461443e-06 	0.0022837023 	-6.3011697e-07 	0.00034360627
0.34736842 	0.0012768185 	-0.00017170861 	8.0028377e-07 	0.0023044462 	-2.4589209e-07 	0.00052243667
0.35789474 	0.0012781721 	-0.00016532144 	3.7302162e-07 	0.0023251463 	-1.1461318e-07 	0.00057321491
0.36842105 	0.0012814044 	-0.00015713577 	7.4058944e-07 	0.0023428861 	-1.8574934e-07 	0.00037556963
0.37894737 	0.0012827081 	-0.00014874224 	3.9910125e-08 	0.0023690968 	-2.1734431e-07 	0.00053057212
0.38947368 	0.0012859551 	-0.00013842466 	2.0920785e-07 	0.0023903277 	-4.5124746e-08 	0.00038568196
0.4 	0.0012891456 	-0.00012779448 	9.3840163e-08 	0.0024160502 	-3.6012696e-07 	0.00038280167
0.41052632 	0.0012921636 	-0.00011538504 	9.4538887e-08 	0.0024402366 	-3.6280843e-07 	0.00030925883
0.42105263 	0.0012957832 	-0.00010241899 	9.6031899e-08 	0.0024659582 	-2.7427608e-07 	0.00024543676
0.43157895 	0.0012989255 	-8.7705148e-05 	3.44783e-07 	0.0024910893 	-9.8473246e-07 	0.000179163
0.44210526 	0.0013022548 	-7.2765421e-05 	1.6265945e-08 	0.0025167549 	-3.6497085e-09 	0.0001117089
0.45263158 	0.0013051795 	-5.560803e-05 	6.7588552e-07 	0.0025417676 	-1.529738e-06 	5.855875e-05
0.46315789 	0.0013081532 	-3.845455e-05 	2.197549e-07 	0.0025667276 	-4.9737332e-07 	9.9928764e-06
0.47368421 	0.0013109264 	-1.9786879e-05 	4.3189376e-07 	0.0025911515 	-8.190183e-07 	6.680417e-05
0.48421053 	0.0013135838 	-8.6273405e-08 	6.3987863e-07 	0.0026151795 	-1.2134288e-06 	0.00011954711
0.49473684 	0.0013171992 	1.8964674e-05 	3.6136886e-07 	0.0026370932 	-2.0558415e-07 	1.3743389e-05
0.50526316 	0.0013185124 	4.1895572e-05 	6.6569112e-07 	0.0026592325 	-1.1186865e-06 	0.00022274271
0.51578947 	0.0013207444 	6.4758591e-05 	4.6824445e-07 	0.0026802025 	-7.868796e-07 	0.00026651394
0.52631579 	0.0013239699 	8.6853346e-05 	3.4065651e-07 	0.0026974042 	-2.356508e-07 	0.00014247826
0.53684211 	0.0013250536 	0.00011311267 	7.8111367e-07 	0.0027145431 	-1.2371663e-06 	0.00035590921
0.54736842 	0.0013269668 	0.00013965964 	4.3062328e-07 	0.0027304254 	-6.8204239e-07 	0.00039026348
0.55789474 	0.001330521 	0.00016483429 	5.0542269e-07 	0.0027408314 	-4.5265348e-07 	0.00011199121
0.56842105 	0.0013312495 	0.00019319985 	6.5847833e-07 	0.0027516688 	-1.0963183e-06 	0.00046712663
0.57894737 	0.0013332137 	0.00022266913 	5.9456091e-07 	0.0027599834 	-9.8990047e-07 	0.00049172907
0.58947368 	0.0013367959 	0.00025075212 	4.6798142e-07 	0.0027631749 	-5.8569038e-07 	0.0001075227
0.6 	0.0013389506 	0.00027889793 	2.7666794e-07 	0.002764892 	-6.4468876e-07 	0.00055657235
0.61052632 	0.0013448864 	0.00030762511 	7.2863107e-07 	0.0027580775 	-1.6978485e-06 	0.00057156728
0.62105263 	0.0013516077 	0.00033535457 	2.1212151e-07 	0.0027482544 	-2.6989221e-07 	0.00032892743
0.63157895 	0.0013532508 	0.00036420947 	2.2620902e-08 	0.0027434078 	-7.8031173e-08 	0.00062129003
0.64210526 	0.0013633128 	0.00038957887 	6.2094253e-07 	0.00272223 	-2.1419515e-06 	0.00062761124
0.65263158 	0.0013750196 	0.00041326952 	1.7190046e-07 	0.002696846 	-1.2173843e-07 	0.00038655522
0.66315789 	0.0013791287 	0.00043956365 	2.2314639e-08 	0.0026806158 	-1.1283297e-07 	0.00066029699
0.67368421 	0.0013902646 	0.00046029764 	3.6314545e-07 	0.0026519953 	-1.8362288e-06 	0.00065920461
0.68421053 	0.0014056271 	0.00047674636 	2.7697737e-07 	0.0026141877 	-6.8067021e-08 	0.00022191349
0.69473684 	0.0014138944 	0.00049511532 	1.1563631e-07 	0.002585113 	-8.5103075e-07 	0.00067445017
0.70526316 	0.0014244096 	0.00051210728 	1.2126666e-07 	0.0025519638 	-8.9246759e-07 	0.00066709755
0.71578947 	0.0014362836 	0.00052664761 	2.5062829e-07 	0.0025130821 	1.0919807e-08 	0.00024923626
0.72631579 	0.0014425048 	0.00054320398 	2.6421938e-07 	0.0024817606 	-2.1544536e-06 	0.00066070041
0.73684211 	0.0014508256 	0.00055884529 	1.4839466e-07 	0.0024459626 	2.2056998e-08 	0.00037891593
0.74736842 	0.0014564829 	0.00057397604 	1.0708628e-07 	0.002410897 	-8.8890901e-07 	0.00064092821
0.75789474 	0.001461473 	0.00058997802 	5.161204e-08 	0.0023764654 	-4.2842471e-07 	0.00062440316
0.76842105 	0.0014660963 	0.00060529224 	2.0599389e-08 	0.0023398906 	-1.6169066e-07 	0.00061005553
0.77894737 	0.001468894 	0.00062179346 	1.2226602e-07 	0.0023051645 	-9.5970192e-07 	0.00059043348
0.78947368 	0.0014719031 	0.00063795835 	2.4226079e-08 	0.0022688055 	3.9166035e-09 	0.00051030094
0.8 	0.001473081 	0.00065511877 	1.4681933e-07 	0.0022342106 	-1.0663095e-06 	0.00054884297
0.81052632 	0.001474655 	0.00067196584 	4.7416038e-09 	0.0021985475 	-3.3183336e-08 	0.00052542259
0.82105263 	0.0014749966 	0.000689428 	1.1477451e-07 	0.0021641798 	-8.0323058e-07 	0.00050176452
0.83157895 	0.0014758537 	0.00070607725 	6.3727109e-08 	0.0021291329 	-5.0208679e-07 	0.00047589587
0.84210526 	0.0014759641 	0.00072252835 	2.889144e-08 	0.0020951026 	-2.27627e-07 	0.00045101937
0.85263158 	0.0014772975 	0.00073562778 	7.2166252e-08 	0.0020599998 	-1.2740371e-06 	0.00042359437
0.86315789 	0.0014798883 	0.00074466818 	-2.6274033e-08 	0.0020233706 	-1.3005175e-08 	0.00012365101
0.87368421 	0.0014825399 	0.00075118542 	-3.7784467e-08 	0.0019880858 	-7.9330055e-07 	0.0003695201
0.88421053 	0.0014874534 	0.00075432547 	-1.2068205e-07 	0.0019508384 	-1.0277903e-06 	0.0003410865
0.89473684 	0.0014938913 	0.00075617824 	-6.9485674e-09 	0.00191303 	-2.5113595e-09 	0.00027055473
0.90526316 	0.0015031402 	0.00075693718 	-4.0076301e-08 	0.0018750637 	-2.9383074e-07 	0.00028589243
0.91578947 	0.0015163473 	0.00075825359 	-1.2220857e-07 	0.001837241 	-9.4776573e-07 	0.00025781539
0.92631579 	0.0015332572 	0.00076013752 	-1.3001668e-07 	0.001801506 	-1.080619e-06 	0.00023026297
0.93684211 	0.0015540352 	0.00076294053 	-6.7453021e-08 	0.0017706155 	-6.0309773e-07 	0.00020326167
0.94736842 	0.0015802985 	0.0007675373 	-1.8534219e-08 	0.0017469289 	-4.3067738e-07 	0.00017665014
0.95789474 	0.0016129559 	0.00077423169 	-3.8335225e-09 	0.0017301065 	-6.1939121e-08 	0.00014991817
0.96842105 	0.0016141048 	0.00076740396 	-1.38274e-07 	0.0016917407 	-4.0895016e-07 	0.00012165936
0.97894737 	0.0014561771 	0.00069175527 	-2.2766996e-07 	0.0014983631 	-5.3928826e-07 	8.0409452e-05
0.98947368 	0.00065643782 	0.0003073547 	-2.8316446e-06 	0.0006636485 	-6.1122659e-06 	2.4985332e-05
