0.4742268 	0.32829165 	4.0418575e-05 	-3.9369124e-09
0.48453608 	0.96205902 	0.00046869146 	-2.7754972e-08
0.49484536 	1.2121996 	0.00099826887 	2.3728448e-06
0.50515464 	1.3534766 	0.001549122 	-3.6938371e-08
0.51546392 	1.4165182 	0.0018547783 	4.369348e-07
0.5257732 	1.4407057 	0.0020362079 	-1.2315274e-07
0.53608247 	1.4500731 	0.001987924 	-2.7536829e-07
0.54639175 	1.4536121 	0.0019853399 	-1.1982147e-08
0.55670103 	1.4546694 	0.0019388643 	-3.8143954e-09
0.56701031 	1.4544812 	0.0018860328 	-2.3118521e-07
0.57731959 	1.4535457 	0.0018239359 	-8.2744746e-07
0.58762887 	1.4521065 	0.0017564608 	-1.3856483e-06
0.59793814 	1.4502971 	0.0016849338 	-2.6110802e-07
0.60824742 	1.4481201 	0.0016080621 	-1.8665282e-07
0.6185567 	1.445733 	0.0015308221 	-5.3553703e-07
0.62886598 	1.4430923 	0.0014496227 	-1.3066157e-06
0.63917526 	1.4402281 	0.0013646833 	-1.1788924e-07
0.64948454 	1.437223 	0.0012795423 	-1.0142646e-06
0.65979381 	1.4340437 	0.0011916341 	-4.1607759e-07
0.67010309 	1.430682 	0.0011009001 	-1.7941352e-08
0.68041237 	1.4271926 	0.0010094861 	-1.5323877e-06
0.69072165 	1.4235376 	0.00091513628 	-4.166582e-08
0.70103093 	1.4198099 	0.00082180638 	-2.031706e-06
0.71134021 	1.4159 	0.00072521779 	-2.5237077e-08
0.72164948 	1.4119653 	0.00063103318 	-1.8429868e-06
0.73195876 	1.407916 	0.00053557851 	-3.4727504e-09
0.74226804 	1.4037017 	0.00043953341 	-1.1718079e-06
0.75257732 	1.3994337 	0.0003438707 	1.8677165e-10
0.7628866 	1.3949476 	0.00024709221 	-6.6666566e-07
0.77319588 	1.3903437 	0.00015031275 	-9.3133131e-08
0.78350515 	1.3855853 	5.447313e-05 	-7.8034506e-07
0.79381443 	1.3807046 	-4.2358336e-05 	1.3148655e-08
0.80412371 	1.3756188 	-0.00013976352 	-1.4303691e-06
0.81443299 	1.3704399 	-0.00023484743 	6.7520414e-08
0.82474227 	1.3649355 	-0.00033026447 	-1.2888086e-06
0.83505155 	1.3592656 	-0.00042414125 	-8.6792272e-08
0.84536082 	1.3532652 	-0.00051869498 	4.1972198e-08
0.8556701 	1.3468261 	-0.0006140269 	-1.1578597e-06
0.86597938 	1.3399993 	-0.00070701754 	-4.7138094e-07
0.87628866 	1.3326762 	-0.0007986267 	8.6051453e-08
0.88659794 	1.3246616 	-0.00089054924 	5.1845012e-08
0.89690722 	1.3158433 	-0.00098113559 	-2.4801772e-07
0.90721649 	1.3059468 	-0.0010683508 	-5.2821298e-07
0.91752577 	1.2943772 	-0.0011483118 	-5.0385187e-07
0.92783505 	1.2798126 	-0.0012109409 	-2.3647619e-07
0.93814433 	1.2593715 	-0.0012358301 	4.641587e-09
0.94845361 	1.2261148 	-0.0011840395 	2.7040404e-07
0.95876289 	1.1679118 	-0.0010163777 	7.0618943e-07
0.96907216 	1.0693093 	-0.00070892298 	2.2710847e-07
0.97938144 	0.90897143 	-0.00037085653 	2.8420677e-07
0.98969072 	0.60758203 	-7.9057827e-05 	2.3311615e-07
