0 	0.0097732861 	-6.6375473e-16 	-3.678943e-22 	3.1501218e-18 	1.3753729e-19 	6.0050077e-21
0.010869565 	0.0097746294 	-0.00065273361 	1.5747286e-07 	0.014445248 	-6.3579586e-05 	0.0027523776
0.02173913 	0.0098708395 	-0.0013055929 	1.4701092e-08 	0.014522954 	-3.5939319e-05 	0.0038183492
0.032608696 	0.010025229 	-0.0019506328 	1.6328497e-08 	0.014641319 	-6.3383571e-06 	0.0048637338
0.043478261 	0.010235519 	-0.0025819975 	2.0411314e-07 	0.0147987 	-2.6771393e-05 	0.0059166387
0.054347826 	0.010492698 	-0.0032034191 	1.3807067e-06 	0.014989194 	-6.1302884e-06 	0.0013509928
0.065217391 	0.010813739 	-0.0038298163 	1.1881917e-06 	0.01522319 	-4.6601074e-06 	0.0037541447
0.076086957 	0.011129361 	-0.004364252 	2.1258074e-06 	0.015450432 	-7.3795734e-06 	0.0022225321
0.086956522 	0.011484216 	-0.0048972213 	1.0942898e-08 	0.015704567 	-2.3160448e-07 	0.010134771
0.097826087 	0.011865032 	-0.0054159905 	3.8368808e-07 	0.015971555 	-5.3283239e-06 	0.011280304
0.10869565 	0.01225875 	-0.0059088007 	3.2830792e-06 	0.016227222 	-9.4892921e-06 	0.0033003456
0.11956522 	0.012644286 	-0.0063512931 	1.8264411e-06 	0.0164681 	-5.0880448e-06 	0.0084785868
0.13043478 	0.013029672 	-0.0067584418 	7.4617368e-07 	0.016690768 	-2.0786682e-06 	0.012468205
0.14130435 	0.013387208 	-0.0071158937 	5.530265e-06 	0.016884907 	-1.5239002e-05 	0.00072859512
0.15217391 	0.013715501 	-0.0074317777 	1.1868147e-07 	0.017065631 	-3.1328177e-07 	0.016116738
0.16304348 	0.013993977 	-0.0077037835 	5.370134e-06 	0.01715564 	-1.4175465e-05 	0.0034735502
0.17391304 	0.014235218 	-0.0079443536 	1.4164899e-06 	0.017217656 	-3.4279408e-06 	0.013411292
0.18478261 	0.014398479 	-0.0081382581 	4.6701353e-06 	0.017156732 	-1.1301844e-05 	0.0047579475
0.19565217 	0.014511832 	-0.0082956785 	8.8796895e-07 	0.017055825 	-1.9513364e-06 	0.01328097
0.20652174 	0.014493308 	-0.0083776005 	4.748706e-06 	0.016789366 	-1.0435413e-05 	0.0035538243
0.2173913 	0.014430912 	-0.008424473 	1.8088493e-06 	0.016497995 	-5.188647e-06 	0.013604512
0.22826087 	0.01415866 	-0.0083454889 	5.4346865e-06 	0.015957223 	-1.090149e-05 	0.00044526957
0.23913043 	0.013866042 	-0.0082442619 	4.0217088e-06 	0.015435234 	-9.7361809e-06 	0.011568187
0.25 	0.013314557 	-0.0079750315 	2.6301793e-06 	0.014625885 	-4.8816497e-06 	0.0045394618
0.26086957 	0.012711528 	-0.0076689337 	9.720211e-07 	0.013795425 	-1.8040848e-06 	0.0070818104
0.27173913 	0.011934671 	-0.0072357273 	2.3895775e-06 	0.012798012 	-4.9449236e-06 	0.0087537271
0.2826087 	0.010946662 	-0.0066578705 	2.3599953e-06 	0.01161229 	-4.1745881e-06 	0.00099570284
0.29347826 	0.0099642557 	-0.0060736207 	1.305103e-05 	0.010469379 	-2.3891607e-05 	0.0061857149
0.30434783 	0.0088471306 	-0.0053875605 	2.8715331e-07 	0.0092055675 	-4.9263917e-07 	0.0047495763
0.31521739 	0.0076594167 	-0.0046485588 	6.8906309e-07 	0.0079127498 	-1.1821541e-06 	0.0018666668
0.32608696 	0.0065492665 	-0.0039535099 	2.4494457e-05 	0.0067200735 	-4.1745109e-05 	0.0034911566
0.33695652 	0.0054587936 	-0.0032680135 	1.7527566e-07 	0.0055573889 	-2.7196978e-07 	0.0025150224
0.34782609 	0.0044431258 	-0.0026305618 	2.4181703e-07 	0.0045022794 	-3.7521995e-07 	0.0010693542
0.35869565 	0.0036150829 	-0.0021111905 	1.9761276e-05 	0.0036435145 	-3.2872192e-05 	0.0015766495
0.36956522 	0.0028361059 	-0.0016226423 	3.3435843e-07 	0.0028343472 	-5.5619357e-07 	0.0015028911
0.38043478 	0.0022616947 	-0.0012672144 	1.929411e-07 	0.0022457794 	-2.3368138e-07 	0.00032133318
0.39130435 	0.0018367602 	-0.0010000368 	8.1503671e-06 	0.001808624 	-1.3434989e-05 	0.00062408922
0.40217391 	0.0014727406 	-0.00076829556 	4.6249249e-06 	0.001430957 	-7.6236833e-06 	0.00059573458
0.41304348 	0.0012105695 	-0.00059645922 	1.9209673e-07 	0.0011557633 	-9.3557821e-08 	3.2785849e-05
0.42391304 	0.00106836 	-0.00049061724 	1.5530602e-06 	0.0010017958 	-2.1037069e-06 	0.00032647496
0.43478261 	0.00098171661 	-0.00040643351 	4.3015499e-06 	0.00089739039 	-5.82669e-06 	0.00031265819
0.44565217 	0.00089507324 	-0.00032224978 	3.7934811e-07 	0.00079298498 	-5.1384824e-07 	0.00029884143
0.45652174 	0.0008865672 	-0.00026864978 	5.9881606e-08 	0.00076326913 	3.8983537e-08 	0.00017923252
0.4673913 	0.00090130457 	-0.00022275437 	1.8329069e-06 	0.00075626682 	-7.809413e-07 	0.00027802559
0.47826087 	0.00092022991 	-0.00017749771 	2.0789501e-06 	0.00075261991 	-8.8577222e-07 	0.00026701289
0.48913043 	0.00093915524 	-0.00013224106 	3.0301788e-08 	0.000748973 	-1.2910595e-08 	0.0002560002
0.5 	0.00097561002 	-8.8559902e-05 	1.7241902e-09 	0.0007655253 	1.7457596e-09 	0.00027851657
0.51086957 	0.0010104253 	-5.3360731e-05 	1.6758154e-06 	0.00078422993 	1.0145075e-07 	0.00027170862
0.52173913 	0.0010452343 	-1.8204686e-05 	1.433005e-06 	0.00080293588 	8.675146e-08 	0.00026193851
0.5326087 	0.0010798854 	1.6575949e-05 	1.4971601e-08 	0.00082169258 	1.6903843e-08 	0.00022639785
0.54347826 	0.001110552 	4.3789702e-05 	2.3189357e-07 	0.00084391771 	4.5817264e-08 	0.0002639351
0.55434783 	0.0011382597 	6.8555778e-05 	1.3121162e-06 	0.00086530751 	2.592464e-07 	0.00025581785
0.56521739 	0.0011659674 	9.3321854e-05 	6.345065e-07 	0.00088669731 	1.2536506e-07 	0.00024770061
0.57608696 	0.001191745 	0.00011643218 	1.1862984e-07 	0.00090659662 	1.3330227e-07 	3.3202322e-06
0.58695652 	0.0012122245 	0.00013780702 	5.5561612e-07 	0.00092649368 	4.7357319e-08 	0.00024244003
0.59782609 	0.0012318778 	0.00015885815 	8.324416e-07 	0.00094504357 	7.095223e-08 	0.00023599941
0.60869565 	0.0012515311 	0.00017990928 	5.9915366e-08 	0.00096359345 	5.1068193e-09 	0.0002295588
0.61956522 	0.0012677282 	0.00020076875 	2.7027945e-07 	0.00097990496 	-1.5272264e-08 	0.00022873954
0.63043478 	0.0012828961 	0.00022233037 	9.5775725e-07 	0.00099594072 	-5.411851e-08 	0.00022374915
0.64130435 	0.0012980639 	0.00024389199 	2.0458646e-07 	0.0010119765 	-1.1560251e-08 	0.00021875877
0.65217391 	0.0013121514 	0.00026603664 	1.8381315e-07 	0.0010274059 	-1.0634518e-08 	0.00021762327
0.66304348 	0.0013256597 	0.0002894615 	9.9205429e-07 	0.0010433394 	-5.7395346e-08 	0.00021381045
0.67391304 	0.001339168 	0.00031288637 	1.9661489e-07 	0.0010592728 	-1.1375163e-08 	0.00020999764
0.68478261 	0.001352736 	0.00033743104 	2.7683818e-07 	0.0010760033 	1.6648763e-08 	0.00020993165
0.69565217 	0.0013667069 	0.00036354356 	8.9271927e-07 	0.0010942738 	5.3687216e-08 	0.00020704363
0.70652174 	0.0013806779 	0.00038965609 	1.8265482e-08 	0.0011125444 	1.0984673e-09 	0.00020415561
0.7173913 	0.0013967303 	0.00041861025 	6.0655596e-07 	0.0011344896 	1.6457815e-07 	0.00020596141
0.72826087 	0.0014135742 	0.00044880087 	6.1533623e-07 	0.0011581192 	1.6696052e-07 	0.00020379457
0.73913043 	0.001431584 	0.00047994892 	3.2907233e-08 	0.0011832742 	1.6767431e-08 	0.00020769322
0.75 	0.0014553298 	0.00051765623 	1.3218496e-06 	0.0012162738 	6.735304e-07 	0.00020608059
0.76086957 	0.0014790756 	0.00055536353 	2.6882467e-08 	0.0012492735 	1.3697594e-08 	0.00020446796
0.77173913 	0.0015130497 	0.00059862561 	1.0040162e-06 	0.0012950841 	8.978774e-07 	0.00021262096
0.7826087 	0.0015496751 	0.00064238642 	4.1191372e-07 	0.0013449349 	3.6836858e-07 	0.00021144351
0.79347826 	0.0015990933 	0.00068541831 	6.1945155e-07 	0.0014101965 	1.0749141e-06 	0.00022516149
0.80434783 	0.0016593233 	0.00072850653 	5.389534e-07 	0.0014880199 	9.3522825e-07 	0.00022433342
0.81521739 	0.0017398339 	0.00077527809 	6.6163846e-07 	0.0015847748 	1.4488831e-06 	0.00024700056
0.82608696 	0.0018440754 	0.00083002995 	6.3764808e-07 	0.0017031379 	1.396348e-06 	0.00024646359
0.83695652 	0.0019834011 	0.00090187675 	1.3214831e-06 	0.0018516195 	2.6581645e-06 	0.00028277013
0.84782609 	0.0021536975 	0.00098908446 	5.3979439e-07 	0.0020275042 	1.0857969e-06 	0.00028249619
0.85869565 	0.0023802739 	0.0011034468 	2.8512911e-06 	0.0022557394 	5.6792354e-06 	0.00033490394
0.86956522 	0.0026331391 	0.0012298014 	6.4168177e-08 	0.0025082529 	1.571552e-07 	2.3199685e-05
0.88043478 	0.0029524163 	0.0013839446 	2.8082111e-06 	0.0028275189 	5.8368155e-06 	0.00040248968
0.89130435 	0.003295027 	0.0015450427 	2.0342935e-06 	0.003170191 	4.4920919e-06 	0.00047943453
0.90217391 	0.0036591217 	0.0017114971 	3.1991827e-08 	0.0035350981 	8.4358104e-08 	0.000303798
0.91304348 	0.0040083148 	0.001866084 	1.9836567e-06 	0.0038904692 	4.6475299e-06 	0.00055545068
0.92391304 	0.0042871029 	0.0019879784 	1.4404375e-06 	0.0041794697 	3.6892989e-06 	0.00061378322
0.93478261 	0.0044605536 	0.002062843 	1.6398001e-08 	0.004369358 	3.1310953e-07 	0.00063444848
0.94565217 	0.0044336584 	0.0020495887 	-1.1918287e-06 	0.0043686317 	-2.2468796e-06 	0.00062844334
0.95652174 	0.0041425274 	0.001918552 	-1.1265454e-08 	0.0041077231 	-1.0739412e-08 	0.00029746285
0.9673913 	0.0035058121 	0.0016296297 	-1.6489173e-06 	0.00350381 	-3.4741896e-06 	0.00050868085
0.97826087 	0.0025043292 	0.0011686367 	-1.2025671e-08 	0.002522996 	-2.1343451e-08 	0.00021538421
0.98913043 	0.00085387738 	0.00037803822 	-1.7456145e-08 	0.000857839 	-3.3672958e-08 	8.9804512e-05
