0.24742268 	0.094725886 	0.028208379 	-0.00013882484
0.25773196 	1.2161724 	0.34283486 	3.4470377e-05
0.26804124 	1.237077 	0.33257137 	-0.00033513523
0.27835052 	1.2343059 	0.31529904 	-2.7625049e-05
0.28865979 	1.2316325 	0.29970648 	-7.3564647e-05
0.29896907 	1.2303953 	0.2851425 	-0.0003092912
0.30927835 	1.2293691 	0.27233073 	-0.00033887688
0.31958763 	1.2283279 	0.25993558 	-0.00024323677
0.32989691 	1.2272769 	0.24840584 	-8.9970265e-05
0.34020619 	1.225836 	0.23731176 	-0.00017721891
0.35051546 	1.2247182 	0.22696836 	-0.00017393887
0.36082474 	1.2238343 	0.21774469 	-7.0979673e-05
0.37113402 	1.2221774 	0.20876938 	-7.6490606e-05
0.3814433 	1.2200419 	0.19942631 	-0.00036144435
0.39175258 	1.2191827 	0.19224433 	-4.5030753e-05
0.40206186 	1.2169453 	0.1840894 	-0.00020841556
0.41237113 	1.2151217 	0.1768647 	-0.00013430561
0.42268041 	1.2133245 	0.17019047 	-4.8618263e-05
0.43298969 	1.2109492 	0.16315984 	-0.00011176398
0.44329897 	1.209101 	0.15738116 	-2.3871645e-05
0.45360825 	1.2065496 	0.15094038 	-6.2856563e-05
0.46391753 	1.2044348 	0.145569 	-4.8753931e-05
0.4742268 	1.2018518 	0.13999202 	-1.2705302e-05
0.48453608 	1.1995162 	0.13476204 	-1.7348677e-05
0.49484536 	1.1968482 	0.1297957 	-9.8854109e-05
0.50515464 	1.1942839 	0.12469315 	-1.4505446e-05
0.51546392 	1.1916066 	0.12031605 	-0.00025719966
0.5257732 	1.1888471 	0.11574572 	-3.0449053e-06
0.53608247 	1.1861536 	0.11154499 	-0.00011679925
0.54639175 	1.1832843 	0.10745095 	-0.00017921754
0.55670103 	1.1804578 	0.10325548 	-4.4282911e-06
0.56701031 	1.1775187 	0.099655113 	-0.00020689422
0.57731959 	1.1745266 	0.095949958 	-0.00015418547
0.58762887 	1.1715683 	0.092305282 	-5.9691928e-06
0.59793814 	1.1684793 	0.089008617 	-0.00022582076
0.60824742 	1.1653903 	0.085711953 	-0.00016744728
0.6185567 	1.1623031 	0.082438558 	-3.2419134e-06
0.62886598 	1.1590301 	0.0794434 	-0.00019666281
0.63917526 	1.155757 	0.076448242 	-0.00017348864
0.64948454 	1.1524915 	0.073448557 	1.5023254e-07
0.65979381 	1.1489296 	0.070659176 	-0.00016957876
0.67010309 	1.145369 	0.067863018 	-0.00014147816
0.68041237 	1.141778 	0.065093305 	-1.749492e-05
0.69072165 	1.137943 	0.062492106 	-0.00017400061
0.70103093 	1.134108 	0.059890908 	-8.121641e-05
0.71134021 	1.130138 	0.057360518 	-6.0171276e-05
0.72164948 	1.1259847 	0.054913972 	-0.00014370403
0.73195876 	1.1218314 	0.052467426 	-3.8060934e-06
0.74226804 	1.1173403 	0.050143794 	-0.00011867597
0.75257732 	1.1128161 	0.047823747 	-4.5202756e-05
0.7628866 	1.1080482 	0.045570865 	-6.6380652e-05
0.77319588 	1.1030916 	0.043351057 	-6.257342e-05
0.78350515 	1.0979482 	0.041174351 	-3.8517535e-05
0.79381443 	1.0924908 	0.039036736 	-6.1627324e-05
0.80412371 	1.086845 	0.036937724 	-2.9739574e-05
0.81443299 	1.080813 	0.034870533 	-4.636112e-05
0.82474227 	1.0745055 	0.032843795 	-3.6282105e-05
0.83505155 	1.0678183 	0.030830855 	-1.9788624e-05
0.84536082 	1.0606599 	0.02886343 	-5.5347916e-05
0.8556701 	1.0532969 	0.02687842 	2.0309065e-06
0.86597938 	1.0450093 	0.024977661 	-3.7892091e-05
0.87628866 	1.0363561 	0.023074616 	-2.8990767e-05
0.88659794 	1.0272173 	0.02114932 	1.9900795e-06
0.89690722 	1.0167414 	0.01929855 	-1.7400451e-05
0.90721649 	1.0052888 	0.017439611 	-4.1267296e-05
0.91752577 	0.99234372 	0.015585905 	-1.8874903e-05
0.92783505 	0.97718427 	0.013730739 	-2.2802552e-06
0.93814433 	0.95836548 	0.011845541 	3.9946925e-07
0.94845361 	0.93541493 	0.010064518 	2.321556e-07
0.95876289 	0.89873921 	0.0080118229 	-1.2920573e-05
0.96907216 	0.84496185 	0.0059462144 	-1.2727972e-05
0.97938144 	0.7520083 	0.0036766771 	-2.8684258e-07
0.98969072 	0.53408341 	0.0013030634 	-1.7278305e-06
