0.4742268 	0.33238405 	4.2457495e-05 	-3.7803082e-09
0.48453608 	0.97235781 	0.0005094027 	-1.5758133e-08
0.49484536 	1.2241741 	0.001086928 	2.7709321e-06
0.50515464 	1.3631217 	0.0016548116 	-1.4460995e-10
0.51546392 	1.421216 	0.0019643928 	4.8851363e-07
0.5257732 	1.4425693 	0.0021083076 	-3.3205388e-07
0.53608247 	1.4506444 	0.0020612771 	-3.3152268e-07
0.54639175 	1.4536042 	0.0020494339 	-5.8328854e-08
0.55670103 	1.4543563 	0.0020006893 	-5.8298457e-08
0.56701031 	1.4539677 	0.0019434429 	-3.2492965e-07
0.57731959 	1.4528833 	0.0018779654 	-9.556477e-07
0.58762887 	1.4513206 	0.0018072649 	-1.5460218e-06
0.59793814 	1.449402 	0.0017325731 	-3.858948e-07
0.60824742 	1.4471319 	0.0016526735 	-1.8019115e-07
0.6185567 	1.4446468 	0.0015720163 	-6.7694848e-07
0.62886598 	1.4419185 	0.0014874668 	-1.4915924e-06
0.63917526 	1.4389781 	0.001399265 	-1.1001952e-07
0.64948454 	1.4358886 	0.0013104124 	-1.1943808e-06
0.65979381 	1.4326354 	0.001218899 	-5.8982747e-07
0.67010309 	1.4292137 	0.0011246683 	-9.3705816e-09
0.68041237 	1.425654 	0.0010293947 	-1.7580462e-06
0.69072165 	1.4219501 	0.00093151074 	-3.5123366e-08
0.70103093 	1.4181626 	0.00083436892 	-2.2832842e-06
0.71134021 	1.414216 	0.00073432785 	-1.9704114e-08
0.72164948 	1.4102341 	0.00063659577 	-2.089766e-06
0.73195876 	1.4061576 	0.00053788449 	-9.123111e-10
0.74226804 	1.4019098 	0.00043866416 	-1.387775e-06
0.75257732 	1.3976156 	0.00033991928 	-1.526066e-07
0.7628866 	1.3931082 	0.00024029062 	-8.4872329e-07
0.77319588 	1.3884831 	0.00014083369 	-2.5459345e-07
0.78350515 	1.3837046 	4.2622598e-05 	-9.4752201e-07
0.79381443 	1.3788046 	-5.6635248e-05 	9.7725392e-09
0.80412371 	1.3736993 	-0.00015628597 	-1.5966105e-06
0.81443299 	1.3685029 	-0.00025367571 	7.171833e-08
0.82474227 	1.3629823 	-0.00035093924 	-1.4287842e-06
0.83505155 	1.3572995 	-0.00044649551 	-1.9912712e-07
0.84536082 	1.351293 	-0.00054306429 	3.8501649e-08
0.8556701 	1.3448446 	-0.00064055056 	-1.2814175e-06
0.86597938 	1.3380115 	-0.0007356132 	-5.7142467e-07
0.87628866 	1.3306868 	-0.00082929542 	8.6350087e-08
0.88659794 	1.3226722 	-0.00092327716 	4.5657513e-08
0.89690722 	1.3138649 	-0.0010160006 	-3.2737851e-07
0.90721649 	1.3040297 	-0.0011059719 	-6.1195616e-07
0.91752577 	1.2926366 	-0.0011900015 	-5.9250379e-07
0.92783505 	1.278517 	-0.0012593151 	-3.1601315e-07
0.93814433 	1.2590835 	-0.0012949263 	-1.3608183e-08
0.94845361 	1.2279516 	-0.0012579837 	2.5964063e-07
0.95876289 	1.1725736 	-0.0011017424 	8.382492e-07
0.96907216 	1.0759917 	-0.00078863277 	2.2833482e-07
0.97938144 	0.91511335 	-0.00041749749 	4.083365e-07
0.98969072 	0.61161066 	-9.1190088e-05 	3.0658991e-07
