0.31958763 	2.3275572e-05 	-4.605106e-06 	1.081545e-08 	1.9524842e-05 	-1.1838233e-08 	8.2009516e-06
0.32989691 	0.0016388321 	-0.00060799021 	-5.8867267e-07 	0.0012323211 	-1.2480034e-06 	5.0413612e-05
0.34020619 	0.0015536289 	-0.00019344955 	-2.3606512e-07 	0.0020895139 	-8.9146555e-07 	0.00059715935
0.35051546 	0.0015090969 	5.7798082e-05 	3.957971e-07 	0.0025405971 	3.5738507e-07 	0.00056245259
0.36082474 	0.0014950172 	0.00014586856 	1.462588e-07 	0.0026053426 	-1.8319048e-07 	0.00045773026
0.37113402 	0.0014813032 	0.00016818861 	1.1781701e-07 	0.0026094131 	-9.0572674e-07 	0.00032270895
0.3814433 	0.0014648703 	0.00017798112 	1.7945299e-08 	0.0025992129 	-1.2081729e-06 	0.0001918429
0.39175258 	0.0014481924 	0.00018672689 	4.3979011e-08 	0.0025867822 	-1.5322926e-06 	6.7352824e-05
0.40206186 	0.0014330582 	0.00019702068 	7.7547121e-08 	0.0025769716 	-1.4297152e-06 	6.2978342e-05
0.41237113 	0.0014202874 	0.00020863355 	5.5676514e-08 	0.0025711739 	-7.5322976e-07 	0.00018102995
0.42268041 	0.0014100975 	0.00022103465 	4.2185167e-08 	0.002568932 	-7.0020189e-08 	0.00024635855
0.43298969 	0.0014027073 	0.00023383599 	6.0634553e-08 	0.0025711607 	-9.327841e-08 	0.00033361464
0.44329897 	0.0013976666 	0.00024742797 	7.6004097e-08 	0.0025767516 	-6.9306333e-07 	0.00051108552
0.45360825 	0.0013939604 	0.00026124991 	2.180705e-08 	0.002583514 	-3.158422e-08 	0.00059406095
0.46391753 	0.0013914331 	0.00027444599 	3.9333057e-07 	0.0025905166 	-5.4492663e-07 	0.00026531751
0.4742268 	0.0013904613 	0.00028914648 	7.3853998e-08 	0.0026026055 	-5.3914028e-07 	0.00081646136
0.48453608 	0.0013896125 	0.00030218623 	5.9554831e-07 	0.0026098861 	-8.0230484e-07 	0.00021971603
0.49484536 	0.0013900023 	0.00031708974 	6.6705867e-08 	0.0026238931 	-8.8919965e-08 	0.0009235098
0.50515464 	0.0013902611 	0.00033016646 	5.3498038e-07 	0.0026321433 	-7.1313721e-07 	0.00045568742
0.51546392 	0.001391157 	0.00034439299 	2.8919234e-07 	0.0026443729 	-3.8840337e-07 	0.00082015111
0.5257732 	0.0013918882 	0.00035733906 	6.2057799e-07 	0.0026528613 	-8.3347499e-07 	0.00049055279
0.53608247 	0.0013930047 	0.00037139238 	3.0080968e-07 	0.0026642886 	-4.1481419e-07 	0.00092483633
0.54639175 	0.0013936906 	0.00038371564 	7.0443474e-07 	0.0026703753 	-9.7140999e-07 	0.00033512058
0.55670103 	0.0013948831 	0.00039821159 	2.7922639e-08 	0.0026819839 	-4.0406181e-08 	0.0012204749
0.56701031 	0.0013951786 	0.00040962563 	8.2843646e-07 	0.0026833521 	-1.1988105e-06 	5.9408161e-06
0.57731959 	0.0013962465 	0.00042440056 	3.5681547e-08 	0.0026938376 	-5.163391e-08 	0.0011547069
0.58762887 	0.0013963604 	0.00043658638 	3.9602571e-07 	0.0026945339 	-6.1703341e-07 	0.00052738254
0.59793814 	0.0013966687 	0.00044984535 	3.3214117e-07 	0.0026974244 	-5.1749721e-07 	0.00061504178
0.60824742 	0.0013968137 	0.00046336683 	1.2090006e-08 	0.002700229 	-1.3372814e-07 	0.0011385023
0.6185567 	0.0013963379 	0.00047539442 	5.4374545e-07 	0.0026945148 	-9.4114194e-07 	9.3955245e-05
0.62886598 	0.0013963101 	0.00048949962 	7.2099615e-08 	0.0026956457 	-1.2479364e-07 	0.00098268796
0.63917526 	0.0013955918 	0.00050192984 	5.316004e-08 	0.002690209 	-1.0581955e-07 	0.00098106629
0.64948454 	0.0013947238 	0.00051401529 	4.3263019e-07 	0.0026795723 	-8.6118689e-07 	0.00010939086
0.65979381 	0.0013940815 	0.00052820494 	1.4154362e-08 	0.0026748164 	-2.131478e-07 	0.0011016009
0.67010309 	0.0013928471 	0.00054001496 	9.514947e-08 	0.0026620774 	-2.2591891e-07 	0.00081855631
0.68041237 	0.0013917386 	0.00055220405 	2.6743195e-07 	0.0026468003 	-6.3497921e-07 	0.00032437774
0.69072165 	0.0013905067 	0.00056564915 	4.9061876e-08 	0.0026338609 	-8.719115e-07 	0.0011052768
0.70103093 	0.001389178 	0.00057703411 	1.6806535e-07 	0.0026134936 	-4.9339877e-07 	0.00046238895
0.71134021 	0.0013879484 	0.00058972335 	7.8496115e-08 	0.0025944628 	-2.304454e-07 	0.0008197445
0.72164948 	0.001386482 	0.0006014618 	1.1096988e-09 	0.0025728795 	-4.1865669e-09 	0.0011229611
0.73195876 	0.0013856262 	0.00061245582 	1.7069206e-07 	0.0025451353 	-6.4397092e-07 	0.00022424563
0.74226804 	0.0013844277 	0.00062446356 	2.6913138e-08 	0.0025208279 	-9.3834656e-07 	0.001158454
0.75257732 	0.0013839677 	0.00063468208 	1.1765026e-07 	0.0024889317 	-6.0383092e-07 	0.00022090866
0.7628866 	0.0013832752 	0.00064607137 	3.1821113e-09 	0.0024603902 	-2.1505103e-07 	0.0011918296
0.77319588 	0.0013834366 	0.00065558078 	5.3672873e-08 	0.002425285 	-4.147799e-07 	0.00047472688
0.78350515 	0.001383584 	0.00066583703 	5.6625602e-09 	0.002392186 	-4.3759837e-08 	0.0011511808
0.79381443 	0.0013846344 	0.00067447956 	2.4198656e-08 	0.0023543398 	-3.5720066e-07 	0.00052836859
0.80412371 	0.0013856738 	0.00068353345 	1.816243e-09 	0.002318422 	-2.6809885e-08 	0.0012145741
0.81443299 	0.0013878559 	0.00069093876 	3.5235385e-09 	0.002277925 	-4.053296e-07 	0.00034962489
0.82474227 	0.0013896312 	0.00069859307 	-1.17694e-08 	0.0022408967 	-3.4309992e-07 	0.0013107741
0.83505155 	0.0013929707 	0.00070460046 	-2.1677721e-08 	0.0021984903 	-4.5601438e-07 	0.00010772133
0.84536082 	0.0013954481 	0.00071062479 	-4.9144406e-09 	0.0021609566 	-4.9616363e-08 	0.0012000224
0.8556701 	0.0013991913 	0.00071548732 	-1.5387184e-08 	0.0021201558 	-1.5534955e-07 	0.00089189528
0.86597938 	0.0014036587 	0.00071958481 	-4.4932707e-08 	0.0020785942 	-3.1595129e-07 	0.00026337673
0.87628866 	0.0014079112 	0.00072357413 	-6.0531303e-09 	0.0020405588 	-3.4817551e-08 	0.0012754219
0.88659794 	0.0014143551 	0.00072698468 	-1.4117915e-08 	0.0019996631 	-8.1206123e-08 	0.0011050034
0.89690722 	0.0014237329 	0.00073034005 	-4.763676e-08 	0.0019569286 	-2.4551287e-07 	0.00029881851
0.90721649 	0.0014359448 	0.00073425037 	-4.2058643e-08 	0.0019156723 	-2.0441344e-07 	0.00035960487
0.91752577 	0.0014526007 	0.00073896242 	-2.1664528e-08 	0.0018750834 	-1.0129673e-07 	0.00084964938
0.92783505 	0.0014752623 	0.00074454019 	-1.0399303e-08 	0.0018347124 	-4.610449e-08 	0.001176865
0.93814433 	0.0015042428 	0.00075087665 	-7.1135811e-09 	0.0017963612 	-2.7821701e-08 	0.0013186032
0.94845361 	0.0015363905 	0.00075701115 	-1.3092243e-08 	0.0017621821 	-4.1599019e-08 	0.0012459901
0.95876289 	0.0015650413 	0.00075987497 	-8.6154988e-08 	0.0017255967 	-2.3265302e-07 	6.2789222e-05
0.96907216 	0.0015651952 	0.0007495791 	-1.3900488e-07 	0.0016681795 	-3.3686438e-07 	0.00027004768
0.97938144 	0.0014314068 	0.00067960102 	-3.7762002e-08 	0.0014819064 	-9.4237953e-08 	0.0011511415
0.98969072 	0.00070116493 	0.0003278045 	-1.7120573e-07 	0.00070693609 	-3.7968969e-07 	0.00010546654
