0.4742268 	0.00020349829 	-6.5425709e-05 	3.7918765e-09 	0.00020331699 	-8.6668751e-09 	6.1183492e-05
0.48453608 	0.0033866157 	-0.0016235324 	9.3934611e-09 	0.0033734962 	-1.4783013e-08 	0.0011843441
0.49484536 	0.0032310201 	-0.0015132073 	1.6629963e-06 	0.0032085061 	-3.5504611e-06 	0.0013977475
0.50515464 	0.0022560414 	-0.0010517216 	-2.3709345e-08 	0.0022347821 	4.989159e-08 	0.00091372395
0.51546392 	0.0016245891 	-0.00074815795 	3.8063763e-07 	0.0016034754 	-5.2529655e-07 	0.0006610577
0.5257732 	0.001388431 	-0.00050272432 	2.1155922e-06 	0.0013774961 	-1.2110683e-06 	0.00059016627
0.53608247 	0.0013402422 	-0.00031428851 	5.492188e-07 	0.0013380119 	-1.0065647e-07 	0.00057245172
0.54639175 	0.0013606847 	-0.00016672171 	-1.7102769e-09 	0.0013622125 	-1.673158e-09 	0.000570666
0.55670103 	0.0013979816 	-4.742682e-05 	-5.8864971e-09 	0.0014077683 	-7.0005037e-09 	0.00056165038
0.56701031 	0.0014390923 	5.4068483e-05 	2.0828516e-07 	0.0014553357 	4.4935711e-08 	0.00061428621
0.57731959 	0.0014788154 	0.00014342783 	6.7249277e-07 	0.0015014525 	1.4711738e-07 	0.00063471442
0.58762887 	0.0015158946 	0.00022364195 	9.4740782e-07 	0.0015442931 	1.8010713e-07 	0.00065517798
0.59793814 	0.0015499459 	0.00029644981 	1.212029e-07 	0.0015836383 	1.6721406e-08 	0.00067493096
0.60824742 	0.0015805777 	0.00036227811 	-9.4154959e-08 	0.0016178329 	-1.2514112e-07 	2.1325396e-05
0.6185567 	0.001607208 	0.00042079931 	2.3035993e-07 	0.0016500847 	1.3300762e-08 	0.00069349021
0.62886598 	0.0016306829 	0.00047366991 	4.7846254e-07 	0.001677523 	-3.056737e-08 	0.00071022355
0.63917526 	0.0016511925 	0.00052149093 	-7.0158536e-08 	0.0017005381 	-9.359755e-08 	0.00015366683
0.64948454 	0.0016679394 	0.00056308085 	2.7912326e-07 	0.0017214799 	-7.1802008e-08 	0.00072473332
0.65979381 	0.0016821554 	0.00060039598 	7.1947261e-08 	0.0017384495 	-4.2647196e-08 	0.00073644194
0.67010309 	0.0016931831 	0.00063261596 	-1.5350155e-08 	0.0017514672 	-2.181789e-08 	0.00057935542
0.68041237 	0.0017014091 	0.00066025997 	1.9798291e-07 	0.0017618427 	-2.5056823e-07 	0.00074496318
0.69072165 	0.0017073663 	0.00068433844 	-3.6258926e-08 	0.001768407 	-5.5448022e-08 	0.00029696295
0.70103093 	0.0017107571 	0.00070441826 	1.3745738e-07 	0.0017736785 	-4.2183283e-07 	0.00074990953
0.71134021 	0.0017122691 	0.00072158759 	-3.0215299e-08 	0.0017749386 	-5.16546e-08 	0.00027492572
0.72164948 	0.0017117157 	0.0007355625 	2.4221954e-08 	0.0017755578 	-4.5735221e-07 	0.00075108338
0.73195876 	0.0017096305 	0.00074704812 	-1.2705052e-08 	0.0017729119 	-2.5279382e-08 	0.00048465941
0.74226804 	0.0017058655 	0.00075637037 	-3.3207069e-08 	0.0017692612 	-3.2081926e-07 	0.00074854367
0.75257732 	0.001700937 	0.00076368637 	-1.3891741e-09 	0.0017635964 	-3.2561195e-09 	0.00070945085
0.7628866 	0.0016945489 	0.00076909812 	-3.7755986e-08 	0.0017563026 	-1.8873647e-07 	0.00074323353
0.77319588 	0.0016871557 	0.00077303668 	-1.0049451e-09 	0.0017477986 	-5.0235686e-09 	0.00074321732
0.78350515 	0.0016786878 	0.00077529911 	-6.4683744e-08 	0.0017380752 	-2.4209215e-07 	0.00073626407
0.79381443 	0.0016695014 	0.00077635846 	-4.5546488e-09 	0.0017270617 	-1.3042323e-08 	0.00054724288
0.80412371 	0.0016595243 	0.00077637547 	-1.51071e-07 	0.0017156677 	-4.9302819e-07 	0.00072845023
0.81443299 	0.0016492191 	0.00077527558 	-1.6271768e-08 	0.0017020182 	-4.2460418e-08 	7.7228235e-05
0.82474227 	0.0016382096 	0.00077289019 	-1.7905128e-07 	0.0016897527 	-4.7364523e-07 	0.00072024751
0.83505155 	0.001626925 	0.00076776588 	-5.6426058e-09 	0.0016757116 	-1.2854127e-08 	0.00071171907
0.84536082 	0.0016150955 	0.00076148498 	-8.3831628e-09 	0.0016601909 	-1.9225311e-08 	0.0003975984
0.8556701 	0.0016025954 	0.00075509455 	-2.0043996e-07 	0.0016448791 	-4.582899e-07 	0.00070304205
0.86597938 	0.0015895795 	0.00074829403 	-8.0886922e-08 	0.0016283258 	-1.8471625e-07 	0.00069435454
0.87628866 	0.0015761311 	0.00074106858 	-1.1875958e-08 	0.0016104435 	-2.7038472e-08 	0.0002040283
0.88659794 	0.001562694 	0.00073410134 	-5.8892451e-09 	0.0015937401 	-1.3564083e-08 	0.00040599793
0.89690722 	0.0015508071 	0.00072776217 	-3.9282403e-08 	0.0015782363 	-9.0842552e-08 	0.00067825502
0.90721649 	0.0015436873 	0.00072326524 	-7.9517924e-08 	0.0015659177 	-1.9108214e-07 	0.00067282659
0.91752577 	0.0015468479 	0.00072315178 	-4.4028416e-08 	0.0015622276 	-1.2396657e-07 	0.00067162987
0.92783505 	0.0015715293 	0.00073260419 	3.6036455e-08 	0.0015783178 	5.2602963e-08 	0.00067820981
0.93814433 	0.0016407799 	0.00076260245 	2.3827004e-08 	0.0016384139 	4.7843839e-08 	0.00069885782
0.94845361 	0.0018066122 	0.00083782884 	9.229124e-08 	0.0017955814 	1.9575708e-07 	0.00010773631
0.95876289 	0.0021287989 	0.00098945533 	4.3603989e-07 	0.0021142498 	9.0979778e-07 	0.00094588106
0.96907216 	0.0025666474 	0.001197495 	9.9767396e-08 	0.0025498554 	2.1903383e-07 	0.00033864354
0.97938144 	0.0027653153 	0.0013002641 	-2.5759055e-08 	0.0027551623 	-8.8118807e-08 	0.001204374
0.98969072 	0.0016470179 	0.00077091587 	-9.9812885e-07 	0.0016438023 	-1.9615457e-06 	0.00075555507
