0.4742268 	0.00019766457 	-6.2815923e-05 	4.135249e-09 	0.00019749454 	-9.5794177e-09 	5.9470384e-05
0.48453608 	0.0033654032 	-0.0016106642 	1.4662648e-08 	0.0033532902 	-2.4228367e-08 	0.0011791504
0.49484536 	0.0033052011 	-0.0015460558 	1.3204982e-06 	0.0032844242 	-2.8296045e-06 	0.0016090735
0.50515464 	0.0023823548 	-0.0011112908 	-4.4341601e-08 	0.002360789 	9.3880383e-08 	0.0009622404
0.51546392 	0.0016931393 	-0.00078309335 	1.4421331e-07 	0.0016734324 	-2.3404725e-07 	0.00077211095
0.5257732 	0.0014002916 	-0.0005471799 	1.837766e-06 	0.0013873555 	-1.4532325e-06 	0.0006710088
0.53608247 	0.0013216109 	-0.00035197563 	3.8317056e-07 	0.0013179012 	-1.1222712e-07 	0.00063743594
0.54639175 	0.0013295803 	-0.00020253496 	-1.4958617e-08 	0.0013303038 	-1.3805947e-08 	0.00055834576
0.55670103 	0.0013622323 	-8.0843571e-05 	-1.8174826e-08 	0.0013694041 	-2.1044221e-08 	0.00054760026
0.56701031 	0.0014010316 	2.2011772e-05 	8.5984775e-08 	0.0014149415 	1.7327847e-08 	0.00067343412
0.57731959 	0.0014400699 	0.00011197046 	5.6633078e-07 	0.0014601079 	1.2296753e-07 	0.00069588516
0.58762887 	0.0014771378 	0.00019255592 	8.5051746e-07 	0.0015027889 	1.6960446e-07 	0.00071881488
0.59793814 	0.0015116189 	0.00026570071 	2.3941642e-08 	0.0015424206 	3.7451335e-09 	0.00074127589
0.60824742 	0.0015430001 	0.00033190513 	-1.003129e-07 	0.0015770801 	-1.3636702e-07 	2.0822132e-05
0.6185567 	0.0015706754 	0.00039112342 	1.4910228e-07 	0.0016103737 	1.2947198e-08 	0.00076265515
0.62886598 	0.0015953737 	0.00044486249 	4.1715938e-07 	0.0016389099 	-7.9370284e-09 	0.00078223339
0.63917526 	0.0016171922 	0.00049366267 	-7.7169256e-08 	0.0016629634 	-1.0580102e-07 	0.00015055157
0.64948454 	0.0016354869 	0.00053668079 	2.308913e-07 	0.001685522 	-4.2497561e-08 	0.00079954246
0.65979381 	0.0016512887 	0.00057552066 	2.5660601e-08 	0.0017040192 	-1.1787791e-08 	0.00081391996
0.67010309 	0.0016638637 	0.00060930285 	-2.3691983e-08 	0.0017183725 	-3.4210034e-08 	0.0005686516
0.68041237 	0.0016738339 	0.00063892507 	1.8913832e-07 	0.0017306939 	-1.8442326e-07 	0.00082489219
0.69072165 	0.0016813519 	0.00066476736 	-4.3499692e-08 	0.0017386838 	-6.6492791e-08 	0.00029202681
0.70103093 	0.0016864397 	0.00068691458 	1.5303875e-07 	0.0017459238 	-3.3287704e-07 	0.00083195924
0.71134021 	0.0016894095 	0.00070584303 	-3.7090984e-08 	0.0017485777 	-6.171318e-08 	0.0002708736
0.72164948 	0.0016903997 	0.00072177329 	4.746781e-08 	0.0017510785 	-3.6036509e-07 	0.00083479951
0.73195876 	0.0016895591 	0.0007347668 	-1.8409818e-08 	0.0017496461 	-3.4246288e-08 	0.0004783972
0.74226804 	0.0016871231 	0.00074577573 	-1.3205294e-08 	0.0017476995 	-2.2987223e-07 	0.00083332598
0.75257732 	0.001683223 	0.00075425118 	-5.3091822e-09 	0.0017430819 	-1.111808e-08 	0.00070141973
0.7628866 	0.0016778714 	0.00076090097 	-1.8797091e-08 	0.0017372587 	-1.0648315e-07 	0.00082842059
0.77319588 	0.001671307 	0.00076559397 	-2.8386883e-09 	0.0017296304 	-6.5179483e-09 	0.00074191778
0.78350515 	0.0016636238 	0.00076859614 	-4.1122189e-08 	0.0017210408 	-1.6171994e-07 	0.00082136966
0.79381443 	0.0016550837 	0.00077016768 	-7.7061718e-09 	0.0017106235 	-1.9320194e-08 	0.00054217834
0.80412371 	0.0016457034 	0.00077071027 	-1.2788527e-07 	0.0017001073 	-4.1097844e-07 	0.00081315297
0.81443299 	0.0016358852 	0.00076935208 	-1.9426355e-08 	0.0016868649 	-4.7820578e-08 	7.6559782e-05
0.82474227 	0.0016253052 	0.00076673856 	-1.556464e-07 	0.0016752849 	-3.9954135e-07 	0.00080428015
0.83505155 	0.0016143867 	0.0007615511 	-1.9579942e-09 	0.0016615213 	-4.4649901e-09 	0.00072366131
0.84536082 	0.0016028978 	0.00075543463 	-1.045431e-08 	0.0016463638 	-2.381767e-08 	0.0003944054
0.8556701 	0.0015907731 	0.00074927688 	-1.7110808e-07 	0.0016316729 	-3.90964e-07 	0.00078548409
0.86597938 	0.0015782566 	0.00074273172 	-5.4121384e-08 	0.0016157319 	-1.2357504e-07 	0.0007760763
0.87628866 	0.0015656846 	0.00073588649 	-1.2764519e-08 	0.0015986316 	-2.9105555e-08 	0.00020267976
0.88659794 	0.0015537889 	0.00072962154 	-6.4692258e-09 	0.0015834179 	-1.5094348e-08 	0.00040331932
0.89690722 	0.0015444945 	0.00072448097 	-1.7568393e-08 	0.001570462 	-4.1096534e-08 	0.00075986359
0.90721649 	0.0015419729 	0.00072202465 	-5.1246561e-08 	0.0015623169 	-1.2769747e-07 	0.00075586017
0.91752577 	0.0015528252 	0.00072536876 	-9.9770306e-09 	0.0015658439 	-4.7231688e-08 	0.00075798822
0.92783505 	0.0015905342 	0.00074084091 	6.1487256e-08 	0.0015948391 	1.1266124e-07 	0.00077106791
0.93814433 	0.0016820647 	0.00078131758 	2.220402e-09 	0.001677726 	4.6969549e-09 	0.00078201811
0.94845361 	0.0018821525 	0.00087287024 	1.1186783e-07 	0.0018699519 	2.3756486e-07 	0.00011155678
0.95876289 	0.0022336687 	0.0010386365 	2.9294547e-07 	0.0022191402 	6.1443999e-07 	0.0011174737
0.96907216 	0.002658015 	0.0012392976 	9.9012166e-08 	0.0026419686 	2.1851331e-07 	0.00034913179
0.97938144 	0.0028061237 	0.0013172512 	-2.3715736e-08 	0.0027971164 	-6.5888876e-08 	0.0013767662
0.98969072 	0.0016487572 	0.00077092919 	-7.0241058e-07 	0.001645928 	-1.3888871e-06 	0.00085128697
