0.4742268 	0.00020560944 	-6.6378834e-05 	3.6458325e-09 	0.0002054238 	-8.2919567e-09 	6.18025e-05
0.48453608 	0.0033934336 	-0.0016278341 	7.5463538e-09 	0.0033799389 	-1.1636833e-08 	0.0011859
0.49484536 	0.0032023174 	-0.0015004519 	1.7926115e-06 	0.0031791944 	-3.8199932e-06 	0.0013274211
0.50515464 	0.0022117648 	-0.0010307585 	-1.6022781e-08 	0.0021906207 	3.3700396e-08 	0.00089619084
0.51546392 	0.0016032975 	-0.00073697769 	4.5799383e-07 	0.0015817277 	-5.9212387e-07 	0.00062616788
0.5257732 	0.0013864322 	-0.00048791963 	2.2220198e-06 	0.001376108 	-1.1126186e-06 	0.00056442726
0.53608247 	0.0013477112 	-0.00030074782 	6.0167416e-07 	0.0013461135 	-8.8833734e-08 	0.00055103239
0.54639175 	0.0013719392 	-0.00015446167 	3.3240281e-08 	0.0013738528 	2.3419708e-09 	0.00055953836
0.55670103 	0.0014105272 	-3.5966452e-05 	-1.4821395e-09 	0.0014212324 	-1.7821627e-09 	0.00056661664
0.56701031 	0.0014522396 	6.5095976e-05 	2.4818625e-07 	0.0014693908 	5.4497131e-08 	0.00059386757
0.57731959 	0.0014921259 	0.00015428753 	7.0749885e-07 	0.001515714 	1.5426327e-07 	0.00061356426
0.58762887 	0.0015291451 	0.00023440442 	9.7933511e-07 	0.0015585487 	1.8224601e-07 	0.00063317004
0.59793814 	0.0015629977 	0.00030711362 	1.5294883e-07 	0.001597749 	2.0013571e-08 	0.0006520063
0.60824742 	0.0015933321 	0.00037281892 	-9.1927364e-08 	0.0016317488 	-1.2114768e-07 	2.149643e-05
0.6185567 	0.0016195633 	0.00043109215 	2.5647617e-07 	0.0016636076 	1.2017496e-08 	0.00066962562
0.62886598 	0.0016425848 	0.00048364418 	4.9723209e-07 	0.0016906398 	-4.0113536e-08 	0.00068542279
0.63917526 	0.0016626162 	0.00053111068 	-6.7663689e-08 	0.0017132751 	-8.9341451e-08 	0.00015471604
0.64948454 	0.0016788041 	0.0005721742 	2.9318037e-07 	0.0017336372 	-8.3625289e-08 	0.00069902372
0.65979381 	0.0016924544 	0.00060892586 	8.5193447e-08 	0.0017500625 	-5.5044855e-08 	0.00070987874
0.67010309 	0.001702936 	0.00064056616 	-1.2456111e-08 	0.0017626072 	-1.7597127e-08 	0.00058294363
0.68041237 	0.0017105526 	0.0006674784 	1.9774214e-07 	0.0017723026 	-2.751383e-07 	0.00071763134
0.69072165 	0.0017159691 	0.00069090408 	-3.3802471e-08 	0.0017783703 	-5.16984e-08 	0.00029861027
0.70103093 	0.0017187792 	0.00071022814 	1.2875333e-07 	0.0017829646 	-4.5402771e-07 	0.00072193125
0.71134021 	0.0017197965 	0.00072675025 	-2.7927447e-08 	0.0017837466 	-4.8276257e-08 	0.00027627286
0.72164948 	0.0017187283 	0.00074002323 	1.3502848e-08 	0.0017837292 	-4.9194459e-07 	0.00072261817
0.73195876 	0.0017162282 	0.000750958 	-1.0899162e-08 	0.0017806724 	-2.2295243e-08 	0.0004867358
0.74226804 	0.0017120303 	0.00075968899 	-4.1835204e-08 	0.0017764544 	-3.529874e-07 	0.0007197942
0.75257732 	0.0017067653 	0.00076658699 	-2.5888721e-10 	0.0017704393 	-6.3711213e-10 	0.00071211386
0.7628866 	0.0017000496 	0.00077158239 	-4.5102666e-08 	0.0017626617 	-2.1756065e-07 	0.00071440986
0.77319588 	0.0016923812 	0.00077522872 	-6.3008382e-09 	0.0017537999 	-3.0393202e-08 	0.00071439297
0.78350515 	0.0016836821 	0.00077730432 	-7.2953425e-08 	0.0017437775 	-2.6986917e-07 	0.00070751562
0.79381443 	0.0016742961 	0.00077822566 	-3.6145089e-09 	0.0017325702 	-1.0946781e-08 	0.00054893234
0.80412371 	0.0016641392 	0.000778131 	-1.5779817e-07 	0.0017208938 	-5.2100642e-07 	0.00069987473
0.81443299 	0.0016536838 	0.00077718418 	-1.5250925e-08 	0.0017071181 	-4.0677662e-08 	7.7452355e-05
0.82474227 	0.0016425423 	0.00077493994 	-1.8595907e-07 	0.0016946411 	-4.9866757e-07 	0.0006919244
0.83505155 	0.0016311431 	0.00076985273 	-1.5189244e-08 	0.001680478 	-3.4603006e-08 	0.00068367963
0.84536082 	0.0016192175 	0.0007635393 	-7.6696671e-09 	0.0016649086 	-1.7604366e-08 	0.00039868092
0.8556701 	0.0016066217 	0.00075708525 	-2.1022699e-07 	0.0016494156 	-4.8084564e-07 	0.00067530081
0.86597938 	0.0015934856 	0.0007502204 	-8.9965814e-08 	0.0016326957 	-2.0549309e-07 	0.00066689804
0.87628866 	0.0015798214 	0.00074289888 	-1.144475e-08 	0.0016146172 	-2.6100113e-08 	0.00020451265
0.88659794 	0.0015659782 	0.00073574414 	-5.5428285e-09 	0.0015975094 	-1.2736276e-08 	0.00040696038
0.89690722 	0.0015533664 	0.00072906936 	-4.7136024e-08 	0.0015812754 	-1.0871857e-07 	0.00065103258
0.90721649 	0.0015449092 	0.00072397798 	-8.964416e-08 	0.0015677462 	-2.1359568e-07 	0.00064531443
0.91752577 	0.0015457539 	0.00072282594 	-5.6553051e-08 	0.0015619129 	-1.5181787e-07 	0.00064328698
0.92783505 	0.0015664103 	0.00073043396 	2.49931e-08 	0.0015740704 	2.7188134e-08 	0.00064812041
0.93814433 	0.0016286138 	0.00075712731 	2.9899997e-08 	0.0016269857 	5.9296427e-08 	0.00066547742
0.94845361 	0.0017825627 	0.0008267089 	8.5358044e-08 	0.0017720039 	1.8096379e-07 	0.00010656127
0.95876289 	0.0020927796 	0.00097254258 	4.7884906e-07 	0.0020782892 	9.9740791e-07 	0.00089058369
0.96907216 	0.00253254 	0.0011818512 	9.9287391e-08 	0.0025155147 	2.1750117e-07 	0.00033467584
0.97938144 	0.002749196 	0.0012935577 	-2.041448e-08 	0.0027386281 	-8.3451357e-08 	0.0011468621
0.98969072 	0.0016460124 	0.00077074857 	-1.0967107e-06 	0.0016426566 	-2.1502323e-06 	0.00072349148
