0.47826087 	0.0017637406 	-0.00082087231 	1.0784781e-08 	0.0017607037 	-2.2850216e-08 	0.00089265036
0.48913043 	0.0035601799 	-0.0016684703 	-2.7272683e-09 	0.0035454783 	1.0895118e-08 	0.0013949552
0.5 	0.0030353753 	-0.0014175924 	-4.5881753e-09 	0.0030145734 	1.0122035e-08 	0.0017471418
0.51086957 	0.0021278482 	-0.00099023544 	6.6454969e-07 	0.0021093617 	-1.3982514e-06 	0.0012692242
0.52173913 	0.0015521029 	-0.00070166921 	-1.4593414e-07 	0.0015334165 	1.8070931e-07 	0.00015204076
0.5326087 	0.0013304926 	-0.00047277069 	2.2886541e-07 	0.0013218093 	-1.1192317e-07 	0.00075030516
0.54347826 	0.0012858451 	-0.00029829766 	1.2260216e-06 	0.0012846244 	-1.9174911e-07 	0.00073508218
0.55434783 	0.0013022112 	-0.0001594362 	7.6533857e-07 	0.0013048296 	4.2744732e-08 	0.00074562915
0.56521739 	0.0013361076 	-4.5050398e-05 	6.4001646e-07 	0.0013460578 	1.0704043e-07 	0.00076584668
0.57608696 	0.0013750046 	5.2938165e-05 	8.2873507e-07 	0.0013908259 	1.692973e-07 	0.00079090662
0.58695652 	0.0014135757 	0.00013955547 	4.6979714e-07 	0.0014351175 	9.7086192e-08 	0.0008174886
0.59782609 	0.001450201 	0.00021738517 	-1.8440657e-08 	0.0014766819 	-2.5541149e-08 	0.00070686714
0.60869565 	0.0014840791 	0.00028771069 	-9.7073597e-08 	0.0015140872 	-1.3608487e-07 	0.00011199994
0.61956522 	0.0015144751 	0.00035085502 	-2.5430916e-08 	0.0015497451 	-3.5864472e-08 	0.00066631453
0.63043478 	0.0015417862 	0.00040802416 	6.0191526e-07 	0.001581265 	2.457721e-08 	0.00089465275
0.64130435 	0.0015661587 	0.00045996635 	-4.1983204e-08 	0.0016083605 	-5.9641781e-08 	0.00054655725
0.65217391 	0.0015871341 	0.00050630635 	-3.6436382e-08 	0.0016323711 	-5.2479588e-08 	0.00057390892
0.66304348 	0.0016050769 	0.00054768795 	3.1931505e-07 	0.0016536003 	-9.4932789e-08 	0.00093591729
0.67391304 	0.0016201227 	0.00058448075 	-7.603832e-08 	0.0016693256 	-1.1213373e-07 	0.00013689775
0.68478261 	0.0016322057 	0.00061683525 	1.7223628e-07 	0.001684824 	-1.1373971e-07 	0.00095137642
0.69565217 	0.0016416701 	0.00064510423 	-3.4904373e-08 	0.0016949575 	-5.3431054e-08 	0.00053379337
0.70652174 	0.0016485698 	0.0006696902 	2.7774339e-08 	0.0017038247 	-3.8866138e-08 	0.00096249026
0.7173913 	0.0016529986 	0.00069050597 	-2.0218337e-08 	0.0017084769 	-3.2653844e-08 	0.00067503842
0.72826087 	0.0016552554 	0.00070808068 	1.058038e-08 	0.001711757 	-3.8695884e-08 	0.00096871426
0.73913043 	0.0016553001 	0.00072240834 	-1.9398252e-08 	0.0017112345 	-3.3555905e-08 	0.00062787451
0.75 	0.0016537121 	0.00073447126 	1.9561707e-09 	0.0017101805 	-7.8637634e-08 	0.00096965619
0.76086957 	0.0016501542 	0.00074338746 	-1.6140611e-08 	0.0017055424 	-3.0109735e-08 	0.00061888664
0.77173913 	0.0016452161 	0.00075071825 	-5.1647037e-11 	0.0017006731 	-3.9644108e-10 	0.00096601509
0.7826087 	0.0016387339 	0.00075524863 	-4.0276298e-09 	0.0016931351 	-8.0639863e-09 	0.00085541836
0.79347826 	0.0016310782 	0.00075822063 	-1.1909166e-08 	0.0016837418 	-2.5759495e-08 	0.00059195299
0.80434783 	0.0016224267 	0.00076005848 	-9.4452964e-08 	0.0016741808 	-3.1137752e-07 	0.00095086242
0.81521739 	0.0016130455 	0.00075871507 	-2.4901056e-08 	0.0016611166 	-5.6503714e-08 	7.8916993e-05
0.82608696 	0.0016027868 	0.00075604917 	-3.7444865e-08 	0.0016501377 	-9.444711e-08 	0.00094124392
0.83695652 	0.0015919786 	0.00075055201 	-5.3569747e-08 	0.0016365461 	-1.2195965e-07 	0.00093096691
0.84782609 	0.0015807101 	0.00074431185 	-1.9802832e-08 	0.0016206075 	-4.4864894e-08 	0.00013225508
0.85869565 	0.0015689137 	0.00073835996 	-5.14512e-09 	0.0016064824 	-1.1691813e-08 	0.00069031522
0.86956522 	0.0015572633 	0.00073228083 	-1.2108622e-07 	0.0015917164 	-2.7734606e-07 	0.00091054362
0.88043478 	0.0015468787 	0.00072662039 	-7.1923647e-08 	0.0015775439 	-1.6680457e-07 	0.00090196497
0.89130435 	0.0015399359 	0.00072234661 	-1.0453687e-09 	0.0015659251 	-2.5573908e-09 	0.00080737855
0.90217391 	0.0015409526 	0.00072138179 	-2.7819388e-10 	0.0015606407 	-2.0148965e-09 	0.0005808056
0.91304348 	0.0015573167 	0.00072722012 	5.4601316e-09 	0.0015693758 	9.9245211e-09 	0.00055971424
0.92391304 	0.0016038133 	0.00074684764 	5.9412192e-09 	0.0016074685 	1.204104e-08 	0.00078716036
0.93478261 	0.0017123301 	0.00079536515 	2.4551075e-07 	0.0017079351 	5.1420812e-07 	0.00099368259
0.94565217 	0.0019315898 	0.00089621895 	2.9489608e-07 	0.0019210974 	6.2235727e-07 	0.0010936707
0.95652174 	0.0023001131 	0.0010686955 	1.662401e-07 	0.0022839698 	3.5616864e-07 	3.8185095e-05
0.9673913 	0.0027287288 	0.0012713703 	6.4934287e-09 	0.0027156436 	1.3868035e-08 	0.0015572755
0.97826087 	0.0028792805 	0.0013468274 	-1.5532089e-07 	0.0028712222 	-3.883663e-07 	0.001662959
0.98913043 	0.0017814971 	0.00083626005 	-1.4415011e-06 	0.0017787392 	-2.8729309e-06 	0.0010095849
