0.4709558481 	1.114687e-05 	-4.663477693e-07 	3.067347178e-11 	1.11665029e-05 	-5.30997608e-10 	2.12864581e-08
0.4720092239 	0.000816064197 	-0.0002553092215 	1.477490429e-08 	0.001012338445 	-5.015525425e-08 	1.929798441e-06
0.4730625996 	0.00524497993 	-0.003269175971 	1.31411128e-07 	0.01035873158 	-4.105065577e-07 	1.974662146e-05
0.4741159754 	0.01124664972 	-0.008544302883 	2.663654409e-07 	0.02645561416 	-8.084878491e-07 	5.043175354e-05
0.4751693511 	0.01501452261 	-0.01214156354 	2.950857918e-07 	0.03797455841 	-9.18527789e-07 	7.239006281e-05
0.4762227269 	0.01736197313 	-0.01396843944 	2.909124768e-07 	0.04443032407 	-9.372415646e-07 	8.469654644e-05
0.4778443634 	0.01884233295 	-0.01511181739 	2.863593737e-07 	0.04824833208 	-9.145573975e-07 	9.197473088e-05
0.4796765386 	0.01970067616 	-0.01561885471 	2.71515418e-07 	0.04965534263 	-8.651694264e-07 	9.465688405e-05
0.4817465869 	0.02010756106 	-0.01574532837 	2.485224138e-07 	0.04989542777 	-7.975275454e-07 	9.511455305e-05
0.4840853915 	0.02012872091 	-0.01571304226 	2.199162642e-07 	0.04964754668 	-7.144641087e-07 	9.46420228e-05
0.4867278453 	0.01989177428 	-0.01555189722 	1.839725785e-07 	0.04908304322 	-6.095994418e-07 	9.35659223e-05
0.4897133715 	0.01945450138 	-0.0152829065 	1.353807166e-07 	0.04826840914 	-4.795129265e-07 	9.201300334e-05
0.4930865115 	0.01886683259 	-0.01492366861 	7.774002765e-08 	0.04718733463 	-3.031621678e-07 	8.995217484e-05
0.4968975894 	0.01814313313 	-0.01447981563 	1.657374806e-08 	0.04583195181 	-9.424674377e-08 	8.736843849e-05
0.5012034633 	0.01733277357 	-0.01393534808 	-9.592574832e-08 	0.04412936266 	2.978645206e-07 	8.412283036e-05
0.506068373 	0.01638203052 	-0.01319899889 	-2.593244802e-07 	0.04179024991 	8.428471177e-07 	7.966383133e-05
0.5134203412 	0.01513758739 	-0.01219414358 	-4.334436685e-07 	0.03859293978 	1.441667394e-06 	7.356886958e-05
0.5212948542 	0.01369541862 	-0.01103567814 	-6.050574494e-07 	0.03485075079 	2.057937113e-06 	6.643521727e-05
0.529729052 	0.01234096502 	-0.00985961309 	-7.758137611e-07 	0.03092985402 	2.700432652e-06 	5.896089828e-05
0.5387627144 	0.01148340084 	-0.008622327163 	-9.469865915e-07 	0.02672701263 	3.26878444e-06 	5.094911445e-05
0.5484384488 	0.01112618091 	-0.007328080854 	-1.091944851e-06 	0.02250462925 	3.44992495e-06 	4.290007818e-05
0.5588018907 	0.01098267655 	-0.006054243106 	-1.202369303e-06 	0.01880501295 	3.177334065e-06 	3.584758127e-05
0.5699019192 	0.01098328801 	-0.004806553938 	-1.28381854e-06 	0.01585370057 	2.543215939e-06 	3.02215596e-05
0.5817908876 	0.01107115743 	-0.003590124275 	-1.342962515e-06 	0.01373596647 	1.734974466e-06 	2.61845698e-05
0.5945248701 	0.01121209396 	-0.002418216372 	-1.379085478e-06 	0.01238882928 	9.007194195e-07 	2.36165519e-05
0.6081639266 	0.01137053967 	-0.001294193895 	-1.39640357e-06 	0.01169978908 	1.345690932e-07 	2.230304977e-05
0.6227723857 	0.01151869301 	-0.0002177552818 	-1.400637084e-06 	0.01154838023 	-5.291156887e-07 	2.201442242e-05
0.638419148 	0.01163656109 	0.0008123118937 	-1.39144708e-06 	0.01183077669 	-1.087562576e-06 	2.255274856e-05
0.6551780116 	0.0117108757 	0.00179590219 	-1.365149202e-06 	0.01246576552 	-1.546477103e-06 	2.376321377e-05
0.6731280194 	0.01173439027 	0.00273097921 	-1.315873872e-06 	0.01339137033 	-1.906401141e-06 	2.552767379e-05
0.6923538328 	0.01170592235 	0.003614034967 	-1.236641929e-06 	0.01455870153 	-2.156711032e-06 	2.775293149e-05
0.7129461301 	0.01163132623 	0.004441558352 	-1.119952289e-06 	0.01592693959 	-2.274078905e-06 	3.036117353e-05
0.7350020349 	0.01152822087 	0.005200238633 	-9.618442396e-07 	0.01743458844 	-2.226512072e-06 	3.323517125e-05
0.7570579485 	0.01142780343 	0.005864773632 	-7.696684842e-07 	0.01897236552 	-1.999303707e-06 	3.616660178e-05
0.7776502527 	0.01135855078 	0.006432786528 	-5.583172517e-07 	0.0204546484 	-1.615050735e-06 	3.899224493e-05
0.7968760713 	0.01133521222 	0.006933029037 	-3.39657213e-07 	0.02187859155 	-1.112476653e-06 	4.170667633e-05
0.814826083 	0.01136360234 	0.007397397821 	-1.227655192e-07 	0.02328160764 	-5.316511961e-07 	4.438121495e-05
0.831584949 	0.01144390772 	0.007850470124 	8.351358636e-08 	0.0247068894 	8.433648492e-08 	4.709819813e-05
0.8472317127 	0.01157312897 	0.008308739821 	2.702860611e-07 	0.02619628279 	6.907482626e-07 	4.993739588e-05
0.8618401721 	0.01175216539 	0.008781351195 	4.305828155e-07 	0.02777656331 	1.241292065e-06 	5.294984977e-05
0.8754792281 	0.01198597162 	0.009279288372 	5.603765625e-07 	0.02945181709 	1.693816982e-06 	5.614334908e-05
0.8882132094 	0.0123134309 	0.009798158722 	6.518913418e-07 	0.03117550402 	2.014598172e-06 	5.942917544e-05
0.9001021759 	0.01281627038 	0.010312731 	7.00133419e-07 	0.03284468231 	2.189541015e-06 	6.261109319e-05
0.9112022019 	0.01344941007 	0.01082882845 	7.11648914e-07 	0.03447856137 	2.246409879e-06 	6.572572079e-05
0.9215656407 	0.01410347732 	0.01135667488 	6.862267769e-07 	0.03613380397 	2.190059777e-06 	6.888107323e-05
0.9312413717 	0.01474247842 	0.0118713724 	6.201152699e-07 	0.03776572482 	2.019558819e-06 	7.199196795e-05
0.9402750304 	0.01534238896 	0.01235222651 	5.408803292e-07 	0.03932013729 	1.757669619e-06 	7.495511015e-05
0.9487092242 	0.01589724906 	0.01280166459 	4.616489544e-07 	0.04073062959 	1.460016287e-06 	7.764390049e-05
0.9565837329 	0.01644923917 	0.01319278152 	3.469080504e-07 	0.04190410487 	1.040912397e-06 	7.988087053e-05
0.9639356968 	0.01705022874 	0.01345440482 	2.576125456e-07 	0.04263989471 	7.208049843e-07 	8.128349046e-05
0.9688006083 	0.01752601291 	0.01362219587 	2.267909147e-07 	0.04306875262 	6.227838013e-07 	8.210101284e-05
0.9731064834 	0.01781121048 	0.01376002082 	1.970373117e-07 	0.04341977601 	5.396910967e-07 	8.277016097e-05
0.976917562 	0.01801497615 	0.01385330521 	1.706274629e-07 	0.04365988168 	4.843510361e-07 	8.322786912e-05
0.9802907021 	0.01812858992 	0.01390062433 	1.524953049e-07 	0.0437877421 	4.398602208e-07 	8.347160662e-05
0.9832762282 	0.01813764671 	0.01390147931 	1.383318251e-07 	0.04378638137 	4.052380451e-07 	8.346901268e-05
0.9859186816 	0.01799629604 	0.01383513215 	1.275281857e-07 	0.04364770466 	3.788312628e-07 	8.320465634e-05
0.9882574856 	0.01764573051 	0.01367125548 	1.186721678e-07 	0.04329493051 	3.594443832e-07 	8.253217076e-05
0.990327533 	0.01698249842 	0.013371897 	1.117544057e-07 	0.04252206836 	3.436338561e-07 	8.105888068e-05
0.9921597073 	0.01593438028 	0.01274855604 	1.070484792e-07 	0.04068371497 	3.358798587e-07 	7.75544682e-05
0.9937813429 	0.01438175546 	0.01156135286 	1.006502444e-07 	0.0366563603 	3.20273583e-07 	6.987721084e-05
0.9948347186 	0.01211607839 	0.009715926547 	9.346204971e-08 	0.0303279385 	2.913464976e-07 	5.781348e-05
0.9958880943 	0.008681193731 	0.006401221998 	7.645084167e-08 	0.01985621954 	2.349930017e-07 	3.785147319e-05
0.9969414701 	0.003824166027 	0.002237654684 	3.421962327e-08 	0.007134049296 	1.07153724e-07 	1.359948076e-05
0.9979948458 	0.0005416262266 	0.0001486326908 	3.091851279e-09 	0.0006413998402 	1.133526615e-08 	1.222686363e-06
0.9990482216 	7.89163517e-06 	2.77640895e-07 	6.359300466e-12 	7.896093384e-06 	1.347920316e-10 	1.505214859e-08
0.9990482216 	7.89163517e-06 	2.77640895e-07 	6.359300466e-12 	7.896093384e-06 	1.347920316e-10 	1.505214859e-08
