3.197437928e-34 	0.02457305166 	-1.668876553e-15 	-6.065924554e-22 	1.133415982e-28 	4.119667105e-35 	1.497389954e-41
0.001920179623 	0.02454165646 	-0.0002452076035 	6.495426807e-08 	0.02814390458 	-3.721379362e-06 	5.365010433e-05
0.003840345101 	0.02452796004 	-0.000527951147 	1.653117277e-07 	0.02826995071 	-3.713690018e-06 	5.389038328e-05
0.005760496377 	0.02454141297 	-0.000785200559 	2.43598362e-07 	0.02831374502 	-3.682995992e-06 	5.397386741e-05
0.007680633441 	0.02453669681 	-0.00104388025 	3.196907817e-07 	0.0283735922 	-3.659638202e-06 	5.408795276e-05
0.009600756325 	0.02453507797 	-0.001339722193 	4.044297943e-07 	0.02844257937 	-3.643833761e-06 	5.421946148e-05
0.01255669343 	0.02453278589 	-0.00171853861 	5.070826447e-07 	0.02855350103 	-3.620709543e-06 	5.4430909e-05
0.01589636313 	0.0245301447 	-0.002170492417 	6.239206553e-07 	0.02872177293 	-3.613750288e-06 	5.475168202e-05
0.01966957619 	0.02452622633 	-0.002680441864 	7.478760394e-07 	0.0289573219 	-3.624552131e-06 	5.520070381e-05
0.02394927615 	0.02452011962 	-0.003255336974 	8.769495784e-07 	0.02928138881 	-3.651758907e-06 	5.58184654e-05
0.02878858959 	0.02451065982 	-0.003901826516 	1.009049102e-06 	0.029719353 	-3.704984104e-06 	5.665334689e-05
0.03425611113 	0.02449577694 	-0.004626618252 	1.140872334e-06 	0.03030208041 	-3.78751321e-06 	5.776418729e-05
0.04043338076 	0.0244724958 	-0.005437347418 	1.268170756e-06 	0.03106699802 	-3.89893903e-06 	5.922233285e-05
0.04744143031 	0.02443534851 	-0.006341919007 	1.38386778e-06 	0.03205891193 	-4.029031101e-06 	6.111319644e-05
0.05536094352 	0.02437245514 	-0.00734506924 	1.480881647e-06 	0.03333169446 	-4.174502514e-06 	6.35394737e-05
0.06432130776 	0.0242457204 	-0.008554310539 	1.567057757e-06 	0.03511719806 	-4.370658362e-06 	6.694313982e-05
0.0778967341 	0.0239927372 	-0.0100394769 	1.568949152e-06 	0.03766217561 	-4.438578388e-06 	7.179457438e-05
0.0924770317 	0.02353884956 	-0.01162422766 	1.488388432e-06 	0.040824088 	-4.387963156e-06 	7.78220582e-05
0.1081284109 	0.02278737214 	-0.01313057234 	1.28752917e-06 	0.04436704866 	-4.060032691e-06 	8.457592594e-05
0.12493365 	0.02171245761 	-0.01447040279 	9.855596396e-07 	0.04797783288 	-3.304044816e-06 	9.145908422e-05
0.1429796724 	0.02046836263 	-0.01548939898 	6.063367004e-07 	0.05104386633 	-2.139977244e-06 	9.730379614e-05
0.1623579926 	0.01972791763 	-0.01619255967 	2.699136919e-07 	0.05230860695 	-7.836178222e-07 	9.971474326e-05
0.179915767 	0.01943965638 	-0.01644624595 	1.077415764e-05 	0.05151992857 	-4.63073911e-05 	9.821130308e-05
0.1831652053 	0.01938655288 	-0.01649308268 	4.490879387e-08 	0.05137284869 	-9.578199515e-08 	9.793092794e-05
0.2055035143 	0.01863090419 	-0.0161812543 	2.464051151e-07 	0.04874870114 	-4.307870951e-07 	9.292857337e-05
0.2294813006 	0.01722919216 	-0.01515954115 	2.288440035e-07 	0.04447624523 	-1.988452568e-07 	8.478408494e-05
0.2552137277 	0.01515886237 	-0.01334319472 	-8.323199468e-08 	0.03865688916 	5.513307223e-07 	7.369077486e-05
0.2828241328 	0.01263134551 	-0.01082916711 	-5.461485434e-07 	0.03183217793 	1.355089926e-06 	6.068097844e-05
0.3124514441 	0.01066349403 	-0.008191468724 	-7.156372793e-07 	0.02462443182 	1.756897471e-06 	4.694101106e-05
0.3442271852 	0.009821876525 	-0.005982623132 	-4.884223868e-07 	0.01818647748 	1.275172173e-06 	3.466848074e-05
0.3783059509 	0.00954411104 	-0.004225940326 	-1.867862452e-07 	0.01374315511 	1.281386291e-07 	2.619827336e-05
0.4148445556 	0.00951845461 	-0.002768445796 	5.951810608e-08 	0.01117871948 	-6.037454897e-07 	2.130974629e-05
0.454012114 	0.009668257064 	-0.001414789176 	1.585165152e-07 	0.009915820749 	-8.456911167e-07 	1.890231031e-05
0.4959899515 	0.009912498426 	-7.111827833e-05 	1.686130442e-07 	0.009642763762 	-8.090566388e-07 	1.83817878e-05
0.5379865561 	0.0101741524 	0.001226964535 	1.4403223e-07 	0.01018955609 	-6.685233712e-07 	1.942412596e-05
0.577207568 	0.01041674257 	0.002425387612 	1.299678561e-07 	0.01134607809 	-4.773921726e-07 	2.162877833e-05
0.6138321997 	0.01064041744 	0.003531321577 	1.435855114e-07 	0.01294629926 	-2.358779228e-07 	2.467924463e-05
0.6480299089 	0.01085965691 	0.004572489392 	1.848586088e-07 	0.01490499774 	6.682557797e-08 	2.841306833e-05
0.6799601987 	0.01109192166 	0.00557366124 	2.442081404e-07 	0.01718479048 	4.265837652e-07 	3.275898691e-05
0.7097727691 	0.01135370845 	0.006552602317 	3.070224379e-07 	0.01976323565 	8.091009089e-07 	3.767422006e-05
0.7376075325 	0.01165697251 	0.007518103892 	3.477993847e-07 	0.02260751811 	1.148061257e-06 	4.309621296e-05
0.7635955286 	0.01201042667 	0.008463945368 	3.497309097e-07 	0.02565236619 	1.321768972e-06 	4.890053966e-05
0.787859151 	0.01242691328 	0.00938071899 	2.983768853e-07 	0.02876951661 	1.247413007e-06 	5.484269474e-05
0.8105127434 	0.01293087737 	0.01024297928 	1.363191531e-07 	0.03176837133 	7.402515616e-07 	6.055934531e-05
0.831663108 	0.01361915437 	0.01097755316 	-1.064140271e-07 	0.03434680237 	7.990902485e-09 	6.547455151e-05
0.8514099765 	0.0143600932 	0.01156276198 	-3.714144623e-07 	0.03640810147 	-8.639033007e-07 	6.94039605e-05
0.8698464725 	0.01490308717 	0.01199785949 	-6.965363763e-07 	0.0379413301 	-2.001702846e-06 	7.232672042e-05
0.8870595453 	0.01534421405 	0.01218691309 	-1.178655394e-06 	0.03861097663 	-3.723875299e-06 	7.360325281e-05
0.9031303776 	0.01577092182 	0.0120772853 	-1.579299697e-06 	0.03823541424 	-5.201521561e-06 	7.288732652e-05
0.9181347659 	0.01601826025 	0.01172257707 	-1.705998683e-06 	0.03702639131 	-5.67568844e-06 	7.058259279e-05
0.9321434779 	0.01601502454 	0.0112032216 	-1.704400283e-06 	0.03530996087 	-5.646528349e-06 	6.731059931e-05
0.9414132658 	0.0158125274 	0.01066697929 	-1.605476539e-06 	0.03357035909 	-5.249653398e-06 	6.399443481e-05
0.9496178443 	0.01544844825 	0.01017635715 	-1.438567261e-06 	0.03198192032 	-4.70741297e-06 	6.096642904e-05
0.9568796188 	0.01496382484 	0.009700871944 	-1.240498919e-06 	0.03044269784 	-4.076086867e-06 	5.80322432e-05
0.9633069287 	0.01437738 	0.009254903349 	-1.029420567e-06 	0.0289974689 	-3.403467739e-06 	5.527723515e-05
0.9689956638 	0.0137072391 	0.008847798915 	-8.199122219e-07 	0.02766716976 	-2.723759487e-06 	5.274131526e-05
0.9740306954 	0.01295590791 	0.008480791185 	-6.235713098e-07 	0.02647403889 	-2.063222046e-06 	5.04668762e-05
0.9784871417 	0.01211413578 	0.008132556464 	-4.479720145e-07 	0.02543219076 	-1.449605559e-06 	4.848082409e-05
0.982431489 	0.01118492856 	0.007804615779 	-2.977245278e-07 	0.02445679052 	-9.076440436e-07 	4.662144014e-05
0.9859225838 	0.010079664 	0.007433814501 	-1.763667878e-07 	0.02344018772 	-4.661986662e-07 	4.468351267e-05
0.98901251 	0.008975562942 	0.006841397827 	-7.979772377e-08 	0.02166963678 	-1.52116251e-07 	4.130835046e-05
0.9910196523 	0.007779202825 	0.006055726987 	-1.068137279e-08 	0.01888532909 	3.835203508e-08 	3.600068616e-05
0.9930267946 	0.005921873033 	0.004521104809 	3.254754984e-08 	0.01392555658 	1.355542567e-07 	2.654598125e-05
0.9950339369 	0.002755935074 	0.001818953517 	2.875003509e-08 	0.005715517108 	9.255775838e-08 	1.089536415e-05
0.9970410793 	0.0003696822792 	0.0001204738659 	3.686376759e-09 	0.0004661254764 	9.835038322e-09 	8.885647109e-07
0.9990482216 	2.975515401e-06 	9.993823211e-08 	4.028866245e-12 	2.976978742e-06 	5.877976965e-11 	5.674948891e-09
0.9990482216 	2.975515401e-06 	9.993823211e-08 	4.028866245e-12 	2.976978742e-06 	5.877976965e-11 	5.674948891e-09
