0.2472849305 	1.444385364e-05 	-9.48359446e-07 	-2.897211351e-09 	1.34694015e-05 	5.225059979e-08 	2.567642289e-08
0.2487094669 	0.001498465648 	-0.0006969704925 	-1.263771048e-06 	0.001516074969 	4.495648784e-06 	2.890060263e-06
0.2501340182 	0.008324860925 	-0.005671784397 	-1.448382897e-05 	0.01007744784 	3.472222848e-05 	1.921041647e-05
0.2515582136 	0.01385006583 	-0.01012214789 	-2.851511364e-05 	0.01752783973 	5.886491891e-05 	3.341293413e-05
0.2529816857 	0.01299542806 	-0.00926591196 	-2.802133361e-05 	0.01722189691 	4.608272769e-05 	3.282972208e-05
0.2544040707 	0.01155064357 	-0.00745077136 	-2.440792854e-05 	0.01591396737 	1.552205414e-05 	3.033644486e-05
0.2565908305 	0.01134542634 	-0.005464150272 	-2.103539145e-05 	0.01506528399 	-2.10153012e-05 	2.871861846e-05
0.2590557457 	0.01162407769 	-0.003470930687 	-1.530022669e-05 	0.01541438619 	-4.372215426e-05 	2.938410428e-05
0.2618311143 	0.01167940907 	-0.002180434989 	-9.302222346e-06 	0.01655099926 	-4.647238019e-05 	3.15508047e-05
0.2649514479 	0.01155946542 	-0.001329340629 	-4.466503733e-06 	0.0175704624 	-3.815098545e-05 	3.34941848e-05
0.2685402304 	0.01129493097 	-0.0007574963709 	-3.63332692e-07 	0.01817137865 	-2.721228006e-05 	3.463969818e-05
0.2726074998 	0.01095808421 	-0.0004242268089 	2.320650575e-06 	0.01828899709 	-1.80661287e-05 	3.486391162e-05
0.2771758575 	0.0105838766 	-0.0002731498678 	3.166128613e-06 	0.01810765632 	-1.180207614e-05 	3.45182257e-05
0.2823040561 	0.01022841125 	-0.0002300981612 	2.86688912e-06 	0.01776452873 	-7.628974305e-06 	3.386412915e-05
0.28818069 	0.009914617506 	-0.0002233583702 	2.154252696e-06 	0.0173759206 	-4.695298479e-06 	3.312333404e-05
0.2948278042 	0.009613458495 	-0.0002335816132 	1.263937616e-06 	0.01698037999 	-2.380701167e-06 	3.236932372e-05
0.3039520189 	0.009352385424 	-0.0002408925491 	-1.256628589e-07 	0.01666772059 	-3.283382153e-06 	3.1773308e-05
0.3048289965 	0.009325823159 	-0.0002423916152 	9.092068132e-08 	0.0166360337 	-1.903024584e-07 	3.171290398e-05
0.3153909723 	0.009092542627 	-0.0002564626469 	1.1961023e-06 	0.01639152658 	-2.097829158e-06 	3.124680545e-05
0.3267808322 	0.008933588392 	-0.0002752594268 	2.463723599e-06 	0.01627068116 	-3.594495199e-06 	3.10164405e-05
0.3390183242 	0.008828596869 	-0.0002985929292 	3.913733082e-06 	0.01625340618 	-4.718342436e-06 	3.098350957e-05
0.3522090375 	0.008767339556 	-0.0003228339409 	5.57354345e-06 	0.01633000873 	-5.505324602e-06 	3.112953532e-05
0.3664845753 	0.008741284543 	-0.0003472409818 	7.475912902e-06 	0.01649547365 	-5.990549475e-06 	3.144495745e-05
0.3818620373 	0.008742384772 	-0.0003707474451 	9.634139343e-06 	0.01674600671 	-6.12976783e-06 	3.19225431e-05
0.3984348019 	0.008764306118 	-0.000391728934 	1.158263e-05 	0.01708373576 	-5.747610439e-06 	3.256634855e-05
0.4162929946 	0.008798662366 	-0.0004084168277 	1.067090745e-05 	0.01751034521 	-4.008682314e-06 	3.337958472e-05
0.4355739439 	0.008837699255 	-0.0004180888709 	9.606429494e-06 	0.01803133303 	-2.666984329e-06 	3.43727323e-05
0.4563323823 	0.008873453647 	-0.0004175198165 	8.396594727e-06 	0.01864933722 	-1.71327157e-06 	3.555082006e-05
0.4786466123 	0.008901925422 	-0.0004036248348 	7.062377475e-06 	0.01936759044 	-1.116012134e-06 	3.692001032e-05
0.5026835755 	0.008919542394 	-0.0003721399082 	5.640730504e-06 	0.02018453455 	-7.927726633e-07 	3.847733285e-05
0.5284859607 	0.008923935212 	-0.0003150485059 	4.208896083e-06 	0.02110347336 	-6.374378641e-07 	4.022908564e-05
0.5561749938 	0.008904797747 	-0.0002158394284 	2.845694756e-06 	0.02212594943 	-5.566822814e-07 	4.217820921e-05
0.5858631148 	0.008851620888 	-4.995400026e-05 	1.65178663e-06 	0.0232519394 	-4.706961774e-07 	4.432465904e-05
0.6176648077 	0.008762981366 	0.0002036176516 	7.55809593e-07 	0.02443731442 	-3.245946621e-07 	4.658431329e-05
0.6494508416 	0.008656764074 	0.0005392441849 	2.761207808e-07 	0.02557687076 	-1.733928954e-07 	4.875662438e-05
0.6791106475 	0.008552212554 	0.000933504297 	1.341802764e-07 	0.02657998265 	-1.190248191e-07 	5.066883446e-05
0.7067905922 	0.008459214074 	0.00136775916 	1.580258489e-07 	0.02741486587 	-1.989164551e-07 	5.226035392e-05
0.7326288344 	0.00838653103 	0.00182133802 	1.990509687e-07 	0.02807304351 	-3.628497863e-07 	5.351502343e-05
0.7567541468 	0.008335182223 	0.002278341207 	1.556048779e-07 	0.02855780726 	-4.711233351e-07 	5.443911787e-05
0.7792862258 	0.008301179592 	0.00272866522 	1.171894928e-08 	0.02887755931 	-4.500182892e-07 	5.504865415e-05
0.8003336001 	0.008324699759 	0.003175320724 	-2.005441491e-07 	0.0289889367 	-3.167877648e-07 	5.52609704e-05
0.8199971472 	0.008400835105 	0.003606601319 	-4.410999893e-07 	0.02890430617 	-5.915787925e-08 	5.509964109e-05
0.8383693647 	0.008521693607 	0.004012134428 	-6.325933146e-07 	0.02864156351 	1.3840685e-07 	5.459878056e-05
0.8555361083 	0.008679598091 	0.004385908075 	-7.448349747e-07 	0.028219724 	1.511383175e-07 	5.379463721e-05
0.8715768547 	0.008826913182 	0.004714482305 	-8.105616307e-07 	0.02770749564 	1.121396269e-07 	5.281818758e-05
0.8865654396 	0.008957157436 	0.005001871102 	-8.386768373e-07 	0.02712716236 	4.642113576e-08 	5.171191106e-05
0.9005706783 	0.009066209292 	0.005253371428 	-8.42651154e-07 	0.02649944 	-2.336361606e-08 	5.051529778e-05
0.913656745 	0.009151629197 	0.005473827412 	-8.225234491e-07 	0.02584222927 	-1.054011868e-07 	4.926247147e-05
0.9258835601 	0.00921463037 	0.005673721411 	-7.851516341e-07 	0.0251618112 	-2.105430216e-07 	4.796540551e-05
0.9373071183 	0.009246500656 	0.005856138313 	-7.372243754e-07 	0.02447538218 	-3.470109671e-07 	4.665688102e-05
0.9479797699 	0.009294698754 	0.005989464398 	-6.807979095e-07 	0.02377805957 	-4.91827501e-07 	4.532759032e-05
0.9550458569 	0.009327494501 	0.00608229396 	-6.173886576e-07 	0.0231873245 	-5.996598248e-07 	4.420148508e-05
0.9613025204 	0.009300128255 	0.006167725091 	-5.461927308e-07 	0.02274647632 	-6.289310442e-07 	4.336110592e-05
0.9668422226 	0.009253550338 	0.006243957867 	-4.526236616e-07 	0.02236932896 	-5.67554461e-07 	4.264215822e-05
0.9717469214 	0.009185068752 	0.00631486095 	-3.310178109e-07 	0.0220656414 	-3.897407151e-07 	4.206324533e-05
0.9760892456 	0.009089792141 	0.006387124422 	-1.753055617e-07 	0.02184555265 	-6.405317389e-08 	4.164369501e-05
0.9799335525 	0.008951127252 	0.006454855551 	6.756172648e-09 	0.02173020651 	4.371268228e-07 	4.14238132e-05
0.9833368611 	0.008758713694 	0.006515546277 	2.332070046e-07 	0.0216946481 	1.068167193e-06 	4.135602899e-05
0.9863496834 	0.008470881113 	0.006561490364 	4.983967151e-07 	0.02166598084 	1.815319151e-06 	4.130138123e-05
0.9890167622 	0.008125509863 	0.006474988819 	6.936473689e-07 	0.02125654485 	2.296899684e-06 	4.052088243e-05
0.9913777266 	0.007607322229 	0.006114389816 	7.923222118e-07 	0.01980120784 	2.395154675e-06 	3.774660561e-05
0.9929115363 	0.006685747979 	0.005442093477 	7.808173797e-07 	0.0171208414 	2.221025562e-06 	3.26370822e-05
0.9944454907 	0.004979686045 	0.003835084255 	4.539219785e-07 	0.01187886074 	1.275526502e-06 	2.264441014e-05
0.9959795897 	0.002208176556 	0.001409408851 	9.934298099e-08 	0.004477194579 	3.170402283e-07 	8.534777239e-06
0.9975138333 	0.0002886787161 	8.831545754e-05 	1.288853496e-08 	0.0003549400933 	5.40528838e-08 	6.766144683e-07
0.9990482216 	2.894890539e-06 	1.04805525e-07 	6.25773804e-11 	2.897425984e-06 	1.379932103e-09 	5.523299224e-09
0.9990482216 	2.894890539e-06 	1.04805525e-07 	6.25773804e-11 	2.897425984e-06 	1.379932103e-09 	5.523299224e-09
