0.4690207273 	1.064176896e-05 	-4.39669186e-07 	9.259025859e-12 	1.068005556e-05 	2.64590417e-10 	2.035915425e-08
0.4690207273 	1.064176896e-05 	-4.39669186e-07 	9.259025859e-12 	1.068005556e-05 	2.64590417e-10 	2.035915425e-08
0.4700518427 	0.0007656897428 	-0.0002348234039 	1.447742313e-08 	0.0009553873055 	4.730834892e-08 	1.82123374e-06
0.4710829708 	0.004937927612 	-0.00303723215 	3.247919305e-07 	0.009885850973 	6.892892189e-07 	1.884517958e-05
0.4721141081 	0.01064729095 	-0.008040784298 	9.112463046e-07 	0.0256367025 	2.013425812e-06 	4.887068032e-05
0.4731452512 	0.01429772825 	-0.01154502382 	1.327109776e-06 	0.03720320532 	3.028891522e-06 	7.091964944e-05
0.4741763967 	0.01659967847 	-0.01333045152 	1.584124553e-06 	0.04370020429 	3.411788054e-06 	8.330473521e-05
0.475763807 	0.01804506152 	-0.01443221291 	1.752689279e-06 	0.04753872728 	3.478467455e-06 	9.062202689e-05
0.4775572933 	0.01889723763 	-0.01492264479 	1.820477779e-06 	0.04893725917 	3.156886128e-06 	9.328801738e-05
0.4795835831 	0.01934717963 	-0.01504462527 	1.879597663e-06 	0.04914700461 	2.537845691e-06 	9.368785048e-05
0.481879263 	0.01943805952 	-0.01501971904 	1.918701666e-06 	0.04889567679 	1.862595343e-06 	9.320874982e-05
0.4844744806 	0.01929564121 	-0.01488157294 	1.924280391e-06 	0.04836595919 	1.203862144e-06 	9.219896084e-05
0.4874065619 	0.01897209442 	-0.01465404787 	1.890965041e-06 	0.04763796424 	6.473097324e-07 	9.081120012e-05
0.4907192246 	0.01850812287 	-0.01435835849 	1.804718066e-06 	0.04670799479 	2.008094651e-07 	8.903841988e-05
0.4944728854 	0.0179134861 	-0.01398976393 	1.667911421e-06 	0.04557567564 	-1.714034273e-07 	8.687990487e-05
0.4987143778 	0.01719423844 	-0.01354605186 	1.494455499e-06 	0.04421847521 	-5.341591171e-07 	8.429270364e-05
0.5035112163 	0.01620870136 	-0.01299779926 	1.271247491e-06 	0.04251666582 	-9.331974085e-07 	8.104858194e-05
0.5107730215 	0.01502596966 	-0.0122424405 	9.756222142e-07 	0.04006710955 	-1.262919323e-06 	7.637904688e-05
0.5185656539 	0.01389620251 	-0.01129741233 	6.307967395e-07 	0.03686998533 	-1.280196154e-06 	7.028443953e-05
0.5269247196 	0.01291029432 	-0.01027006476 	3.066098344e-07 	0.0332499947 	-1.121310566e-06 	6.338373126e-05
0.5358928449 	0.01214016256 	-0.009180000489 	1.048482158e-07 	0.02933328323 	-1.162764188e-06 	5.59173906e-05
0.5455150046 	0.01159700071 	-0.008032597863 	8.437946306e-08 	0.0253397151 	-1.493167553e-06 	4.83045398e-05
0.5558387535 	0.01126804664 	-0.006835969836 	2.42372043e-07 	0.02150545605 	-1.994214207e-06 	4.099537636e-05
0.5669144801 	0.01110537366 	-0.005599851188 	5.555150707e-07 	0.01807347188 	-2.594610281e-06 	3.445306066e-05
0.5787956804 	0.01105557867 	-0.004344242769 	9.889995262e-07 	0.01522720369 	-3.232054009e-06 	2.902728242e-05
0.5915392544 	0.01108579334 	-0.003086730461 	1.496080031e-06 	0.01305037768 	-3.820570137e-06 	2.487764702e-05
0.6052058224 	0.0111676224 	-0.001844313639 	2.022517369e-06 	0.01154707115 	-4.270200421e-06 	2.201192695e-05
0.6198603429 	0.01127301394 	-0.0006342044348 	2.505242852e-06 	0.01066886506 	-4.500450429e-06 	2.033782206e-05
0.6355749705 	0.01137927102 	0.0005306132367 	2.876301734e-06 	0.01034632537 	-4.475392351e-06 	1.972297177e-05
0.6524206021 	0.01147163609 	0.001641219099 	3.065237495e-06 	0.01051114371 	-4.22262634e-06 	2.003716133e-05
0.6704783553 	0.01154303125 	0.002694122587 	3.020508639e-06 	0.01110598328 	-3.846962073e-06 	2.117109088e-05
0.6898319307 	0.01158793335 	0.003692185063 	2.753048007e-06 	0.01209141947 	-3.518428206e-06 	2.304960614e-05
0.7105714937 	0.01159535728 	0.004640838835 	2.360423097e-06 	0.01345277819 	-3.377335635e-06 	2.564473423e-05
0.7327937836 	0.01155912329 	0.005525377272 	1.986597603e-06 	0.01516323372 	-3.442739876e-06 	2.890533787e-05
0.7550223282 	0.01150916128 	0.006312112019 	1.733871424e-06 	0.01709528541 	-3.716775524e-06 	3.258836538e-05
0.7757797241 	0.01149054964 	0.006999756261 	1.678845333e-06 	0.01909234209 	-4.06241213e-06 	3.639531046e-05
0.7951620546 	0.01161445954 	0.007598420365 	1.887250886e-06 	0.02099261661 	-3.950400607e-06 	4.001776185e-05
0.8132596963 	0.01187781884 	0.00815480145 	2.231885792e-06 	0.02280536556 	-3.193221271e-06 	4.347336519e-05
0.8301574244 	0.01216739539 	0.008720001073 	2.48509457e-06 	0.02466349611 	-2.270173851e-06 	4.701547845e-05
0.8459346261 	0.01247122225 	0.009283416079 	2.558483768e-06 	0.02658298243 	-1.595454822e-06 	5.067455287e-05
0.86066544 	0.01280807639 	0.00983364082 	2.546442533e-06 	0.02853930436 	-1.213449696e-06 	5.440384621e-05
0.8744192184 	0.01319434799 	0.01037361547 	2.51617008e-06 	0.03049393709 	-9.482987219e-07 	5.812991944e-05
0.8872607168 	0.0136551708 	0.01089690253 	2.322007799e-06 	0.03238729031 	-1.118347109e-06 	6.173917691e-05
0.8992504152 	0.01419929643 	0.0113933865 	2.112304706e-06 	0.0341724784 	-1.312282957e-06 	6.514224157e-05
0.9104447947 	0.01477034668 	0.01186883313 	2.037073279e-06 	0.03586806965 	-1.138960866e-06 	6.837450977e-05
0.9208965944 	0.0153184259 	0.01232352991 	1.925110318e-06 	0.03747897846 	-1.026993119e-06 	7.144534969e-05
0.9306550585 	0.01584002597 	0.0127451363 	1.752063874e-06 	0.03896765628 	-9.902588467e-07 	7.428318336e-05
0.9397661676 	0.01635020685 	0.01311619354 	1.574651202e-06 	0.04029741247 	-9.515829972e-07 	7.681806825e-05
0.9482728542 	0.01686857263 	0.01343900604 	1.417396585e-06 	0.04142792167 	-8.123187085e-07 	7.897313299e-05
0.9562152047 	0.01734296992 	0.0137233775 	1.262117498e-06 	0.04240071664 	-6.419811896e-07 	8.082755059e-05
0.9636306481 	0.0178053221 	0.01391069528 	1.124269769e-06 	0.04306005694 	-4.264941952e-07 	8.208443645e-05
0.9685376396 	0.01816385451 	0.01402075705 	1.020611445e-06 	0.04345665142 	-2.039313247e-07 	8.284045576e-05
0.9728808087 	0.01835064253 	0.01411475289 	9.467875393e-07 	0.0438011764 	2.853918237e-08 	8.349721613e-05
0.9767249346 	0.01847068638 	0.01417218022 	8.821775544e-07 	0.04404347276 	2.639186548e-07 	8.395910033e-05
0.9801273551 	0.01851400592 	0.01418896747 	8.207065829e-07 	0.04417823381 	4.774174956e-07 	8.421599235e-05
0.9831388207 	0.01846462138 	0.01416245247 	7.541511784e-07 	0.04418356111 	6.394242341e-07 	8.422614765e-05
0.9858042517 	0.01827509737 	0.01406995457 	6.728188071e-07 	0.04404505745 	7.121998139e-07 	8.396212119e-05
0.9881634075 	0.01788437393 	0.01387827137 	5.636006368e-07 	0.04367955769 	6.651156015e-07 	8.326537706e-05
0.9902514797 	0.01718724614 	0.0135477467 	4.216039089e-07 	0.0428728053 	4.713822924e-07 	8.172748278e-05
0.9920996164 	0.01610238442 	0.01288986008 	2.568504258e-07 	0.04098252733 	1.701988501e-07 	7.81240876e-05
0.9937353873 	0.0145164014 	0.01166625114 	8.508570889e-08 	0.03688560494 	-1.883681891e-07 	7.031421485e-05
0.9947979485 	0.01222180619 	0.009788729435 	-5.990377487e-08 	0.0304862528 	-4.923742433e-07 	5.811527106e-05
0.9958605126 	0.008748898016 	0.006441649804 	-1.478681901e-07 	0.01995055725 	-5.879072155e-07 	3.80313071e-05
0.9969230794 	0.003848463195 	0.002247879697 	-1.056383343e-07 	0.007163981591 	-3.37442104e-07 	1.365654004e-05
0.9979856491 	0.0005426533392 	0.0001478982674 	-1.755422246e-08 	0.0006412298955 	-5.080799232e-08 	1.222362401e-06
0.9990482216 	7.72695446e-06 	2.663585237e-07 	-6.426462275e-11 	7.730283683e-06 	-8.862941589e-10 	1.473606922e-08
