0.2739420079 	1.801419053e-05 	-1.145162732e-06 	-6.08256545e-10 	1.700888058e-05 	2.200005883e-08 	3.242365375e-08
0.275272557 	0.001738034132 	-0.0007843995561 	5.285231741e-07 	0.001824989595 	9.164862642e-07 	3.478937397e-06
0.2766031854 	0.009632139397 	-0.006702965067 	-1.709741845e-06 	0.01267111835 	1.726547075e-05 	2.415467333e-05
0.2779335901 	0.01657425986 	-0.01249660151 	-1.513562612e-05 	0.02274008124 	4.822467429e-05 	4.334891513e-05
0.2792634708 	0.01589415791 	-0.01198103505 	-2.563318018e-05 	0.02266357467 	6.10708696e-05 	4.320307233e-05
0.2805925299 	0.01324274476 	-0.009753852921 	-2.165609331e-05 	0.01986055695 	4.513174051e-05 	3.78597415e-05
0.2826362867 	0.01171553299 	-0.007377768476 	-1.828353983e-05 	0.01668195262 	1.36338812e-05 	3.18004382e-05
0.2849408702 	0.01141482397 	-0.005037517668 	-1.70984835e-05 	0.01499451549 	-1.759668868e-05 	2.858371403e-05
0.2875370716 	0.01147402554 	-0.00333558681 	-1.330731853e-05 	0.01514376764 	-3.506565242e-05 	2.886823011e-05
0.2904580691 	0.01149254909 	-0.002159258134 	-1.006411356e-05 	0.01606807542 	-3.815380581e-05 	3.063021763e-05
0.2938196317 	0.01137542417 	-0.001289248721 	-6.858969681e-06 	0.01706201639 	-3.249124203e-05 	3.252494538e-05
0.2976320779 	0.01116386612 	-0.0006344963644 	-3.037964176e-06 	0.01772720017 	-2.369503989e-05 	3.379297054e-05
0.3019179803 	0.01086966979 	-0.0002024037208 	1.813520305e-07 	0.01799925094 	-1.60721692e-05 	3.431157493e-05
0.3067337774 	0.0105212517 	6.545649175e-06 	1.700666109e-06 	0.01796436983 	-1.053756551e-05 	3.424508184e-05
0.3122569715 	0.01017515204 	7.745924655e-05 	1.876268e-06 	0.01776392071 	-6.680535413e-06 	3.386297009e-05
0.3185112727 	0.009855277152 	9.141169902e-05 	1.529602128e-06 	0.01747769558 	-3.95422273e-06 	3.331734545e-05
0.3279565291 	0.009567583318 	8.739702608e-05 	7.20190458e-07 	0.01716945849 	-1.507401976e-06 	3.272975988e-05
0.3358853299 	0.009387051288 	8.584846604e-05 	-2.521838402e-07 	0.01699337098 	-6.819122052e-06 	3.239408815e-05
0.3381259885 	0.009333430284 	8.442310846e-05 	1.666296313e-07 	0.01694145788 	-3.514171599e-07 	3.229512736e-05
0.3489508731 	0.009158583296 	7.649097175e-05 	9.932858387e-07 	0.01682711261 	-1.754550605e-06 	3.207715349e-05
0.3605981766 	0.009034873798 	6.563257172e-05 	1.95394036e-06 	0.01681428101 	-2.866440867e-06 	3.20526929e-05
0.3731708885 	0.008952321764 	5.54420259e-05 	3.064572666e-06 	0.01689358258 	-3.712028176e-06 	3.220386372e-05
0.3867969958 	0.008901564772 	4.676018401e-05 	4.346330807e-06 	0.01705945691 	-4.31838117e-06 	3.252006629e-05
0.4014972221 	0.008875613335 	4.071561202e-05 	5.814233701e-06 	0.017310519 	-4.687625397e-06 	3.299866042e-05
0.4173643717 	0.008867422451 	3.891258931e-05 	7.4818689e-06 	0.01764653535 	-4.844163759e-06 	3.363920099e-05
0.4344885207 	0.008870210007 	4.309756884e-05 	9.355631221e-06 	0.0180697567 	-4.807584369e-06 	3.44459785e-05
0.4530046648 	0.008877689169 	5.571728715e-05 	9.0206528e-06 	0.01858279232 	-3.673868459e-06 	3.542396697e-05
0.4729699124 	0.008885299672 	7.922567546e-05 	8.3372106e-06 	0.01918617628 	-2.731503235e-06 	3.657418451e-05
0.4944634565 	0.008892126199 	0.0001155031366 	7.551909985e-06 	0.01988000908 	-2.091264369e-06 	3.789682267e-05
0.5176484568 	0.008896815002 	0.0001674184395 	6.688983298e-06 	0.02066156791 	-1.684461616e-06 	3.938669101e-05
0.542569778 	0.008897177218 	0.0002417309722 	5.799519983e-06 	0.02153308052 	-1.465387363e-06 	4.104803629e-05
0.5693462178 	0.008884469707 	0.00035123214 	4.922474198e-06 	0.02249426416 	-1.38886891e-06 	4.288031944e-05
0.5980874262 	0.00885071946 	0.0005138308786 	4.095910698e-06 	0.02354218734 	-1.431522702e-06 	4.487795228e-05
0.6289040372 	0.00879364619 	0.0007441232703 	3.369786505e-06 	0.02463594167 	-1.547843093e-06 	4.696295203e-05
0.6597287896 	0.008722710838 	0.00103617218 	2.810928888e-06 	0.02568295319 	-1.718463558e-06 	4.8958847e-05
0.6885070106 	0.008649210016 	0.001370967447 	2.391014565e-06 	0.02660307458 	-1.939859279e-06 	5.071285408e-05
0.7153735372 	0.008579404971 	0.001734891667 	2.031083616e-06 	0.02736931021 	-2.189176377e-06 	5.217351217e-05
0.7404577418 	0.008517589636 	0.002115542163 	1.694623151e-06 	0.02797730168 	-2.429844091e-06 	5.333251289e-05
0.763881608 	0.008464183977 	0.002501115344 	1.35519613e-06 	0.02843010721 	-2.644196393e-06 	5.419568609e-05
0.7857594625 	0.008418462223 	0.002881371863 	9.793598139e-07 	0.0287329751 	-2.823037977e-06 	5.477303645e-05
0.8061955834 	0.008385585051 	0.003251496949 	4.783922537e-07 	0.02888457355 	-2.571970149e-06 	5.506202524e-05
0.8252873287 	0.00836356807 	0.003610734155 	-8.183274997e-08 	0.02889216033 	-1.800169099e-06 	5.507648775e-05
0.8431242394 	0.008390371274 	0.003964599197 	-5.551850967e-07 	0.0287200344 	-8.684564322e-07 	5.474836788e-05
0.8597896056 	0.008502808718 	0.004311868808 	-8.508571118e-07 	0.02833683215 	-2.883559657e-07 	5.401787789e-05
0.8753606451 	0.008655766302 	0.004635925188 	-9.369425853e-07 	0.02780659205 	-2.770793223e-07 	5.300709288e-05
0.8899091601 	0.008801300816 	0.004926053888 	-9.41831147e-07 	0.02719980485 	-3.839241197e-07 	5.185038784e-05
0.9035021065 	0.008928482586 	0.005182645393 	-9.111173636e-07 	0.02654608598 	-5.200122888e-07 	5.060421797e-05
0.9162019423 	0.009032688128 	0.005408217359 	-8.739343081e-07 	0.02586537641 	-6.546887122e-07 	4.930659634e-05
0.9280669907 	0.009115420932 	0.005613324924 	-8.291843e-07 	0.02516174854 	-8.115595302e-07 	4.796528606e-05
0.939151752 	0.009167770976 	0.0058008321 	-7.794029445e-07 	0.02445179962 	-9.960534337e-07 	4.66119261e-05
0.9495071738 	0.009235452032 	0.005939485767 	-7.186448157e-07 	0.02373391224 	-1.162217612e-06 	4.524343324e-05
0.9563628554 	0.00928349669 	0.00603809766 	-6.459683345e-07 	0.02313115744 	-1.250602463e-06 	4.409441505e-05
0.962432965 	0.00926740818 	0.006130572992 	-5.498210473e-07 	0.02268916531 	-1.200998806e-06 	4.325185521e-05
0.9678072944 	0.009230645737 	0.006216378732 	-4.133087511e-07 	0.02232260617 	-9.883464339e-07 	4.25530916e-05
0.9725654226 	0.009171233819 	0.006300143134 	-2.239142123e-07 	0.02204412285 	-5.606520647e-07 	4.202222499e-05
0.9767778614 	0.009084654803 	0.006389078617 	2.683084687e-08 	0.02186735289 	1.437763884e-07 	4.168525233e-05
0.9805070848 	0.008955993202 	0.006477047801 	3.392637732e-07 	0.02181468301 	1.147145542e-06 	4.158484889e-05
0.9838084378 	0.008778631429 	0.006563019124 	7.344582403e-07 	0.02185644357 	2.389824928e-06 	4.166445612e-05
0.9867309446 	0.008516500274 	0.00663600176 	1.153780013e-06 	0.02190923876 	3.682792366e-06 	4.176509844e-05
0.9893180269 	0.008219127024 	0.006569220759 	1.470233977e-06 	0.02155272111 	4.564232969e-06 	4.108547671e-05
0.9916081409 	0.007733933357 	0.006218780094 	1.647934923e-06 	0.02011261653 	4.894888262e-06 	3.834023712e-05
0.9930959046 	0.006801955596 	0.005540250005 	1.549092191e-06 	0.01740835035 	4.562715979e-06 	3.318515417e-05
0.9945837944 	0.005055338884 	0.003895233115 	9.676494516e-07 	0.01205782056 	2.911535396e-06 	2.298555729e-05
0.9960718106 	0.002237569827 	0.001426972435 	2.997722268e-07 	0.004532780069 	9.474979354e-07 	8.640738632e-06
0.9975599529 	0.0002947647123 	9.013593632e-05 	3.026241678e-08 	0.0003622950714 	1.213630398e-07 	6.906351009e-07
0.9990482216 	3.046091587e-06 	1.115760617e-07 	1.068057086e-10 	3.048956652e-06 	2.399851545e-09 	5.812158793e-09
0.9990482216 	3.046091587e-06 	1.115760617e-07 	1.068057086e-10 	3.048956652e-06 	2.399851545e-09 	5.812158793e-09
