0.3524915403 	1.837240369e-05 	-1.031788307e-06 	1.823817251e-09 	1.782054895e-05 	-2.20235325e-08 	3.397091927e-08
0.3536068642 	0.001488117697 	-0.0005864705873 	1.421099948e-06 	0.001666118667 	-2.910329293e-06 	3.176085254e-06
0.3547223496 	0.008707773134 	-0.00612424942 	1.142040776e-05 	0.01408055795 	-1.786125041e-05 	2.684145694e-05
0.3558378442 	0.01744140993 	-0.01374502298 	1.832945706e-05 	0.02989234131 	-2.056331716e-05 	5.698311068e-05
0.3569531967 	0.02054569015 	-0.01638771605 	1.088014498e-05 	0.03592648626 	-7.448888632e-07 	6.848586806e-05
0.3580682569 	0.0199941644 	-0.01576794867 	-8.606175002e-07 	0.03584662016 	2.286020158e-05 	6.833362108e-05
0.35978394 	0.01761960057 	-0.01383850905 	-1.176378631e-05 	0.03178000623 	4.530039023e-05 	6.058152467e-05
0.361720438 	0.01431693168 	-0.01109823243 	-1.902563647e-05 	0.02577569793 	5.519589048e-05 	4.913564424e-05
0.3639049575 	0.01200633302 	-0.008308086089 	-2.197273013e-05 	0.02010744336 	4.83969337e-05 	3.833037562e-05
0.3663674413 	0.01103268112 	-0.005917910317 	-1.840938324e-05 	0.01606504925 	2.298102868e-05 	3.062444892e-05
0.36920096 	0.01071379909 	-0.004218465751 	-1.276694392e-05 	0.01429758398 	-5.056380197e-06 	2.725516887e-05
0.3724184949 	0.01069248912 	-0.002981448772 	-1.015914863e-05 	0.01416557343 	-2.120873196e-05 	2.700352008e-05
0.3760438857 	0.01072115719 	-0.001989319586 	-8.480022195e-06 	0.01484427672 	-2.731035975e-05 	2.829731718e-05
0.3801277765 	0.0107305583 	-0.001135642425 	-7.654491771e-06 	0.01573007035 	-2.688720659e-05 	2.998588603e-05
0.3848143963 	0.01068186603 	-0.0003613106603 	-6.544069678e-06 	0.01656204169 	-2.358622994e-05 	3.157185463e-05
0.3901331779 	0.01048138048 	0.0002964143922 	-3.300943034e-06 	0.01730601273 	-1.812007009e-05 	3.299007022e-05
0.3981914987 	0.01008028117 	0.0007099244059 	3.33744098e-08 	0.01787256186 	-1.123206573e-05 	3.407007032e-05
0.4069277984 	0.009652576456 	0.0008823988777 	1.183444973e-06 	0.01817881024 	-6.418970101e-06 	3.465386486e-05
0.4163791821 	0.009382440252 	0.0009518306669 	1.336779426e-06 	0.01832139648 	-3.578186712e-06 	3.492567385e-05
0.4265723647 	0.009244271232 	0.0009853804514 	1.137990163e-06 	0.01840690544 	-2.035384869e-06 	3.50886777e-05
0.4375983103 	0.009156671264 	0.001012476148 	7.9053233e-07 	0.01852084248 	-1.142294179e-06 	3.530587337e-05
0.4495688352 	0.009083225023 	0.001046017984 	3.904505708e-07 	0.01870590633 	-4.733515217e-07 	3.56586565e-05
0.4609124074 	0.009028485714 	0.001083273368 	1.016888865e-08 	0.01893728488 	-1.377877795e-06 	3.609972832e-05
0.4625033521 	0.009020541899 	0.001088536072 	5.631513007e-08 	0.01896978721 	-5.224114639e-08 	3.61616868e-05
0.4764361663 	0.008968383232 	0.001140204588 	5.395065473e-07 	0.01930954299 	-4.13393875e-07 	3.680935574e-05
0.4915177733 	0.008926690381 	0.001202277224 	1.069787556e-06 	0.01972590701 	-6.760717137e-07 	3.760306129e-05
0.5078705597 	0.008894406375 	0.001275068058 	1.642461764e-06 	0.02021717589 	-8.631408816e-07 	3.853955631e-05
0.5255559403 	0.008872650301 	0.00135828619 	2.244074423e-06 	0.02077989136 	-9.982553391e-07 	3.961224839e-05
0.5446528007 	0.008862950787 	0.001450958846 	2.857618722e-06 	0.02140985068 	-1.102910063e-06 	4.081312596e-05
0.5653073198 	0.008864720836 	0.001553663896 	3.463838014e-06 	0.02210465441 	-1.195342837e-06 	4.213761497e-05
0.5875706324 	0.008874161341 	0.001670512898 	4.031745752e-06 	0.02286283583 	-1.302942174e-06 	4.358291948e-05
0.6115522574 	0.008885650228 	0.001807363086 	4.519559662e-06 	0.02368131418 	-1.450478762e-06 	4.514316671e-05
0.6373531822 	0.008893873742 	0.001971043968 	4.874725553e-06 	0.02455178687 	-1.661465393e-06 	4.680252958e-05
0.6650736862 	0.008893621951 	0.002166627084 	5.049819814e-06 	0.025439141 	-1.919905715e-06 	4.849407318e-05
0.6928473989 	0.008882171239 	0.002387333852 	5.018547541e-06 	0.02627096979 	-2.201208788e-06 	5.007977006e-05
0.7188076063 	0.008859872229 	0.002619719484 	4.811656873e-06 	0.0269873018 	-2.474053367e-06 	5.144529796e-05
0.7430616173 	0.008827442793 	0.002858172444 	4.484583423e-06 	0.02757155075 	-2.700818332e-06 	5.255903885e-05
0.7657166274 	0.008785667153 	0.003101291702 	4.087235483e-06 	0.02802406977 	-2.868462071e-06 	5.342166587e-05
0.7868765632 	0.008735956009 	0.003346467235 	3.658545201e-06 	0.02834780107 	-2.970648419e-06 	5.40387877e-05
0.8066407466 	0.008679691353 	0.003591525567 	3.230216203e-06 	0.02854793561 	-3.006433661e-06 	5.442029977e-05
0.825101173 	0.008618414323 	0.003834201809 	2.832636044e-06 	0.02863161831 	-2.980833136e-06 	5.457982224e-05
0.8423446134 	0.008554147175 	0.004069495977 	2.473673662e-06 	0.02860777081 	-2.899606969e-06 	5.453436227e-05
0.8584514973 	0.008487296726 	0.004303295139 	2.151565441e-06 	0.02848085358 	-2.771248866e-06 	5.429242277e-05
0.8734970175 	0.008425053948 	0.004540311872 	1.854229793e-06 	0.02824979023 	-2.606498553e-06 	5.385195181e-05
0.8875511498 	0.008493651256 	0.004788959306 	1.555086281e-06 	0.02778195154 	-2.590236084e-06 	5.296012122e-05
0.900679109 	0.0086839483 	0.005036900497 	1.256798168e-06 	0.02709600911 	-2.710501788e-06 	5.165252431e-05
0.9129417823 	0.008861635645 	0.005262781299 	9.915120667e-07 	0.02635638739 	-2.799615236e-06 	5.024259974e-05
0.9243960038 	0.009012420929 	0.005463260481 	7.604273302e-07 	0.02559665906 	-2.821298091e-06 	4.879434639e-05
0.9350948531 	0.00913281618 	0.005643427266 	5.620073122e-07 	0.02483092894 	-2.747261294e-06 	4.733465195e-05
0.9450879208 	0.009216303548 	0.005810803076 	4.164719354e-07 	0.0240769766 	-2.545425799e-06 	4.589740924e-05
0.954421548 	0.009312143914 	0.00593785643 	3.384239853e-07 	0.02334216295 	-2.191647371e-06 	4.44966502e-05
0.9605997311 	0.009379867754 	0.006039232904 	3.483551664e-07 	0.02276429959 	-1.705501229e-06 	4.339508202e-05
0.9660692856 	0.009372504612 	0.006152092989 	4.553006556e-07 	0.02240324981 	-9.930675951e-07 	4.27068208e-05
0.9709113578 	0.009340625738 	0.006277521516 	6.507428637e-07 	0.02218660044 	5.743230428e-09 	4.229382689e-05
0.9751978312 	0.009285224536 	0.006423593064 	9.335058845e-07 	0.02214406072 	1.331045138e-06 	4.221273436e-05
0.9789923751 	0.00921074477 	0.006593394698 	1.285155131e-06 	0.02229959942 	2.941856704e-06 	4.250923436e-05
0.9823513805 	0.00912975689 	0.006788964709 	1.7202559e-06 	0.02264613565 	4.683923678e-06 	4.316982872e-05
0.9853247881 	0.009039132172 	0.007005631739 	2.164862085e-06 	0.02314414032 	6.335660917e-06 	4.411916403e-05
0.987956823 	0.009011938904 	0.007179879871 	2.478983189e-06 	0.02353954182 	7.442858535e-06 	4.487290919e-05
0.9902866465 	0.008970334081 	0.007191644902 	2.715669857e-06 	0.02342323981 	8.223631916e-06 	4.465120522e-05
0.9923489342 	0.008547485859 	0.006889496738 	2.787329975e-06 	0.02211053761 	8.413679462e-06 	4.214882999e-05
0.993688642 	0.007533505621 	0.006143336014 	2.445030661e-06 	0.01921811511 	7.405483882e-06 	3.66350688e-05
0.9950284246 	0.005565111414 	0.004286454281 	1.602542735e-06 	0.01326555114 	4.952066742e-06 	2.528782743e-05
0.9963682821 	0.002457576977 	0.001564429747 	5.737313183e-07 	0.004968125545 	1.820045618e-06 	9.470628108e-06
0.9977082144 	0.000334217302 	0.0001020413292 	4.678573829e-08 	0.0004103585186 	1.920992445e-07 	7.822573897e-07
0.9990482216 	3.827601379e-06 	1.448676172e-07 	1.187635366e-10 	3.831921883e-06 	2.895132724e-09 	7.304708137e-09
0.9990482216 	3.827601379e-06 	1.448676172e-07 	1.187635366e-10 	3.831921883e-06 	2.895132724e-09 	7.304708137e-09
