0.4709558481 	1.087978862e-05 	-4.510447581e-07 	1.332969019e-11 	1.089813664e-05 	-2.504912425e-10 	2.077487741e-08
0.4709558481 	1.087978862e-05 	-4.510447581e-07 	1.332969019e-11 	1.089813664e-05 	-2.504912425e-10 	2.077487741e-08
0.4720092239 	0.0007977815799 	-0.0002478664856 	6.802703802e-09 	0.0009869906731 	-2.357338308e-08 	1.881478543e-06
0.4730625996 	0.005154110957 	-0.003202152943 	6.417634235e-08 	0.010149511 	-2.002060975e-07 	1.934778888e-05
0.4741159754 	0.01108103574 	-0.008407356346 	1.358365482e-07 	0.02604100625 	-4.06130805e-07 	4.964139565e-05
0.4751693511 	0.01482835019 	-0.01198857067 	1.572394894e-07 	0.03750053568 	-4.795200859e-07 	7.148644374e-05
0.4762227269 	0.0171741491 	-0.01381691467 	1.572358388e-07 	0.04394575587 	-4.919979889e-07 	8.377282477e-05
0.4778443634 	0.01866067893 	-0.01496239641 	1.562210327e-07 	0.04777633236 	-4.790240722e-07 	9.107496823e-05
0.4796765386 	0.01953467717 	-0.01547724051 	1.485880605e-07 	0.04921178534 	-4.418331527e-07 	9.381134056e-05
0.4817465869 	0.01996280803 	-0.01561619091 	1.311709746e-07 	0.04949184113 	-3.718164826e-07 	9.434520473e-05
0.4840853915 	0.02001264383 	-0.01559940362 	1.102231195e-07 	0.04929270247 	-2.903255394e-07 	9.39655911e-05
0.4867278453 	0.0198114381 	-0.01545739777 	8.825769867e-08 	0.04878830212 	-2.012871392e-07 	9.300406384e-05
0.4897133715 	0.01941841121 	-0.01521344837 	6.38630013e-08 	0.04804608784 	-1.146181635e-07 	9.158919714e-05
0.4930865115 	0.01888114804 	-0.01488365753 	3.879744331e-08 	0.04705848152 	-2.751494947e-08 	8.9706545e-05
0.4968975894 	0.01822262647 	-0.01447140271 	1.451665625e-08 	0.04581230883 	5.915563723e-08 	8.73309935e-05
0.5012034633 	0.01744391915 	-0.01398122215 	-2.951907106e-08 	0.04429933936 	2.141314297e-07 	8.444685319e-05
0.506068373 	0.01653552031 	-0.01332323625 	-1.043462509e-07 	0.04222279161 	4.700319854e-07 	8.048837603e-05
0.5134203412 	0.0154013887 	-0.01240602985 	-2.072171612e-07 	0.03932397328 	8.13665639e-07 	7.496242261e-05
0.5212948542 	0.01407306724 	-0.01133663916 	-3.244307981e-07 	0.03589838626 	1.205986932e-06 	6.843230165e-05
0.529729052 	0.01273392752 	-0.01024656929 	-4.185917343e-07 	0.03230323967 	1.536731816e-06 	6.157895304e-05
0.5387627144 	0.01175208407 	-0.00910130964 	-4.960928564e-07 	0.0284227682 	1.813317785e-06 	5.418169589e-05
0.5484384488 	0.01123992145 	-0.007891099877 	-5.648586502e-07 	0.0243621879 	1.974603875e-06 	4.644110126e-05
0.5588018907 	0.01097508396 	-0.006679866575 	-6.032689822e-07 	0.02058215784 	1.894736466e-06 	3.923531336e-05
0.5699019192 	0.01087812951 	-0.005477895353 	-6.17428868e-07 	0.01735096014 	1.593091991e-06 	3.307575247e-05
0.5817908876 	0.01088269185 	-0.004291988145 	-6.215404785e-07 	0.01483492733 	1.154501595e-06 	2.827949464e-05
0.5945248701 	0.01095825651 	-0.003135420169 	-6.182019782e-07 	0.01305093666 	6.732774924e-07 	2.48787126e-05
0.6081639266 	0.01107388087 	-0.002013516894 	-6.114488768e-07 	0.01194317269 	2.214477099e-07 	2.276700658e-05
0.6227723857 	0.01120166751 	-0.0009289203381 	-6.086842776e-07 	0.01142145661 	-1.66292934e-07 	2.177247072e-05
0.638419148 	0.0113201508 	0.0001186743458 	-6.139305816e-07 	0.01139304516 	-4.873787156e-07 	2.17183106e-05
0.6551780116 	0.01141379141 	0.001129877911 	-6.269571575e-07 	0.011778989 	-7.542145027e-07 	2.245402684e-05
0.6731280194 	0.01147271535 	0.002104704252 	-6.438876778e-07 	0.0125183656 	-9.797019648e-07 	2.386348414e-05
0.6923538328 	0.011492532 	0.003042584588 	-6.583628927e-07 	0.01356692601 	-1.168457595e-06 	2.586233171e-05
0.7129461301 	0.01147504239 	0.003943316271 	-6.617538538e-07 	0.01489419698 	-1.31412419e-06 	2.839247908e-05
0.7350020349 	0.01143254496 	0.004794472936 	-6.411946844e-07 	0.01645257279 	-1.397384901e-06 	3.13631765e-05
0.7570579485 	0.01138965392 	0.0055651357 	-5.831782175e-07 	0.01813589407 	-1.392887122e-06 	3.457205471e-05
0.7776502527 	0.01137002702 	0.006244266436 	-4.828996129e-07 	0.01984229346 	-1.285652964e-06 	3.782492621e-05
0.7968760713 	0.01138854018 	0.006854691914 	-3.449651149e-07 	0.02154550704 	-1.071050137e-06 	4.107172469e-05
0.814826083 	0.01145429526 	0.007424440815 	-1.81098314e-07 	0.02325924149 	-7.550440402e-07 	4.433857885e-05
0.831584949 	0.01157127419 	0.007972999454 	-1.007708991e-08 	0.0250028113 	-3.634802598e-07 	4.766230751e-05
0.8472317127 	0.01174392065 	0.008514466162 	1.469727822e-07 	0.02678725206 	5.756750767e-08 	5.106394755e-05
0.8618401721 	0.01197275715 	0.009058941078 	2.794771576e-07 	0.02861759502 	4.534238869e-07 	5.455308996e-05
0.8754792281 	0.01229709421 	0.009602304789 	3.803524912e-07 	0.03044442938 	7.898752949e-07 	5.8035544e-05
0.8882132094 	0.01273911868 	0.01014176431 	4.409820011e-07 	0.0322288233 	1.028439213e-06 	6.143709474e-05
0.9001021759 	0.0132854794 	0.01067496874 	4.74596861e-07 	0.03395828407 	1.209517728e-06 	6.473392766e-05
0.9112022019 	0.01390551888 	0.01119520126 	4.715515887e-07 	0.0356199863 	1.290355554e-06 	6.790159395e-05
0.9215656407 	0.01453167938 	0.01169908538 	4.328754259e-07 	0.03722746456 	1.216871165e-06 	7.096589428e-05
0.9312413717 	0.01512723536 	0.01217920617 	3.875461174e-07 	0.03875486378 	1.069836152e-06 	7.387754172e-05
0.9402750304 	0.01568116754 	0.01262148615 	3.151548707e-07 	0.04016598243 	8.03730629e-07 	7.656752608e-05
0.9487092242 	0.01624845825 	0.01301306341 	2.352656181e-07 	0.04136231846 	5.181867752e-07 	7.884807504e-05
0.9565837329 	0.01680806216 	0.01335224514 	1.910607176e-07 	0.04234444888 	3.720041856e-07 	8.072028859e-05
0.9639356968 	0.01735472775 	0.0135875333 	1.625990284e-07 	0.04299142931 	3.063408303e-07 	8.195361312e-05
0.9688006083 	0.01778100051 	0.01373558817 	1.381372193e-07 	0.04336648078 	2.714209541e-07 	8.266856546e-05
0.9731064834 	0.01802389126 	0.01385751356 	1.229962984e-07 	0.04368420941 	2.564359245e-07 	8.327424453e-05
0.976917562 	0.01819259987 	0.01393896377 	1.128450734e-07 	0.04389741823 	2.48999707e-07 	8.368067981e-05
0.9802907021 	0.01827789531 	0.01397704292 	1.059860496e-07 	0.04400348369 	2.488749569e-07 	8.388287004e-05
0.9832762282 	0.01826411849 	0.01397061148 	1.017503723e-07 	0.04398496747 	2.54078774e-07 	8.384757299e-05
0.9859186816 	0.0181044753 	0.01389864979 	9.921557072e-08 	0.04383299627 	2.621687635e-07 	8.355787364e-05
0.9882574856 	0.01773914109 	0.01373012782 	9.73947576e-08 	0.0434704422 	2.704575412e-07 	8.286674482e-05
0.990327533 	0.01706438461 	0.01342709244 	9.55936868e-08 	0.04268960986 	2.763187294e-07 	8.137826136e-05
0.9921597073 	0.01600483384 	0.01280114159 	9.233050657e-08 	0.04084708514 	2.771524276e-07 	7.786589714e-05
0.9937813429 	0.01444467055 	0.01161051252 	8.658330273e-08 	0.0368116436 	2.664369453e-07 	7.017322397e-05
0.9948347186 	0.01217371865 	0.009761281243 	7.936695917e-08 	0.03046863299 	2.427774307e-07 	5.808168279e-05
0.9958880943 	0.008727846043 	0.006438052921 	6.242145108e-08 	0.01996913744 	1.89861065e-07 	3.80667261e-05
0.9969414701 	0.003848286576 	0.002254042132 	2.693528282e-08 	0.007185338493 	8.408809617e-08 	1.369725223e-05
0.9979948458 	0.0005458314249 	0.0001501012706 	2.308887448e-09 	0.0006468120752 	8.637231177e-09 	1.233003587e-06
0.9990482216 	7.955923138e-06 	2.806288797e-07 	4.469660113e-12 	7.960532322e-06 	1.026546541e-10 	1.517498712e-08
0.9990482216 	7.955923138e-06 	2.806288797e-07 	4.469660113e-12 	7.960532322e-06 	1.026546541e-10 	1.517498712e-08
