0.3440231802 	0.05041888693 	-0.01035974666 	3.965824625e-05
0.3453619003 	0.2433038011 	-0.05791794426 	0.0001187030685
0.346700708 	0.5392562702 	-0.138067806 	0.0001428421089
0.348039379 	0.8034621291 	-0.2063682843 	9.288844419e-05
0.3493776909 	0.9955318466 	-0.2491430454 	3.848240202e-05
0.3507154234 	1.151977337 	-0.2838550424 	-5.929331583e-06
0.3527731822 	1.302822938 	-0.3174568055 	-5.356069288e-05
0.3550948411 	1.441485999 	-0.3465820474 	-0.0001001586046
0.3577124116 	1.565520986 	-0.3708407003 	-0.0001392681672
0.3606824659 	1.679303403 	-0.3911119354 	-0.0001696934097
0.3640355815 	1.784755948 	-0.4079585203 	-0.000190434739
0.3678149006 	1.882985403 	-0.4217545416 	-0.0002010628147
0.3720736319 	1.975017748 	-0.4327024208 	-0.0002019783495
0.3769056112 	2.061618416 	-0.4408950267 	-0.0001933743362
0.3823489685 	2.143160703 	-0.4464256069 	-0.0001764172367
0.3884922639 	2.22654958 	-0.4494723626 	-0.000152938839
0.3977735322 	2.314271894 	-0.4491760707 	-0.0001126074289
0.4077064413 	2.395067903 	-0.4451550432 	-6.99432194e-05
0.4183256322 	2.465153008 	-0.4380890223 	-2.754888028e-05
0.4261058455 	2.50728546 	-0.431524972 	0.0002755245362
0.4296566751 	2.52649863 	-0.4284097204 	-1.519852368e-05
0.441725473 	2.580255797 	-0.4164361767 	-5.923144901e-05
0.4546437824 	2.627108641 	-0.4026159712 	-9.644214041e-05
0.4684694852 	2.667185875 	-0.3871983542 	-0.0001263955036
0.483263504 	2.700531229 	-0.3703891985 	-0.0001486011725
0.4990904661 	2.727300487 	-0.3524326443 	-0.0001627516967
0.5160194649 	2.748299205 	-0.333677642 	-0.0001696448723
0.534125736 	2.764789667 	-0.3143996901 	-0.0001705700272
0.5534985534 	2.777308285 	-0.29461481 	-0.000166021061
0.5742165405 	2.785431438 	-0.2742535957 	-0.0001553689237
0.5963809076 	2.789030781 	-0.2536188473 	-0.0001391222788
0.6200931186 	2.788442569 	-0.2331100599 	-0.0001200254049
0.6454657031 	2.783464883 	-0.212621057 	-0.0001000879009
0.6726223762 	2.773618785 	-0.1922495447 	-8.075087044e-05
0.6997690552 	2.75930582 	-0.1730408826 	-6.421620739e-05
0.7251139532 	2.741728239 	-0.1558288458 	-5.101387017e-05
0.7487832758 	2.721723748 	-0.1405511874 	-4.033211344e-05
0.7708923052 	2.699455644 	-0.126908903 	-3.168862735e-05
0.7915468462 	2.674784632 	-0.1146459147 	-2.468225049e-05
0.8108444999 	2.647406411 	-0.1035396601 	-1.900664192e-05
0.8288752071 	2.616922121 	-0.09341840492 	-1.449201527e-05
0.8457226162 	2.582961477 	-0.08412463689 	-1.089211146e-05
0.8614643852 	2.545269601 	-0.07552349698 	-7.985084635e-06
0.8761728768 	2.503736579 	-0.06754253233 	-5.684749197e-06
0.8899155937 	2.458384921 	-0.06012725577 	-3.896003888e-06
0.9027555604 	2.409207875 	-0.05321141927 	-2.514066143e-06
0.9147516662 	2.355935937 	-0.0467353371 	-1.471950591e-06
0.9259589634 	2.297901887 	-0.04064583098 	-7.153126798e-07
0.9364289334 	2.234021796 	-0.03491365496 	-1.962304415e-07
0.9418620584 	2.194421555 	-0.0318636384 	0.0001125875484
0.9462086608 	2.162750096 	-0.02942020494 	-4.28287012e-09
0.9553436498 	2.087968284 	-0.0245037511 	3.813339229e-08
0.961391458 	2.018365749 	-0.02064957068 	1.158853097e-07
0.9667463238 	1.952069132 	-0.01747582728 	2.140044296e-07
0.971487438 	1.883301403 	-0.01460656316 	3.042553476e-07
0.9756849854 	1.811823613 	-0.01205389667 	3.738131761e-07
0.9794011587 	1.737219884 	-0.009798184945 	4.133780169e-07
0.9826910629 	1.65869418 	-0.007818876547 	4.261016323e-07
0.9856035161 	1.574714731 	-0.006131267535 	4.156800186e-07
0.9881817623 	1.482606185 	-0.00496515709 	4.025134994e-07
0.9904641044 	1.377475061 	-0.003954709904 	3.729779182e-07
0.9924844658 	1.258417084 	-0.003178963931 	2.701404011e-07
0.993796989 	1.127776099 	-0.001529004216 	1.996447682e-08
0.9951096262 	0.9545903652 	0.002526274661 	-4.26179165e-08
0.9964223774 	0.6878713883 	0.001584763686 	2.545557067e-07
0.9977352425 	0.3438306534 	-0.003258879168 	1.491526907e-07
0.9990482216 	0.09107322297 	-0.002586529422 	-8.53751163e-08
0.9990482216 	0.09107322297 	-0.002586529422 	-8.53751163e-08
