1.640171017e-35 	1.48244152 	-1.007186946e-13 	-1.731271361e-18
0.001912604907 	1.482478571 	-0.0002172737523 	1.236613067e-07
0.003825194192 	1.482602779 	-0.000413342033 	2.318564015e-07
0.005737767794 	1.482823922 	-0.0006047506306 	3.342416393e-07
0.007650325701 	1.483137075 	-0.0008022488608 	4.367362747e-07
0.00956286795 	1.483607403 	-0.001029118212 	5.516807627e-07
0.01250713205 	1.484382304 	-0.001319991666 	6.908380589e-07
0.01583360909 	1.485558452 	-0.001666434535 	8.484008995e-07
0.01959191156 	1.487221297 	-0.002056842523 	1.014568448e-06
0.02385649769 	1.489530607 	-0.002496795756 	1.1870221e-06
0.02867914987 	1.492689068 	-0.002991082708 	1.362534724e-06
0.03412783817 	1.496956033 	-0.003544308791 	1.536140401e-06
0.04028381842 	1.502676305 	-0.004161850283 	1.701546847e-06
0.04727081711 	1.510298456 	-0.004846987223 	1.847684073e-06
0.05516671354 	1.520387944 	-0.005599298141 	1.962740306e-06
0.0641017149 	1.535099803 	-0.006504962692 	2.06102879e-06
0.07764239172 	1.557582265 	-0.007622522707 	2.054713601e-06
0.09218964228 	1.588290502 	-0.008830338783 	1.976928677e-06
0.1078092542 	1.62718919 	-0.01004929455 	1.79878473e-06
0.1245847907 	1.675627883 	-0.01108523965 	1.305377244e-06
0.1426038343 	1.734393041 	-0.01166070727 	7.356882495e-07
0.1619584402 	1.803065886 	-0.01200796221 	3.044447489e-07
0.17459936 	1.850267562 	-0.0121908739 	1.89969913e-05
0.1827456333 	1.880715277 	-0.01230913007 	2.126459156e-07
0.2050679472 	1.966674809 	-0.01221381611 	6.258211549e-07
0.229034003 	2.0597256 	-0.01159200948 	9.278505477e-07
0.2547591248 	2.156639796 	-0.01066111577 	9.887375791e-07
0.2823668212 	2.250841464 	-0.009311424097 	8.825466467e-07
0.3119969157 	2.332827902 	-0.007839540476 	1.452795665e-06
0.3437800877 	2.396080138 	-0.006944579619 	1.870692542e-06
0.3778714604 	2.441078299 	-0.006198192558 	1.755204446e-06
0.4144274988 	2.470893714 	-0.005283122714 	1.873883923e-06
0.4536170638 	2.487829433 	-0.004430807971 	1.813048417e-06
0.4956212291 	2.493710541 	-0.003596327905 	1.68734875e-06
0.5376461177 	2.490617688 	-0.002814207036 	1.50051037e-06
0.5768947117 	2.481111438 	-0.002112711516 	1.304928671e-06
0.6135457513 	2.466906884 	-0.001484654785 	1.120525977e-06
0.6477684763 	2.44868281 	-0.000914315246 	9.540695556e-07
0.6797223209 	2.426617843 	-0.0003868497309 	8.061461433e-07
0.7095570023 	2.400653426 	0.000109691277 	6.720073676e-07
0.7374124644 	2.370613905 	0.0005831550351 	5.471079402e-07
0.7634198193 	2.336268657 	0.001047141942 	4.3912493e-07
0.7877015329 	2.297419954 	0.001457959578 	2.732366202e-07
0.8103720244 	2.253994497 	0.001869508396 	1.741095193e-07
0.8315381713 	2.205939606 	0.002332024998 	9.8092078e-08
0.851299777 	2.153248748 	0.002690799127 	-1.996977474e-07
0.8697500334 	2.096464137 	0.00288528591 	-6.775251078e-07
0.8869759541 	2.03686741 	0.003015508765 	-8.043276052e-07
0.9030587819 	1.975885696 	0.003104397431 	-8.227717617e-07
0.9180743698 	1.914404266 	0.003025778441 	-1.380263984e-06
0.9320935383 	1.856846477 	0.002752277133 	-1.679613448e-06
0.9413702454 	1.80879334 	0.002417851542 	-1.5715452e-06
0.9495809481 	1.766870304 	0.002098163755 	-1.500518247e-06
0.9568481429 	1.726332363 	0.00178775759 	-1.372582698e-06
0.9632802503 	1.686230608 	0.001487012419 	-1.216528291e-06
0.9689732317 	1.645409124 	0.001207530121 	-1.047464998e-06
0.9740120216 	1.602374953 	0.0009617821575 	-8.743257446e-07
0.9784717943 	1.555000199 	0.0007368384055 	-7.076331568e-07
0.9824190858 	1.500107938 	0.0003268336759 	-5.603820672e-07
0.9859127864 	1.43234422 	5.75610438e-05 	-3.963156378e-07
0.9890050191 	1.34812252 	-0.0004058235129 	-2.626455865e-07
0.9910136596 	1.247716942 	-0.0007559822485 	-1.935848994e-07
0.9930223001 	1.103193918 	0.002590940741 	-1.94672911e-08
0.9950309406 	0.8487408 	0.003868369881 	1.11870553e-07
0.9970395811 	0.4575907624 	-0.001652791574 	-2.875941888e-08
0.9990482216 	0.1316402713 	-0.002995237123 	-9.077057259e-08
0.9990482216 	0.1316402713 	-0.002995237123 	-9.077057259e-08
