0.4709558481 	0.1493390427 	0.002884188147 	-8.621564912e-08
0.4720092239 	0.5684439578 	0.002912789866 	1.420216098e-08
0.4730625996 	1.072497205 	-0.003602438188 	1.476532197e-07
0.4741159754 	1.434745635 	-0.004139624241 	-1.246424112e-08
0.4751693511 	1.663795518 	0.0004747239057 	-8.954386601e-08
0.4762227269 	1.834230053 	0.001211506998 	-4.55257573e-08
0.4778443634 	1.984725379 	0.0006300361691 	-4.724720578e-08
0.4796765386 	2.110889302 	0.0004533928887 	-6.765012416e-08
0.4817465869 	2.215419466 	0.0002209735675 	-8.684542441e-08
0.4840853915 	2.306026905 	0.0001433088639 	-1.056835189e-07
0.4867278453 	2.387057803 	0.0001957111681 	-1.290404583e-07
0.4897133715 	2.461262587 	0.0002532926097 	-1.55850498e-07
0.4930865115 	2.530438397 	0.0003106961617 	-1.686328875e-07
0.4968975894 	2.595773667 	0.0003672380305 	-2.142309088e-07
0.5012034633 	2.658122352 	0.0004560945345 	-2.989231497e-07
0.506068373 	2.723501331 	0.0005985802581 	-3.254205848e-07
0.5134203412 	2.793815028 	0.0007416733453 	-3.364140904e-07
0.5212948542 	2.859771506 	0.0008270824406 	-4.840897102e-07
0.529729052 	2.915869941 	0.001012692722 	-6.795870925e-07
0.5387627144 	2.962253651 	0.001326157964 	-7.057676675e-07
0.5484384488 	2.999544239 	0.001492173573 	-7.027182686e-07
0.5588018907 	3.028460083 	0.001562808906 	-7.559171991e-07
0.5699019192 	3.049887391 	0.001665781627 	-7.856968023e-07
0.5817908876 	3.065004477 	0.001746637578 	-8.133677258e-07
0.5945248701 	3.075058279 	0.001804336071 	-8.259126217e-07
0.6081639266 	3.081115764 	0.001835633865 	-8.239649085e-07
0.6227723857 	3.083965217 	0.001839669648 	-8.082634762e-07
0.638419148 	3.084110168 	0.001815940812 	-7.783172432e-07
0.6551780116 	3.081807409 	0.001764086117 	-7.343675913e-07
0.6731280194 	3.077108257 	0.001683563902 	-6.762085768e-07
0.6923538328 	3.069885886 	0.001573075791 	-6.033249043e-07
0.7129461301 	3.059841058 	0.001431283229 	-5.142012873e-07
0.7350020349 	3.04672902 	0.001261655811 	-4.063950766e-07
0.7570579485 	3.030907838 	0.001076668908 	-2.828553135e-07
0.7776502527 	3.013116707 	0.0008914286201 	-1.53356701e-07
0.7968760713 	2.993687938 	0.0007161727833 	-2.812085446e-08
0.814826083 	2.972596179 	0.000556812211 	8.577960059e-08
0.831584949 	2.949724115 	0.0004174889475 	1.863687887e-07
0.8472317127 	2.924877447 	0.0003020165793 	2.372781833e-07
0.8618401721 	2.897808222 	0.0002024668211 	3.055350759e-07
0.8754792281 	2.868242352 	0.0001271087665 	3.984640798e-07
0.8882132094 	2.835856182 	0.0001005097973 	3.735316516e-07
0.9001021759 	2.800250063 	9.596721803e-05 	3.19843773e-07
0.9112022019 	2.761072839 	8.402191121e-05 	3.172616313e-07
0.9215656407 	2.718151473 	8.028199153e-05 	2.939779451e-07
0.9312413717 	2.671395262 	8.33972727e-05 	2.268664052e-07
0.9402750304 	2.620595149 	8.099582992e-05 	2.11433261e-07
0.9487092242 	2.565241086 	6.297754065e-05 	2.149623366e-07
0.9565837329 	2.50425621 	9.848782827e-05 	1.212213299e-07
0.9639356968 	2.44084149 	0.0001374609626 	6.791731341e-08
0.9688006083 	2.382037681 	8.923238488e-05 	7.334419561e-08
0.9731064834 	2.325819549 	5.840809952e-05 	5.875516396e-08
0.976917562 	2.266827875 	6.179146595e-05 	4.670726364e-08
0.9802907021 	2.204191125 	5.7537074e-05 	3.691378775e-08
0.9832762282 	2.136713198 	5.4429358e-05 	2.85093473e-08
0.9859186816 	2.062646857 	5.042201544e-05 	2.187210014e-08
0.9882574856 	1.979324963 	-6.435382406e-05 	1.916388627e-08
0.990327533 	1.882558297 	-0.0003651277633 	1.125438774e-08
0.9921597073 	1.765062444 	-0.000639223225 	6.998110235e-09
0.9937813429 	1.624212839 	-0.001043204082 	8.094100364e-09
0.9948347186 	1.463938269 	0.0001514702541 	-7.026726082e-09
0.9958880943 	1.249017937 	0.003917291324 	8.583312712e-09
0.9969414701 	0.9194970226 	0.002235591481 	3.275012657e-08
0.9979948458 	0.4813269638 	-0.002895864991 	-1.458613978e-09
0.9990482216 	0.1384037517 	-0.002338352344 	-1.813508206e-08
0.9990482216 	0.1384037517 	-0.002338352344 	-1.813508206e-08
