0.2638980281 	-0.01406644182 	0.006410780715 	0.0001175334503
0.2638980281 	-0.01406644182 	0.006410780715 	0.0001175334503
0.2654533431 	-0.003503242178 	0.006164938027 	0.0004564298115
0.2670087167 	0.08589565695 	-0.02564916735 	0.0008297408439
0.2685638061 	0.2190165614 	-0.07432972999 	0.00101261527
0.2701182719 	0.3424394963 	-0.114431497 	0.001055542436
0.2716717782 	0.4560419238 	-0.148738055 	0.001076560017
0.2740607069 	0.5780704931 	-0.1848024931 	0.001089289921
0.2767546051 	0.7045310058 	-0.2204884096 	0.001072705132
0.2797895793 	0.8320732511 	-0.2542395948 	0.001027579461
0.2832304115 	0.9625846786 	-0.2862703226 	0.0009489821352
0.287111948 	1.095872239 	-0.3165145717 	0.0008359342108
0.2914829797 	1.230806746 	-0.3445610884 	0.0006936139047
0.2964036899 	1.36605708 	-0.3699603194 	0.0005270910209
0.3019811527 	1.499671226 	-0.3920580113 	0.0003432425883
0.3082566829 	1.628835397 	-0.410090061 	0.0001542020388
0.3153299793 	1.76137691 	-0.4245270333 	-4.369557808e-05
0.3259983069 	1.89902182 	-0.4344720869 	-0.0002072753167
0.3373926531 	2.022192316 	-0.4376426917 	-0.0002876484238
0.3495488673 	2.126729983 	-0.4351675507 	-0.0002975325489
0.3625213994 	2.217727081 	-0.4285384129 	-0.0002705587748
0.3763660986 	2.298595449 	-0.4187796843 	-0.0002324240839
0.391140701 	2.371173683 	-0.4066268918 	-0.0001992046635
0.4069054432 	2.435650488 	-0.3923745398 	-0.0001729869768
0.423723814 	2.491213539 	-0.3761728317 	-0.000148967688
0.4416634491 	2.537698932 	-0.3583869446 	-0.0001230476549
0.4607971748 	2.576335671 	-0.3394285755 	-9.248866738e-05
0.4812051392 	2.608790732 	-0.3196648874 	-6.27072856e-05
0.5029838614 	2.635808125 	-0.2990884575 	-4.541014082e-05
0.5262183068 	2.656669749 	-0.277827803 	-4.023726669e-05
0.5510200772 	2.670476505 	-0.2566872239 	-3.473521845e-05
0.5775021918 	2.67778737 	-0.2356914166 	-2.430732996e-05
0.6057914839 	2.679731806 	-0.2143362061 	-1.232523202e-05
0.636028988 	2.676387921 	-0.1932035297 	-1.317646816e-06
0.6662252001 	2.667772376 	-0.1734969816 	7.857089487e-06
0.6943993079 	2.654923217 	-0.1558735637 	1.476299503e-05
0.7207016499 	2.638799289 	-0.1402770538 	1.957197463e-05
0.7452665078 	2.619639646 	-0.1264271009 	2.300899614e-05
0.768215059 	2.597407556 	-0.1140321404 	2.573272868e-05
0.7896577441 	2.571990141 	-0.102818111 	2.784314386e-05
0.8096954208 	2.543112983 	-0.09258439055 	2.920203568e-05
0.8284213407 	2.510410043 	-0.08318109741 	2.988023238e-05
0.8459217018 	2.473574376 	-0.07449312016 	3.007938127e-05
0.8622766275 	2.432401297 	-0.06643420654 	2.995607438e-05
0.8775607399 	2.386784666 	-0.05893548963 	2.958862789e-05
0.8918436525 	2.336631372 	-0.05194148452 	2.906844877e-05
0.9051903915 	2.281675875 	-0.04539912315 	2.82495902e-05
0.9176617495 	2.221319593 	-0.0392654493 	2.738003543e-05
0.929314591 	2.154541827 	-0.03345302232 	2.654944041e-05
0.9402021232 	2.07977054 	-0.02787796081 	2.512136549e-05
0.950374142 	2.001278004 	-0.02294492043 	2.368229734e-05
0.957108839 	1.928643594 	-0.01908039807 	2.227110736e-05
0.963072106 	1.860189146 	-0.01591374426 	2.072156873e-05
0.9683520561 	1.790138519 	-0.01308472954 	1.935072738e-05
0.9730267922 	1.718467038 	-0.010603742 	1.785332593e-05
0.9771655318 	1.644967957 	-0.008461014756 	1.584356243e-05
0.98082961 	1.569069724 	-0.006622017474 	1.362958158e-05
0.9840733699 	1.489479335 	-0.005087197218 	1.144032223e-05
0.9869449531 	1.403800805 	-0.004054768845 	9.47130273e-06
0.9894870034 	1.307526987 	-0.003180715643 	7.639493811e-06
0.9917372914 	1.199531214 	-0.002630548272 	5.293214812e-06
0.9931992005 	1.081264011 	-0.001414604475 	1.084761695e-06
0.9946612482 	0.922835099 	0.002516709108 	-1.262118354e-07
0.9961234342 	0.6712335134 	0.002022539601 	4.544957872e-06
0.9975857587 	0.3369151994 	-0.003004115373 	2.737319974e-06
0.9990482216 	0.08884471355 	-0.002705698501 	-1.217412371e-06
