0.4709558481 	9.704026322e-06 	-2.806723145e-07 	1.564423597e-11 	9.685557762e-06 	-3.8956756e-10 	1.846336505e-08
0.4720092239 	0.0007881580996 	-0.0001709634982 	8.746835984e-09 	0.0007866484603 	-3.133934686e-08 	1.499570603e-06
0.4730625996 	0.006960395916 	-0.002802177823 	1.031194615e-07 	0.006946848558 	-2.285562762e-07 	1.324262413e-05
0.4741159754 	0.01727058807 	-0.007803505003 	2.121176405e-07 	0.01723643235 	-4.456550998e-07 	3.285743068e-05
0.4751693511 	0.02461091514 	-0.01145679703 	2.367590657e-07 	0.02456115335 	-5.032810006e-07 	4.68203847e-05
0.4762227269 	0.02872939591 	-0.01334882538 	2.367919156e-07 	0.02866944178 	-5.071323397e-07 	5.465192429e-05
0.4778443634 	0.03123855247 	-0.01451011465 	2.284781728e-07 	0.03117028574 	-4.881298303e-07 	5.941922796e-05
0.4796765386 	0.03239012755 	-0.01501982177 	2.148571599e-07 	0.03231503127 	-4.501537567e-07 	6.160143109e-05
0.4817465869 	0.03279110628 	-0.01516426884 	1.958038533e-07 	0.03270977137 	-3.996536232e-07 	6.235391545e-05
0.4840853915 	0.03277383412 	-0.01514163804 	1.694898281e-07 	0.03268612762 	-3.378086398e-07 	6.230884387e-05
0.4867278453 	0.03246965102 	-0.01500941866 	1.388940315e-07 	0.03237507098 	-2.641118926e-07 	6.171588348e-05
0.4897133715 	0.03193805475 	-0.01477742496 	1.016859476e-07 	0.03183590847 	-1.759998026e-07 	6.068808988e-05
0.4930865115 	0.03121017052 	-0.01446361917 	6.689727275e-08 	0.03109959068 	-7.00527927e-08 	5.928446352e-05
0.4968975894 	0.03029716872 	-0.01405695545 	-2.690320104e-09 	0.03017714816 	6.416803835e-08 	5.752603171e-05
0.5012034633 	0.02919306071 	-0.01354394859 	-1.037894402e-07 	0.02906251726 	2.407179532e-07 	5.540123541e-05
0.506068373 	0.02774805882 	-0.01286899832 	-2.197642953e-07 	0.02760527762 	4.936141735e-07 	5.262333163e-05
0.5134203412 	0.02578326821 	-0.01195191589 	-3.827259046e-07 	0.0256267586 	8.474897461e-07 	4.885172448e-05
0.5212948542 	0.02345674728 	-0.01086685401 	-5.601776886e-07 	0.02328788819 	1.231324553e-06 	4.439318743e-05
0.529729052 	0.02104044445 	-0.009740808675 	-7.002832363e-07 	0.02086287023 	1.533205817e-06 	3.977042918e-05
0.5387627144 	0.01869652554 	-0.008593277642 	-9.197512284e-07 	0.01851466659 	1.708978059e-06 	3.529410041e-05
0.5484384488 	0.01655049953 	-0.007347555141 	-1.144820134e-06 	0.01637150718 	1.748493865e-06 	3.120864292e-05
0.5588018907 	0.01468732389 	-0.006056090793 	-1.264523336e-06 	0.01451935244 	1.636687488e-06 	2.76779212e-05
0.5699019192 	0.01317402237 	-0.004820371967 	-1.358188468e-06 	0.01302444951 	1.380857145e-06 	2.482822072e-05
0.5817908876 	0.01204754003 	-0.003632512574 	-1.411564681e-06 	0.01192399464 	1.014998545e-06 	2.273044789e-05
0.5945248701 	0.01130172034 	-0.002497768818 	-1.428839941e-06 	0.0112111726 	5.961852062e-07 	2.137161096e-05
0.6081639266 	0.010889544 	-0.001425321937 	-1.407246378e-06 	0.01083746604 	1.85090747e-07 	2.06592224e-05
0.6227723857 	0.01074604568 	-0.0004206267617 	-1.348004767e-06 	0.01073582136 	-1.756368028e-07 	2.046545938e-05
0.638419148 	0.01080941819 	0.0005172559002 	-1.2522162e-06 	0.01084210883 	-4.619916938e-07 	2.066807284e-05
0.6551780116 	0.01102938451 	0.001392439937 	-1.120950835e-06 	0.01110365472 	-6.62746933e-07 	2.116665201e-05
0.6731280194 	0.0113687824 	0.002211104592 	-9.556712043e-07 	0.01148099291 	-7.742951794e-07 	2.188596347e-05
0.6923538328 	0.0118025706 	0.002981083505 	-7.580794855e-07 	0.01194691963 	-7.970838794e-07 	2.277414929e-05
0.7129461301 	0.01231703704 	0.003712359618 	-5.306028809e-07 	0.01248555859 	-7.333383911e-07 	2.380094486e-05
0.7350020349 	0.0129002182 	0.00440630021 	-2.828844152e-07 	0.01308246364 	-5.885706851e-07 	2.493881178e-05
0.7570579485 	0.01352744803 	0.005046901893 	-3.852962672e-08 	0.01371123465 	-3.804159779e-07 	2.613742408e-05
0.7776502527 	0.01417778015 	0.00562883072 	1.796019177e-07 	0.01435171258 	-1.356568244e-07 	2.735835302e-05
0.7968760713 	0.01485450042 	0.006170206347 	3.622422133e-07 	0.01500956378 	1.24647617e-07 	2.861240025e-05
0.814826083 	0.01557197312 	0.006691325303 	5.069760562e-07 	0.01570168867 	3.856229671e-07 	2.993178266e-05
0.831584949 	0.01634318193 	0.007206032069 	6.142519742e-07 	0.01644361514 	6.343179637e-07 	3.134610072e-05
0.8472317127 	0.01717850426 	0.007723481159 	7.021045216e-07 	0.01724816927 	8.610596159e-07 	3.287980451e-05
0.8618401721 	0.01808533521 	0.00825924734 	7.615212613e-07 	0.01812426021 	1.059741653e-06 	3.454987734e-05
0.8754792281 	0.01906875842 	0.008801831358 	6.891095741e-07 	0.01907704657 	1.225615875e-06 	3.636615295e-05
0.8882132094 	0.02013021767 	0.009338659784 	6.22628811e-07 	0.02010929953 	1.348440525e-06 	3.8333914e-05
0.9001021759 	0.02125962657 	0.009875389432 	6.470688802e-07 	0.02121488541 	1.402797148e-06 	4.044146797e-05
0.9112022019 	0.02242940467 	0.01041569335 	6.341353425e-07 	0.02236911105 	1.375952521e-06 	4.264174284e-05
0.9215656407 	0.02359779784 	0.01095722404 	5.903830744e-07 	0.02353003564 	1.28356084e-06 	4.485478776e-05
0.9312413717 	0.02472085062 	0.01147915196 	5.266626297e-07 	0.02465195754 	1.148075131e-06 	4.699348273e-05
0.9402750304 	0.02576520694 	0.01196547342 	4.538975183e-07 	0.02569938109 	9.918929193e-07 	4.899016313e-05
0.9487092242 	0.02671139452 	0.01240661932 	3.815599466e-07 	0.02665062073 	8.351074901e-07 	5.080349028e-05
0.9565837329 	0.02754761801 	0.01279661256 	3.162358661e-07 	0.02749175199 	6.922595884e-07 	5.240692023e-05
0.9639356968 	0.0282089049 	0.01305557301 	2.380164022e-07 	0.02815610411 	5.747635006e-07 	5.367336001e-05
0.9688006083 	0.02866604083 	0.01320898484 	1.833489818e-07 	0.02861431157 	4.875138348e-07 	5.454683079e-05
0.9731064834 	0.02898972231 	0.01334032987 	1.621142038e-07 	0.02893811579 	4.179569407e-07 	5.516409162e-05
0.976917562 	0.02921518824 	0.01342974441 	1.357561639e-07 	0.02916341968 	3.552870314e-07 	5.559358347e-05
0.9802907021 	0.02933179431 	0.01347466165 	1.139290886e-07 	0.02927976447 	2.998688712e-07 	5.581536898e-05
0.9832762282 	0.0293201452 	0.01346817318 	9.59767234e-08 	0.02926786004 	2.516057349e-07 	5.579267581e-05
0.9859186816 	0.02914549782 	0.01339640639 	8.132795868e-08 	0.02909310259 	2.100633497e-07 	5.545953954e-05
0.9882574856 	0.02874488953 	0.01323829019 	6.785412419e-08 	0.02869272112 	1.744871894e-07 	5.469630118e-05
0.990327533 	0.02799283294 	0.01295699204 	6.129061823e-08 	0.02794152964 	1.455782428e-07 	5.326432145e-05
0.9921597073 	0.02657344341 	0.01234532344 	5.716104122e-08 	0.02652427712 	1.233225594e-07 	5.056264424e-05
0.9937813429 	0.02394425607 	0.0111289638 	4.934343341e-08 	0.02389959443 	1.066800812e-07 	4.555926954e-05
0.9948347186 	0.01990920022 	0.009261896279 	4.326395629e-08 	0.01987183796 	9.337555224e-08 	3.788124624e-05
0.9958880943 	0.01319634425 	0.005885552188 	3.313398757e-08 	0.01317146317 	7.26845035e-08 	2.510846963e-05
0.9969414701 	0.004926421825 	0.001896743181 	1.381905174e-08 	0.00491709803 	3.322499461e-08 	9.373355483e-06
0.9979948458 	0.0005206655006 	9.991222209e-05 	9.498446681e-10 	0.0005196762968 	4.065688193e-09 	9.906474582e-07
0.9990482216 	6.999635273e-06 	1.71472042e-07 	1.727587446e-12 	6.986318188e-06 	5.512743245e-11 	1.331786421e-08
0.9990482216 	6.999635273e-06 	1.71472042e-07 	1.727587446e-12 	6.986318188e-06 	5.512743245e-11 	1.331786421e-08
