0.4709558481 	4.834686143e-07 	-1.800142482e-09 	-5.330499507e-15 	4.825197347e-07 	4.643875622e-13 	9.198167237e-10
0.4711314108 	5.430464168e-06 	-7.891755155e-08 	-2.275251285e-13 	5.414984876e-06 	5.203911378e-12 	1.032246619e-08
0.4713069734 	3.033106371e-05 	-1.026274006e-06 	-2.866773716e-12 	3.011301243e-05 	2.868520507e-11 	5.740377117e-08
0.471482536 	0.000101558864 	-6.339208254e-06 	-1.696057045e-11 	9.952825439e-05 	9.220941222e-11 	1.897285153e-07
0.4716580986 	0.0002539278869 	-2.517124008e-05 	-6.327150017e-11 	0.0002416956004 	2.100459667e-10 	4.607389902e-07
0.4718336613 	0.000530318026 	-7.413629236e-05 	-1.705221267e-10 	0.0004786099086 	3.682837208e-10 	9.123635086e-07
0.4720092239 	0.0009818463582 	-0.0001751170355 	-3.57142377e-10 	0.0008165112029 	5.114345107e-10 	1.55649729e-06
0.4721847865 	0.001661927281 	-0.0003478995943 	-6.081017389e-10 	0.001239604675 	5.581383974e-10 	2.36303104e-06
0.4723603491 	0.002611227861 	-0.0006009105534 	-8.696976062e-10 	0.001713334842 	4.431834171e-10 	3.266092405e-06
0.4725359118 	0.003839842303 	-0.0009263924833 	-1.077059114e-09 	0.002196864516 	1.656197008e-10 	4.187834355e-06
0.4727114744 	0.005318974788 	-0.001304134574 	-1.187678315e-09 	0.002658611574 	-2.371014106e-10 	5.068052583e-06
0.472887037 	0.006975119368 	-0.001707480651 	-9.841534827e-10 	0.00309409689 	3.273647188e-10 	5.898208632e-06
0.4730625996 	0.008588775906 	-0.002095225049 	-7.418527876e-10 	0.00362342904 	1.077952561e-09 	6.90726283e-06
0.4732381623 	0.01009946096 	-0.002462768449 	-7.054376192e-10 	0.004258003293 	9.68904446e-10 	8.116937728e-06
0.4734137249 	0.01160493754 	-0.002829917304 	-6.271958257e-10 	0.004892795578 	7.763088816e-10 	9.327028254e-06
0.4735892875 	0.01308429725 	-0.003191084762 	-5.082832344e-10 	0.005517639438 	5.001952732e-10 	1.051815432e-05
0.4737648501 	0.01452190348 	-0.003541701887 	-3.621445666e-10 	0.006123855501 	1.73515021e-10 	1.167377062e-05
0.4739404128 	0.01590665026 	-0.003879418837 	-1.908617584e-10 	0.006707750914 	-2.025097402e-10 	1.278683756e-05
0.4741159754 	0.01723137388 	-0.00420251655 	7.392663752e-13 	0.007266377284 	-6.191662024e-10 	1.385173469e-05
0.474291538 	0.01849201287 	-0.00451000324 	2.077487137e-10 	0.007797995561 	-1.067010672e-09 	1.486514688e-05
0.4744671006 	0.01968686765 	-0.004801485338 	4.258731637e-10 	0.008301872976 	-1.537205098e-09 	1.582567728e-05
0.4746426632 	0.02081597021 	-0.005077039364 	6.518809831e-10 	0.008778024088 	-2.021916583e-09 	1.673335364e-05
0.4748182259 	0.02188057018 	-0.005337114951 	8.838291784e-10 	0.009226976506 	-2.514092201e-09 	1.758918173e-05
0.4749937885 	0.02288272824 	-0.005582476453 	1.121307513e-09 	0.009649599021 	-3.007224469e-09 	1.83948177e-05
0.4751693511 	0.02382500699 	-0.005814164811 	1.365955802e-09 	0.01004697232 	-3.495286658e-09 	1.915232166e-05
0.4753449137 	0.0247102565 	-0.006033467268 	1.622066336e-09 	0.0104202983 	-3.972937963e-09 	1.986398473e-05
0.4755204764 	0.02554152114 	-0.006240046766 	1.854933855e-09 	0.01077086031 	-4.436397497e-09 	2.053225336e-05
0.475696039 	0.02632208543 	-0.006431011963 	2.052025176e-09 	0.01110002876 	-4.884088019e-09 	2.115973992e-05
0.4758716016 	0.02705539666 	-0.006607871926 	2.238627725e-09 	0.01140917456 	-5.315048354e-09 	2.174905772e-05
0.4760471642 	0.02774466405 	-0.006774359137 	2.416904193e-09 	0.01169973723 	-5.734181251e-09 	2.230295093e-05
0.4762227269 	0.02847970635 	-0.006952248714 	2.611982943e-09 	0.01200989701 	-6.203489367e-09 	2.289420169e-05
0.4764955107 	0.02932863197 	-0.007157985064 	2.834430865e-09 	0.01236814372 	-6.751425607e-09 	2.357711949e-05
0.4767734216 	0.03019091369 	-0.007367103483 	3.047512457e-09 	0.01273168555 	-7.292263006e-09 	2.427013124e-05
0.4770565557 	0.03098852458 	-0.007560710636 	3.229423228e-09 	0.01306788491 	-7.775393919e-09 	2.491102067e-05
0.4773450114 	0.03172564739 	-0.007739821531 	3.381645998e-09 	0.01337870345 	-8.206362164e-09 	2.55035272e-05
0.4776388886 	0.03240619206 	-0.007905292861 	3.502555366e-09 	0.01366567383 	-8.581369223e-09 	2.60505725e-05
0.4779382892 	0.03303372817 	-0.008057946749 	3.590851594e-09 	0.0139302771 	-8.896701066e-09 	2.655497987e-05
0.4782433171 	0.03361148062 	-0.008198542636 	3.645688281e-09 	0.01417387875 	-9.149563924e-09 	2.701935231e-05
0.4785540779 	0.0341423817 	-0.00832777105 	3.665735069e-09 	0.01439770746 	-9.336884221e-09 	2.744603205e-05
0.4788706795 	0.03462950216 	-0.00844635954 	3.650479619e-09 	0.0146030488 	-9.459338427e-09 	2.783746971e-05
0.4791932316 	0.03507641964 	-0.00855516823 	3.59865843e-09 	0.01479142273 	-9.52241004e-09 	2.819656279e-05
0.4795218461 	0.0354865782 	-0.008655027233 	3.496718018e-09 	0.01496429082 	-9.510892988e-09 	2.852609741e-05
0.4798566368 	0.03586267729 	-0.008746582945 	3.325759146e-09 	0.01512278089 	-9.400409909e-09 	2.882822353e-05
0.48019772 	0.03620694076 	-0.008830370433 	3.078854769e-09 	0.01526782387 	-9.189431516e-09 	2.910471577e-05
0.4805452138 	0.03652138583 	-0.00890687985 	2.751438476e-09 	0.01540027382 	-8.862645571e-09 	2.935720219e-05
0.4808992388 	0.03680783841 	-0.008976555023 	2.362788553e-09 	0.01552090093 	-8.439978161e-09 	2.958715098e-05
0.4812599177 	0.03706794723 	-0.00903979882 	1.966187235e-09 	0.0156304042 	-8.002508469e-09 	2.979589465e-05
0.4816273755 	0.03730319843 	-0.009096975816 	1.591804751e-09 	0.01572941704 	-7.54498729e-09 	2.998464064e-05
0.4820017397 	0.03751493175 	-0.009148409177 	1.25640736e-09 	0.01581849876 	-7.069020059e-09 	3.015445516e-05
0.48238314 	0.03770435379 	-0.009194387814 	9.844695322e-10 	0.01589815236 	-6.660621834e-09 	3.030629706e-05
0.4827717088 	0.03787254968 	-0.009235171536 	7.763049799e-10 	0.01596883292 	-6.355965423e-09 	3.044103385e-05
0.4831675807 	0.0380204942 	-0.009270992555 	5.369823478e-10 	0.01603094855 	-5.958118576e-09 	3.055944351e-05
0.4835708931 	0.03814906279 	-0.009302056511 	2.344065104e-10 	0.01608486011 	-5.465742275e-09 	3.066221393e-05
0.4839817856 	0.03825903817 	-0.009328546986 	-6.864635355e-11 	0.01613088755 	-5.085934447e-09 	3.074995502e-05
0.4844004009 	0.0383511173 	-0.009350635046 	-4.40623578e-10 	0.01616932952 	-4.582172368e-09 	3.08232361e-05
0.4848268841 	0.03842592218 	-0.009368474949 	-8.81689808e-10 	0.01620045178 	-3.899346205e-09 	3.088256377e-05
0.485261383 	0.03848400794 	-0.009382203303 	-1.330793251e-09 	0.0162244879 	-3.189210787e-09 	3.09283833e-05
0.4857040484 	0.03852586979 	-0.009391943036 	-1.810914952e-09 	0.01624164982 	-2.402463583e-09 	3.09610987e-05
0.4861550336 	0.03855194817 	-0.009397802874 	-2.339717674e-09 	0.01625212499 	-1.523674842e-09 	3.098106728e-05
0.4866144951 	0.0385626324 	-0.009399878962 	-2.927046637e-09 	0.01625607887 	-5.567718946e-10 	3.098860447e-05
0.4870825921 	0.03855826403 	-0.009398255847 	-3.572791049e-09 	0.01625365663 	4.857348381e-10 	3.0983987e-05
0.487559487 	0.03853914117 	-0.009393006222 	-4.283650159e-09 	0.01624498428 	1.616843527e-09 	3.09674551e-05
0.4880453452 	0.03850552233 	-0.009384190542 	-5.064481416e-09 	0.01623016853 	2.838004494e-09 	3.093921217e-05
0.4885403351 	0.03845762797 	-0.009371858768 	-5.912615138e-09 	0.01620929852 	4.137736381e-09 	3.089942811e-05
0.4890446283 	0.03839564155 	-0.009356052394 	-6.824664618e-09 	0.01618244848 	5.517648393e-09 	3.084824447e-05
0.4895583997 	0.0383197111 	-0.009336805287 	-7.794418307e-09 	0.01614967876 	6.97903363e-09 	3.078577628e-05
0.4900818274 	0.0382299509 	-0.009314144046 	-8.815686723e-09 	0.01611103642 	8.52133526e-09 	3.071211324e-05
0.4906150929 	0.03812644315 	-0.009288088166 	-9.885655161e-09 	0.01606655573 	1.014619754e-08 	3.06273207e-05
0.4911583811 	0.03800923955 	-0.009258650137 	-1.100490484e-08 	0.01601625856 	1.185750492e-08 	3.053144031e-05
0.4917118805 	0.03787836258 	-0.009225835562 	-1.217548065e-08 	0.01596015467 	1.365982994e-08 	3.04244907e-05
0.4922757829 	0.03773380657 	-0.009189643337 	-1.339817989e-08 	0.01589824214 	1.555613157e-08 	3.030646821e-05
0.4928502838 	0.0375755386 	-0.009150065894 	-1.467026751e-08 	0.01583050771 	1.754581965e-08 	3.017734756e-05
0.4934355824 	0.03740349935 	-0.009107089429 	-1.598571239e-08 	0.0157569272 	1.96250712e-08 	3.003708265e-05
0.4940318817 	0.03721760394 	-0.009060694136 	-1.733905314e-08 	0.01567746586 	2.179013225e-08 	2.988560725e-05
0.4946393885 	0.03701774289 	-0.009010854414 	-1.872990605e-08 	0.01559207879 	2.404133176e-08 	2.972283577e-05
0.4952583133 	0.03680378305 	-0.008957539078 	-2.016413728e-08 	0.0155007113 	2.638463021e-08 	2.954866394e-05
0.4958888709 	0.03657556879 	-0.008900711624 	-2.16512429e-08 	0.01540329941 	2.882985793e-08 	2.93629698e-05
0.4965312797 	0.03633292321 	-0.008840330612 	-2.320049308e-08 	0.01529977039 	3.138743195e-08 	2.916561472e-05
0.4971857627 	0.03607564949 	-0.008776350142 	-2.481840519e-08 	0.01519004354 	3.406581271e-08 	2.895644485e-05
0.4978525466 	0.0358035327 	-0.00870872039 	-2.650824409e-08 	0.01507403097 	3.687065246e-08 	2.873529265e-05
0.4985318627 	0.03551634187 	-0.008637388178 	-2.827093312e-08 	0.01495163859 	3.980530083e-08 	2.850197875e-05
0.4992239466 	0.03521383268 	-0.008562297611 	-3.010644364e-08 	0.01482276719 	4.2871858e-08 	2.825631403e-05
0.4999290382 	0.03489575057 	-0.008483390791 	-3.201483679e-08 	0.0146873137 	4.607207954e-08 	2.799810204e-05
0.5006473819 	0.03456183434 	-0.008400608641 	-3.399664207e-08 	0.01454517268 	4.940777499e-08 	2.772714175e-05
0.501379227 	0.03421182001 	-0.008313891828 	-3.605269279e-08 	0.01439623787 	5.288068335e-08 	2.744323061e-05
0.502124827 	0.03384544448 	-0.008223181832 	-3.818381697e-08 	0.01424040415 	5.649222892e-08 	2.714616823e-05
0.5028844406 	0.0334624482 	-0.008128421893 	-4.039119936e-08 	0.01407756927 	6.024488228e-08 	2.683575969e-05
0.5036583311 	0.03306257556 	-0.008029555215 	-4.267781511e-08 	0.01390762835 	6.414631291e-08 	2.651180506e-05
0.5044467669 	0.03264557077 	-0.007926517748 	-4.503925156e-08 	0.01373045446 	6.818495034e-08 	2.617406238e-05
0.5052500214 	0.03221116069 	-0.007819262871 	-4.742909521e-08 	0.01354596966 	7.223661957e-08 	2.582238308e-05
0.506068373 	0.031700246 	-0.007693267083 	-5.01248917e-08 	0.01332920765 	7.674018421e-08 	2.540917444e-05
0.507324668 	0.03104721236 	-0.007532379573 	-5.354941798e-08 	0.01305230672 	8.251834737e-08 	2.488132431e-05
0.5085949819 	0.03030653581 	-0.007350045377 	-5.748477912e-08 	0.0127383192 	8.930242842e-08 	2.428277684e-05
0.5098794711 	0.02953782013 	-0.007161005509 	-6.156427262e-08 	0.01241262934 	9.641557291e-08 	2.366192143e-05
0.5111782938 	0.02874154348 	-0.006965411069 	-6.573376649e-08 	0.01207550176 	1.037086981e-07 	2.301926257e-05
0.5124916099 	0.02791793814 	-0.006763323363 	-6.999855243e-08 	0.01172701667 	1.111947521e-07 	2.235495314e-05
0.5138195812 	0.02706693616 	-0.006554740358 	-7.437044699e-08 	0.01136715581 	1.188944308e-07 	2.166895832e-05
0.5151623712 	0.02618813202 	-0.006339592681 	-7.887048909e-08 	0.01099580013 	1.268446544e-07 	2.096105117e-05
0.5165201452 	0.02528082945 	-0.006117729957 	-8.352889336e-08 	0.01061267862 	1.351113474e-07 	2.023071509e-05
0.5178930705 	0.02434479538 	-0.005889073681 	-8.794242036e-08 	0.01021759537 	1.429861134e-07 	1.947757662e-05
0.5192813161 	0.02338552206 	-0.005654983225 	-9.138218197e-08 	0.009812873788 	1.491735035e-07 	1.870606479e-05
0.520685053 	0.02241501202 	-0.005418462732 	-9.372768868e-08 	0.009403746338 	1.534611906e-07 	1.792615416e-05
0.522104454 	0.02144361694 	-0.005182044436 	-9.520689234e-08 	0.008994589164 	1.562453261e-07 	1.714618686e-05
0.523539694 	0.02047899759 	-0.004947547317 	-9.583050436e-08 	0.0085885258 	1.575198581e-07 	1.637211723e-05
0.5249909497 	0.01952938477 	-0.004716946838 	-9.551084519e-08 	0.008189003687 	1.57100686e-07 	1.561051704e-05
0.5264583998 	0.01860398642 	-0.004492461535 	-9.408495861e-08 	0.007799920737 	1.546672679e-07 	1.48688168e-05
0.527942225 	0.01771356354 	-0.004276706404 	-9.135354847e-08 	0.007425882967 	1.498226823e-07 	1.415579685e-05
0.5294426081 	0.01687002359 	-0.004072082213 	-8.798779822e-08 	0.007070625162 	1.444756222e-07 	1.347857674e-05
0.5309597337 	0.0160845352 	-0.003881271915 	-8.201275156e-08 	0.006738784848 	1.33040804e-07 	1.284599687e-05
0.5324937889 	0.0153640505 	-0.003708605429 	-7.401951199e-08 	0.006440590914 	1.168246594e-07 	1.227755635e-05
0.5340449624 	0.01465106964 	-0.00354215357 	-8.594431836e-08 	0.006218307672 	4.226657493e-08 	1.185382271e-05
0.5356134452 	0.01384110151 	-0.003355642678 	-9.601355349e-08 	0.006130125775 	-9.656851898e-09 	1.168572351e-05
0.5371994306 	0.01301731695 	-0.003163824092 	-8.769844711e-08 	0.006101954146 	5.79106228e-09 	1.163202055e-05
0.5388031139 	0.01228021245 	-0.002986814981 	-8.48527837e-08 	0.006056067611 	8.953468254e-09 	1.154454806e-05
0.5404246925 	0.01159786556 	-0.002815536561 	-8.360557801e-08 	0.006009859822 	1.040944359e-08 	1.145646317e-05
0.5420643661 	0.01096479058 	-0.002648484991 	-8.152531434e-08 	0.005967661914 	6.31884838e-09 	1.137602223e-05
0.5437223366 	0.0103792948 	-0.002486499731 	-7.970284227e-08 	0.005935447051 	1.699679564e-09 	1.131461175e-05
0.5453988083 	0.009841258614 	-0.002329254005 	-7.776279171e-08 	0.005912890571 	-3.10323839e-09 	1.127161283e-05
0.5470939875 	0.009350842073 	-0.002176858741 	-7.568684488e-08 	0.005899497647 	-7.928753877e-09 	1.12460822e-05
0.5488080831 	0.008907573364 	-0.002029393526 	-7.349009573e-08 	0.005894699037 	-1.265393712e-08 	1.123693471e-05
0.5505413061 	0.008510348996 	-0.001886888278 	-7.118525354e-08 	0.005897840017 	-1.718987949e-08 	1.124292229e-05
0.5522938699 	0.008157527041 	-0.001749342099 	-6.877157741e-08 	0.00590819982 	-2.143204291e-08 	1.126267096e-05
0.5540659904 	0.007847072972 	-0.001616734725 	-6.624310957e-08 	0.00592497755 	-2.531749478e-08 	1.129465397e-05
0.5558578859 	0.007576782834 	-0.001489104383 	-6.337074899e-08 	0.005947402738 	-2.871957126e-08 	1.133740261e-05
0.5576697768 	0.007344894003 	-0.001366976042 	-5.999501366e-08 	0.005974664567 	-3.186906412e-08 	1.138937124e-05
0.5595018865 	0.007149114877 	-0.0012500808 	-5.697748316e-08 	0.006007269138 	-3.573742602e-08 	1.145152461e-05
0.5613544406 	0.006985998492 	-0.001136792147 	-5.465730519e-08 	0.006046549287 	-4.005889021e-08 	1.152640349e-05
0.563227667 	0.006852573658 	-0.001026502777 	-5.228871578e-08 	0.006091813764 	-4.364165838e-08 	1.161269017e-05
0.5651217966 	0.006746195414 	-0.000919455887 	-4.984195257e-08 	0.006141260649 	-4.640810238e-08 	1.170694967e-05
0.5670370626 	0.006663958466 	-0.0008154660716 	-4.756352343e-08 	0.006193591663 	-4.870530579e-08 	1.180670713e-05
0.5689737009 	0.006603182191 	-0.0007142522863 	-4.547263361e-08 	0.006247877824 	-5.06412171e-08 	1.191019164e-05
0.5709319499 	0.00656150348 	-0.0006155653291 	-4.362206769e-08 	0.006303429808 	-5.222548625e-08 	1.201608916e-05
0.5729120508 	0.006536847127 	-0.0005191819466 	-4.195326602e-08 	0.006359687968 	-5.35702559e-08 	1.212333285e-05
0.5749142474 	0.00652739366 	-0.0004249048463 	-4.036600705e-08 	0.006416199331 	-5.473976233e-08 	1.223105922e-05
0.5769387863 	0.006531547648 	-0.0003325608185 	-3.884180806e-08 	0.006472597425 	-5.571369989e-08 	1.233856966e-05
0.5789859169 	0.006547908016 	-0.0002419981854 	-3.738824944e-08 	0.006528583158 	-5.653295713e-08 	1.244529402e-05
0.5810558911 	0.006575242339 	-0.0001530837197 	-3.600588845e-08 	0.006583912926 	-5.723951306e-08 	1.255076794e-05
0.583148964 	0.00661246468 	-6.570244455e-05 	-3.468461184e-08 	0.006638384281 	-5.78559875e-08 	1.265460548e-05
0.5852653933 	0.006658616191 	2.024442665e-05 	-3.342606045e-08 	0.006691833133 	-5.840103801e-08 	1.275649385e-05
0.5874054395 	0.006712847449 	0.0001048536227 	-3.224321447e-08 	0.006744126831 	-5.888934703e-08 	1.285618017e-05
0.5895693664 	0.00677440602 	0.0001882156904 	-3.112180526e-08 	0.006795148233 	-5.933122775e-08 	1.295344115e-05
0.5917574402 	0.006842623259 	0.0002703977645 	-3.00495938e-08 	0.006844803627 	-5.973612119e-08 	1.304809813e-05
0.5939699306 	0.006916901594 	0.0003514560256 	-2.902936021e-08 	0.006893016861 	-6.011160924e-08 	1.314000595e-05
0.5962071099 	0.006996706639 	0.0004314449203 	-2.805920638e-08 	0.00693972107 	-6.04638361e-08 	1.322903716e-05
0.5984692536 	0.007081558919 	0.0005104121832 	-2.713759741e-08 	0.00698486193 	-6.079813243e-08 	1.331508818e-05
0.6007566404 	0.007171026911 	0.0005883994793 	-2.626323861e-08 	0.007028393474 	-6.111887531e-08 	1.33980714e-05
0.6030695519 	0.00726472102 	0.0006654430127 	-2.543503573e-08 	0.007070277084 	-6.142968998e-08 	1.34779132e-05
0.6054082729 	0.007362288371 	0.0007415740297 	-2.465205465e-08 	0.007110480323 	-6.173358349e-08 	1.355455175e-05
0.6077730914 	0.007463408274 	0.000816819255 	-2.391347899e-08 	0.007148976023 	-6.203305918e-08 	1.362793525e-05
0.6101642987 	0.007567788285 	0.0008912012663 	-2.32185398e-08 	0.007185741558 	-6.233021143e-08 	1.369802058e-05
0.6125821893 	0.007675160752 	0.0009647388206 	-2.256636802e-08 	0.007220758281 	-6.262678539e-08 	1.376477219e-05
0.6150270608 	0.007785279795 	0.001037447134 	-2.195594193e-08 	0.007254011084 	-6.292416521e-08 	1.382816127e-05
0.6174992144 	0.007897918639 	0.001109338123 	-2.138629535e-08 	0.007285488074 	-6.322336104e-08 	1.388816516e-05
0.6199989545 	0.008012867257 	0.001180420607 	-2.085665414e-08 	0.007315180324 	-6.352510232e-08 	1.394476685e-05
0.622526589 	0.008129930267 	0.001250700503 	-2.036637977e-08 	0.007343081707 	-6.38299381e-08 	1.399795464e-05
0.625082429 	0.008248925064 	0.001320180987 	-1.991490989e-08 	0.007369188778 	-6.413828016e-08 	1.404772197e-05
0.6276667894 	0.008369680133 	0.001388862642 	-1.95017101e-08 	0.007393500709 	-6.445043331e-08 	1.409406727e-05
0.6302799884 	0.008492033532 	0.001456743589 	-1.912623765e-08 	0.00741601926 	-6.476661205e-08 	1.413699389e-05
0.6329223478 	0.008615831516 	0.001523819613 	-1.878791901e-08 	0.007436748777 	-6.508695015e-08 	1.417651011e-05
0.6355941931 	0.008740927287 	0.001590084273 	-1.848613452e-08 	0.00745569622 	-6.541151062e-08 	1.42126292e-05
0.6382958531 	0.008867179853 	0.001655529012 	-1.822020243e-08 	0.007472871202 	-6.574029779e-08 	1.424536949e-05
0.6410276607 	0.008994452982 	0.001720143256 	-1.798936398e-08 	0.007488286047 	-6.607326753e-08 	1.427475447e-05
0.6437899523 	0.009122614247 	0.001783914517 	-1.779277422e-08 	0.007501955858 	-6.641033552e-08 	1.430081293e-05
0.646583068 	0.009251534148 	0.001846828495 	-1.762949374e-08 	0.007513898589 	-6.675138858e-08 	1.432357909e-05
0.6494073518 	0.009381085307 	0.001908869176 	-1.749847611e-08 	0.007524135119 	-6.709629916e-08 	1.434309276e-05
0.6522631514 	0.009511141735 	0.001970018934 	-1.739855523e-08 	0.007532689334 	-6.744493715e-08 	1.435939947e-05
0.6551508186 	0.009641578165 	0.002030258642 	-1.732843783e-08 	0.0075395882 	-6.779717934e-08 	1.437255063e-05
0.658070709 	0.009772269451 	0.002089567784 	-1.728669612e-08 	0.007544861831 	-6.815292157e-08 	1.438260364e-05
0.6610231822 	0.009903090035 	0.002147924568 	-1.727175723e-08 	0.007548543554 	-6.851209229e-08 	1.438962202e-05
0.6640086017 	0.01003391348 	0.002205306058 	-1.728189505e-08 	0.007550669958 	-6.887466213e-08 	1.439367554e-05
0.6670273351 	0.01016461208 	0.002261688306 	-1.731522635e-08 	0.007551280935 	-6.9240652e-08 	1.439484023e-05
0.6700797543 	0.01029505653 	0.0023170465 	-1.736970443e-08 	0.007550419693 	-6.961014399e-08 	1.439319847e-05
0.6731662352 	0.01042511569 	0.002371355117 	-1.744311129e-08 	0.00754813276 	-6.998328918e-08 	1.438883893e-05
0.6762871577 	0.01055465646 	0.002424588097 	-1.753305514e-08 	0.00754446995 	-7.036030835e-08 	1.43818566e-05
0.6794429063 	0.01068354366 	0.002476719024 	-1.763696952e-08 	0.007539484311 	-7.074149026e-08 	1.437235259e-05
0.6826338695 	0.01081164016 	0.00252772133 	-1.775211072e-08 	0.007533232024 	-7.112718367e-08 	1.436043399e-05
0.6858604404 	0.01093880697 	0.002577568506 	-1.787556112e-08 	0.007525772275 	-7.151777003e-08 	1.434621364e-05
0.6891230163 	0.01106490356 	0.002626234344 	-1.800424655e-08 	0.007517167071 	-7.191360563e-08 	1.432980973e-05
0.6924219988 	0.01118978827 	0.00267369319 	-1.813498131e-08 	0.007507481016 	-7.231489684e-08 	1.431134541e-05
0.6957577944 	0.01131331885 	0.002719920221 	-1.826461268e-08 	0.007496781029 	-7.272134776e-08 	1.429094826e-05
0.6991308138 	0.01143535322 	0.002764891755 	-1.839035217e-08 	0.007485136023 	-7.313094855e-08 	1.426874965e-05
0.7025414724 	0.01155575026 	0.00280858559 	-1.851071349e-08 	0.007472616536 	-7.353796255e-08 	1.424488402e-05
0.7059901901 	0.01167437086 	0.00285098139 	-1.86280186e-08 	0.007459294332 	-7.39317999e-08 	1.42194882e-05
0.7094773917 	0.01179107917 	0.002892061216 	-1.874551201e-08 	0.007445241909 	-7.430046564e-08 	1.419270038e-05
0.7130035066 	0.01190574495 	0.002931810102 	-1.88523754e-08 	0.007430530979 	-7.466030108e-08 	1.416465726e-05
0.7165689691 	0.01201824588 	0.002970215806 	-1.892702675e-08 	0.007415231425 	-7.504789747e-08 	1.413549205e-05
0.7201742182 	0.01212846825 	0.003007268905 	-1.896292384e-08 	0.007399411628 	-7.546664881e-08 	1.410533512e-05
0.7238196978 	0.01223630867 	0.003042963858 	-1.896640414e-08 	0.007383137733 	-7.590030092e-08 	1.407431256e-05
0.727505857 	0.01234167656 	0.003077299781 	-1.894022462e-08 	0.007366473764 	-7.634053017e-08 	1.40425464e-05
0.7312331497 	0.01244449395 	0.003110279906 	-1.888300164e-08 	0.007349483598 	-7.678735687e-08 	1.401015842e-05
0.7350020349 	0.01254442422 	0.003141825257 	-1.879122999e-08 	0.007332284104 	-7.725280883e-08 	1.397737141e-05
0.7387709215 	0.01264061972 	0.003171702643 	-1.865932216e-08 	0.007315101081 	-7.775133149e-08 	1.394461579e-05
0.7424982157 	0.01273238675 	0.003199740708 	-1.847691884e-08 	0.007298147682 	-7.829235759e-08 	1.39122979e-05
0.7461843763 	0.01281970157 	0.003225981285 	-1.8233417e-08 	0.007281509664 	-7.887837171e-08 	1.388058121e-05
0.7498298574 	0.012902823 	0.003250548814 	-1.793741065e-08 	0.007265205952 	-7.947226574e-08 	1.38495018e-05
0.7534351078 	0.01298202318 	0.003273567441 	-1.76135255e-08 	0.007249242845 	-8.00134299e-08 	1.381907169e-05
0.7570005716 	0.01305758265 	0.003295159401 	-1.726749658e-08 	0.007233619227 	-8.049003741e-08 	1.378928873e-05
0.7605266877 	0.01312978832 	0.003315443079 	-1.688601109e-08 	0.007218328263 	-8.092401522e-08 	1.37601399e-05
0.7640138905 	0.0131989323 	0.003334533008 	-1.645865211e-08 	0.007203358188 	-8.133260035e-08 	1.373160278e-05
0.7674626093 	0.01326531313 	0.003352540705 	-1.598120877e-08 	0.007188691865 	-8.172324425e-08 	1.370364469e-05
0.770873269 	0.01332923601 	0.003369575657 	-1.545612526e-08 	0.007174306865 	-8.209018212e-08 	1.367622288e-05
0.7742462894 	0.01339101083 	0.00338574533 	-1.488874778e-08 	0.007160177132 	-8.242382474e-08 	1.364928768e-05
0.777582086 	0.01345095004 	0.0034011546 	-1.428278132e-08 	0.007146274876 	-8.271688907e-08 	1.362278612e-05
0.7808810695 	0.01350936724 	0.003415905488 	-1.364021825e-08 	0.007132571955 	-8.296477622e-08 	1.359666454e-05
0.7841436462 	0.01356657616 	0.0034300971 	-1.296246093e-08 	0.00711904088 	-8.316419185e-08 	1.357087055e-05
0.787370218 	0.01362288987 	0.003443825634 	-1.225095546e-08 	0.007105655605 	-8.331194776e-08 	1.35453545e-05
0.7905611821 	0.01367862012 	0.0034571844 	-1.150734926e-08 	0.00709239225 	-8.340466662e-08 	1.352007086e-05
0.7937169314 	0.01373407671 	0.003470263825 	-1.073344408e-08 	0.007079229768 	-8.343885948e-08 	1.349497951e-05
0.7968378547 	0.01378956688 	0.003483151464 	-9.931139022e-09 	0.007066150555 	-8.341104415e-08 	1.347004689e-05
0.7999243362 	0.01384539482 	0.003495932001 	-9.102397152e-09 	0.007053141021 	-8.331781611e-08 	1.34452471e-05
0.8029767561 	0.01390186116 	0.00350868725 	-8.249220111e-09 	0.007040192114 	-8.315588372e-08 	1.342056289e-05
0.8059954902 	0.01395926252 	0.003521496147 	-7.373621829e-09 	0.007027299828 	-8.292208242e-08 	1.339598661e-05
0.8089809102 	0.01401789097 	0.00353443474 	-6.477606303e-09 	0.007014465693 	-8.261335862e-08 	1.337152118e-05
0.8119333839 	0.01407803361 	0.003547576173 	-5.563157374e-09 	0.007001697275 	-8.222670963e-08 	1.334718103e-05
0.8148532749 	0.01413997195 	0.003560990656 	-4.632242875e-09 	0.0069890087 	-8.175907342e-08 	1.332299308e-05
0.8177409426 	0.01420398127 	0.003574745433 	-3.686831208e-09 	0.006976421237 	-8.120716426e-08 	1.329899787e-05
0.8205967427 	0.01427032984 	0.003588904733 	-2.72891912e-09 	0.006963963977 	-8.056724576e-08 	1.327525087e-05
0.8234210268 	0.01433927792 	0.003603529697 	-1.760571082e-09 	0.006951674643 	-7.983482895e-08 	1.325182399e-05
0.8262141429 	0.01441107653 	0.003618678289 	-7.839712296e-10 	0.00693960059 	-7.900427676e-08 	1.322880749e-05
0.8289764348 	0.01448596588 	0.003634405169 	1.985099745e-10 	0.006927800072 	-7.80682863e-08 	1.320631242e-05
0.8317082427 	0.01456417329 	0.003650761528 	1.184230648e-09 	0.006916343834 	-7.701721141e-08 	1.318447365e-05
0.8344099031 	0.01464591062 	0.003667794878 	2.17017025e-09 	0.006905317164 	-7.583817896e-08 	1.316345375e-05
0.8370817486 	0.01473137097 	0.003685548775 	3.152796566e-09 	0.00689482253 	-7.451393808e-08 	1.314344806e-05
0.8397241082 	0.01482072435 	0.00370406247 	4.127901691e-09 	0.006884982959 	-7.302136203e-08 	1.31246911e-05
0.8423373074 	0.01491411228 	0.003723370465 	5.090399784e-09 	0.006875946415 	-7.13294971e-08 	1.310746494e-05
0.844921668 	0.01501164078 	0.003743501955 	6.034076396e-09 	0.006867891405 	-6.939700793e-08 	1.309210985e-05
0.8474775082 	0.01511337155 	0.003764480115 	6.951272214e-09 	0.006861034182 	-6.716876874e-08 	1.307903808e-05
0.8500051427 	0.01521931073 	0.003786321219 	7.832485083e-09 	0.006855637959 	-6.457113492e-08 	1.306875138e-05
0.8525048829 	0.01532939475 	0.003809033529 	8.665802205e-09 	0.006852024626 	-6.15052985e-08 	1.306186336e-05
0.8549770366 	0.01544347251 	0.003832615918 	9.436172203e-09 	0.006850589671 	-5.78377963e-08 	1.305912794e-05
0.8574219081 	0.0155612835 	0.003857056429 	1.012580833e-08 	0.006851821277 	-5.338841345e-08 	1.306147572e-05
0.8598397987 	0.01568243332 	0.003882330727 	1.071074762e-08 	0.006856321879 	-4.79366966e-08 	1.307005512e-05
0.862231006 	0.01580637408 	0.003908402053 	1.117385571e-08 	0.006864827741 	-4.123029372e-08 	1.308626966e-05
0.8645958245 	0.01593244676 	0.003935241253 	1.15850383e-08 	0.00687820518 	-3.312484431e-08 	1.311177077e-05
0.8669345455 	0.01606005183 	0.003962785373 	1.159659464e-08 	0.006897143369 	-2.496125829e-08 	1.314787222e-05
0.8692474569 	0.01618897707 	0.003990984226 	1.195175932e-08 	0.006921907687 	-1.614599234e-08 	1.31950799e-05
0.8715348435 	0.01632116801 	0.004020390352 	1.421844525e-08 	0.006951644942 	-1.178121825e-08 	1.325176737e-05
0.8737969871 	0.01645705943 	0.004050936455 	1.17546251e-08 	0.006986570245 	5.583905188e-09 	1.33183447e-05
0.8760341663 	0.0165905735 	0.004080836299 	8.311458388e-09 	0.007031311836 	2.527276337e-08 	1.340363461e-05
0.8782466565 	0.01672452112 	0.004110655098 	1.023713237e-08 	0.007084444609 	2.951188952e-08 	1.350492044e-05
0.8804347301 	0.01686661605 	0.004142278699 	1.217261056e-08 	0.007141211475 	3.319435047e-08 	1.361313387e-05
0.8825986568 	0.01701741295 	0.004175787469 	1.394565345e-08 	0.007201480626 	3.605955594e-08 	1.372802362e-05
0.8847387028 	0.01717743429 	0.004211273158 	1.607928569e-08 	0.007265263959 	3.973148344e-08 	1.384961238e-05
0.8868551318 	0.01734723893 	0.004248986237 	1.835202065e-08 	0.007333036647 	4.359867926e-08 	1.397880596e-05
0.8889482045 	0.01752743928 	0.004289103679 	2.075572237e-08 	0.007405083959 	4.765145621e-08 	1.411614816e-05
0.8910181784 	0.01771868491 	0.004331804481 	2.327356322e-08 	0.007481697371 	5.187015363e-08 	1.426219462e-05
0.8930653087 	0.01792165494 	0.004377276533 	2.590430285e-08 	0.007563185289 	5.62732276e-08 	1.441753324e-05
0.8950898473 	0.01813704739 	0.004425715529 	2.866202706e-08 	0.007649868518 	6.088766959e-08 	1.458277557e-05
0.8970920436 	0.01836556333 	0.00447732189 	3.153821324e-08 	0.007742071488 	6.566701673e-08 	1.475854005e-05
0.8990721441 	0.01860788298 	0.004532297536 	3.451455352e-08 	0.007840116129 	7.057824395e-08 	1.494544039e-05
0.9010303927 	0.01886463923 	0.004590837451 	3.755609416e-08 	0.007944309344 	7.558998596e-08 	1.514406162e-05
0.9029670306 	0.01913638863 	0.004653118188 	4.060120635e-08 	0.008054925058 	8.063127156e-08 	1.535492591e-05
0.9048822962 	0.01942357717 	0.004719288243 	4.360948678e-08 	0.00817218901 	8.564135915e-08 	1.55784636e-05
0.9067764254 	0.01972650652 	0.004789458405 	4.657254571e-08 	0.008296263387 	9.057669353e-08 	1.581498384e-05
0.9086496514 	0.02004530307 	0.004863692039 	4.947727919e-08 	0.008427231906 	9.539165144e-08 	1.606464624e-05
0.910502205 	0.02037989208 	0.004941997399 	5.228922862e-08 	0.008565087535 	1.000219915e-07 	1.632743738e-05
0.9123343142 	0.02072997893 	0.005024322416 	5.495990985e-08 	0.008709723923 	1.043912627e-07 	1.660315454e-05
0.9141462048 	0.02109504063 	0.00511055265 	5.744250036e-08 	0.008860931846 	1.084265457e-07 	1.689139887e-05
0.9159380997 	0.02147432988 	0.005200513198 	5.970373943e-08 	0.009018402061 	1.120685053e-07 	1.719158086e-05
0.9177102197 	0.02186689094 	0.00529397383 	6.172351365e-08 	0.009181733103 	1.152709897e-07 	1.750293523e-05
0.9194627831 	0.02227158312 	0.005390655737 	6.34744776e-08 	0.009350442157 	1.179913094e-07 	1.782454157e-05
0.9211960055 	0.02268710755 	0.005490238949 	6.491854502e-08 	0.009523977562 	1.20183315e-07 	1.815534829e-05
0.9229101006 	0.02311203605 	0.005592369657 	6.602790036e-08 	0.009701730945 	1.218115963e-07 	1.849419564e-05
0.9246052793 	0.02354484354 	0.005696668346 	6.679151889e-08 	0.009883050981 	1.228622418e-07 	1.883984202e-05
0.9262817504 	0.02398394487 	0.005802739382 	6.721140567e-08 	0.01006725969 	1.233387661e-07 	1.919099502e-05
0.9279397204 	0.02442773285 	0.005910180868 	6.729835736e-08 	0.01025366906 	1.232582038e-07 	1.95463431e-05
0.9295793934 	0.02487461202 	0.006018593332 	6.706853403e-08 	0.01044159573 	1.22646798e-07 	1.990458355e-05