0.3985144112 	6.092695467e-08 	8.903590604e-12 	3.362786451e-14 	6.080434595e-08 	-8.434738721e-11 	1.159099831e-10
0.3985144112 	6.092695467e-08 	8.903590604e-12 	3.362786451e-14 	6.080434595e-08 	-8.434738722e-11 	1.159099831e-10
0.3987124635 	7.849143419e-07 	1.873171479e-10 	2.261642829e-12 	7.832542388e-07 	-1.032762544e-09 	1.493100273e-09
0.3989105207 	4.567917085e-06 	-1.210403944e-09 	3.718169337e-11 	4.559238351e-06 	-5.827185826e-09 	8.691175471e-09
0.3991085821 	1.558992728e-05 	-3.22211878e-08 	2.744953687e-10 	1.557508529e-05 	-1.938196215e-08 	2.969044144e-08
0.3993066473 	3.911899668e-05 	-2.378812232e-07 	1.280352015e-09 	3.916381032e-05 	-4.755573568e-08 	7.465710748e-08
0.3995047155 	8.097233423e-05 	-1.080561652e-06 	4.437720029e-09 	8.134570046e-05 	-9.643385172e-08 	1.55067514e-07
0.3997027863 	0.0001473085291 	-3.672136481e-06 	1.249740685e-08 	0.0001486577681 	-1.71838147e-07 	2.833830234e-07
0.399900859 	0.0002445719516 	-1.022712427e-05 	3.013080084e-08 	0.000247915261 	-2.784566475e-07 	4.72595392e-07
0.4000989332 	0.0003796121048 	-2.455198399e-05 	6.415336979e-08 	0.0003856626869 	-4.182615159e-07 	7.351802706e-07
0.4002970082 	0.000559991142 	-5.235257701e-05 	1.22848246e-07 	0.0005671418838 	-5.883361538e-07 	1.08113006e-06
0.4004950834 	0.0007943069519 	-0.0001010117157 	2.138646114e-07 	0.0007948553317 	-7.790993415e-07 	1.515215181e-06
0.4006931583 	0.001092083637 	-0.0001785442089 	3.40935481e-07 	0.001067243182 	-9.746331671e-07 	2.03446213e-06
0.4008912323 	0.001462742745 	-0.0002918385317 	5.009773832e-07 	0.001378288451 	-1.156166382e-06 	2.627400862e-06
0.4010893049 	0.001913681298 	-0.0004448665522 	6.836870383e-07 	0.0017185497 	-1.307469773e-06 	3.276033374e-06
0.4012873754 	0.002448272722 	-0.0006377463978 	8.743401715e-07 	0.002077257446 	-1.419077836e-06 	3.959830036e-06
0.4014854434 	0.00306486773 	-0.0008670680628 	1.058153307e-06 	0.002444462793 	-1.489134098e-06 	4.659825487e-06
0.4016835082 	0.003757257335 	-0.00112713952 	1.223718073e-06 	0.002812380029 	-1.521323785e-06 	5.361177996e-06
0.4018815693 	0.004516187383 	-0.001411440843 	1.364258626e-06 	0.003175716794 	-1.521875926e-06 	6.053798854e-06
0.4020796261 	0.005331141526 	-0.001713720122 	1.477010004e-06 	0.003531187335 	-1.49666652e-06 	6.731424504e-06
0.4022776781 	0.006191742619 	-0.002028598594 	1.561937795e-06 	0.003876973681 	-1.450618725e-06 	7.390589385e-06
0.4024757247 	0.007088913062 	-0.002352096744 	1.622138385e-06 	0.004212716945 	-1.391059643e-06 	8.030609361e-06
0.4026737653 	0.008006020154 	-0.002677270931 	1.644393713e-06 	0.004545901603 	-1.353475146e-06 	8.665751923e-06
0.4028717994 	0.008909569348 	-0.002990570392 	1.586631612e-06 	0.004899680255 	-1.427597805e-06 	9.340152362e-06
0.4030698264 	0.009787677214 	-0.003288373316 	1.477535068e-06 	0.005283514904 	-1.58852703e-06 	1.007184788e-05
0.4032678458 	0.01064157272 	-0.003572690786 	1.368513927e-06 	0.005697109382 	-1.752458069e-06 	1.086027391e-05
0.4034658569 	0.0114827519 	-0.003849768693 	1.269896433e-06 	0.006130947649 	-1.889743122e-06 	1.168729023e-05
0.4036638593 	0.01232804622 	-0.004127695594 	1.217070966e-06 	0.006569871175 	-1.930166509e-06 	1.252400046e-05
0.4038618524 	0.01317565974 	-0.004406617576 	1.193791043e-06 	0.007011568227 	-1.891817172e-06 	1.33659978e-05
0.4040598357 	0.0140246369 	-0.004687921316 	1.163263164e-06 	0.007453187927 	-1.834887917e-06 	1.420784769e-05
0.4042578085 	0.01487236477 	-0.004970805776 	1.122007867e-06 	0.007893763755 	-1.763551807e-06 	1.504770767e-05
0.4044557703 	0.01583484033 	-0.005286638552 	1.065516294e-06 	0.008391030816 	-1.682325533e-06 	1.59956369e-05
0.4047633343 	0.01703181286 	-0.005672755716 	9.683475228e-07 	0.009005934099 	-1.535981135e-06 	1.716781346e-05
0.4050766481 	0.01834935656 	-0.006096221295 	8.661513138e-07 	0.009680561182 	-1.373979721e-06 	1.845384019e-05
0.4053958166 	0.01967080295 	-0.006519232939 	7.547817635e-07 	0.01035434459 	-1.197577249e-06 	1.973825863e-05
0.4057209459 	0.02098882065 	-0.006939091074 	6.375511402e-07 	0.01102320088 	-1.011949035e-06 	2.101328462e-05
0.4060521443 	0.02229457773 	-0.007352845579 	5.178122889e-07 	0.01168257784 	-8.222810949e-07 	2.227024036e-05
0.4063895215 	0.02357791448 	-0.007757326654 	3.991086662e-07 	0.01232741797 	-6.340804144e-07 	2.349948489e-05
0.4067331892 	0.02482859015 	-0.00814951897 	2.850394215e-07 	0.01295272992 	-4.530280983e-07 	2.469150325e-05
0.4070832607 	0.0260379651 	-0.008526988762 	1.789454625e-07 	0.01355430835 	-2.844786452e-07 	2.583827893e-05
0.4074398513 	0.02720294581 	-0.008889008348 	8.372061305e-08 	0.01413080245 	-1.331252661e-07 	2.693723692e-05
0.4078030778 	0.02832543593 	-0.009236222249 	1.575951409e-09 	0.014683398 	-2.507005388e-09 	2.799063764e-05
0.4078108127 	0.02834801728 	-0.009243170804 	-2.941558173e-07 	0.014694453 	4.680047433e-07 	2.801171152e-05
0.4081725207 	0.02940349239 	-0.00956790027 	4.300711634e-08 	0.01521108847 	-6.833643758e-08 	2.899656233e-05
0.4085488195 	0.03043541435 	-0.009883502598 	7.081415795e-08 	0.01571300869 	-1.125336046e-07 	2.995336176e-05
0.4089321083 	0.03141820898 	-0.01018212936 	8.137179134e-08 	0.01618775978 	-1.29342794e-07 	3.08583693e-05
0.4093225113 	0.03234943573 	-0.0104630798 	7.408438692e-08 	0.01663427724 	-1.178186349e-07 	3.170955568e-05
0.4097201548 	0.03322720365 	-0.01072582558 	4.870831799e-08 	0.01705175134 	-7.756794786e-08 	3.250537734e-05
0.4101251668 	0.03405012396 	-0.01096999832 	5.33737236e-09 	0.01743962763 	-8.729155777e-09 	3.324477735e-05
0.4105376773 	0.03481727439 	-0.01119537086 	-5.561708169e-08 	0.01779757027 	8.806469916e-08 	3.392711551e-05
0.4109578179 	0.03552894198 	-0.01140209284 	-1.335369304e-07 	0.01812582207 	2.118645612e-07 	3.455285467e-05
0.4113876857 	0.03618605121 	-0.01159052255 	-2.277962311e-07 	0.01842497998 	3.617108007e-07 	3.51231328e-05
0.4118269536 	0.03678817037 	-0.01176058849 	-3.37385017e-07 	0.01869497606 	5.360479581e-07 	3.563782036e-05
0.4122743862 	0.03733447675 	-0.01191210536 	-4.607412425e-07 	0.01893552439 	7.324697161e-07 	3.609637235e-05
0.412730134 	0.03782542231 	-0.01204529831 	-5.96259038e-07 	0.01914699336 	9.485112862e-07 	3.649949097e-05
0.4131943501 	0.03826226639 	-0.01216063339 	-7.422516023e-07 	0.0193301453 	1.18159098e-06 	3.684862948e-05
0.4136671905 	0.038646541 	-0.01225865726 	-8.969259505e-07 	0.01948585424 	1.428973614e-06 	3.714545399e-05
0.4141488139 	0.03898002416 	-0.01233999376 	-1.058417886e-06 	0.01961511202 	1.687822971e-06 	3.739185525e-05
0.4146393819 	0.03926471302 	-0.01240533493 	-1.224828473e-06 	0.01971901315 	1.955256872e-06 	3.758991967e-05
0.4151390593 	0.03950279578 	-0.01245543193 	-1.394260875e-06 	0.01979873922 	2.22840174e-06 	3.774189973e-05
0.4156480135 	0.03969662248 	-0.01249108569 	-1.564856976e-06 	0.01985554412 	2.504445884e-06 	3.785018565e-05
0.4161664152 	0.03984867504 	-0.01251313736 	-1.734833093e-06 	0.01989073897 	2.78069038e-06 	3.791727682e-05
0.4166944381 	0.03996153656 	-0.01252245835 	-1.902514019e-06 	0.01990567685 	3.054596609e-06 	3.794575256e-05
0.4172322591 	0.04003786024 	-0.01251994014 	-2.066364626e-06 	0.01990173746 	3.323829465e-06 	3.793824299e-05
0.4177800583 	0.04008033824 	-0.01250648403 	-2.225018132e-06 	0.01988031193 	3.586295269e-06 	3.789739998e-05
0.418338019 	0.04009167069 	-0.01248299079 	-2.37730019e-06 	0.01984278793 	3.840173463e-06 	3.782586881e-05
0.418906328 	0.04007453548 	-0.0124503506 	-2.522247984e-06 	0.01979053528 	4.083941247e-06 	3.772626074e-05
0.4194851754 	0.04003155903 	-0.01240943321 	-2.659123468e-06 	0.01972489231 	4.316390388e-06 	3.760112699e-05
0.4200747546 	0.0399652889 	-0.01236107864 	-2.787420014e-06 	0.01964715301 	4.536635646e-06 	3.745293427e-05
0.4206752628 	0.03987816863 	-0.01230608851 	-2.906861996e-06 	0.01955855511 	4.744114334e-06 	3.728404207e-05
0.4212869005 	0.03977251578 	-0.01224521808 	-3.017396562e-06 	0.01946026933 	4.938575663e-06 	3.709668204e-05
0.421909872 	0.03965050361 	-0.01217917126 	-3.119176487e-06 	0.0193533959 	5.120056767e-06 	3.689295158e-05
0.4225443853 	0.03951414654 	-0.01210859506 	-3.212540726e-06 	0.01923895356 	5.288864876e-06 	3.667479267e-05
0.4231906521 	0.03936520143 	-0.01203404818 	-3.297987688e-06 	0.01911780762 	5.445555028e-06 	3.644385484e-05
0.4238501406 	0.03920498756 	-0.01195595252 	-3.376399992e-06 	0.01899062952 	5.591290993e-06 	3.620141803e-05
0.4245253395 	0.03903479123 	-0.01187468757 	-3.448941822e-06 	0.01885806931 	5.727704747e-06 	3.594872143e-05
0.4252130261 	0.03885618153 	-0.01179076677 	-3.515603208e-06 	0.01872095546 	5.854482312e-06 	3.568734432e-05
0.4259134289 	0.03867044226 	-0.01170465538 	-3.57737741e-06 	0.01858005336 	5.972953188e-06 	3.541874576e-05
0.4266267807 	0.03847846925 	-0.01161665049 	-3.635156336e-06 	0.01843589476 	6.08431485e-06 	3.51439394e-05
0.4273533182 	0.03828096491 	-0.01152698266 	-3.689826547e-06 	0.01828888633 	6.189798486e-06 	3.486370047e-05
0.4280932826 	0.03807845077 	-0.01143583374 	-3.742233042e-06 	0.01813936508 	6.290600634e-06 	3.457867143e-05
0.4288469195 	0.03787128095 	-0.01134333893 	-3.793163852e-06 	0.01798759674 	6.387861433e-06 	3.428935878e-05
0.4296144787 	0.03765965567 	-0.01124959049 	-3.843338932e-06 	0.01783377875 	6.482644257e-06 	3.399613894e-05
0.430396215 	0.03744363548 	-0.01115464199 	-3.893403952e-06 	0.01767804611 	6.575921997e-06 	3.369926924e-05
0.4311923873 	0.03722315666 	-0.01105851136 	-3.943926813e-06 	0.01752047553 	6.668566836e-06 	3.339889593e-05
0.4320032595 	0.03699804888 	-0.01096118173 	-3.995392687e-06 	0.01736108694 	6.76133858e-06 	3.309505697e-05
0.4328291002 	0.03676805735 	-0.01086259941 	-4.048189662e-06 	0.01719984137 	6.854861418e-06 	3.278767811e-05
0.4336701831 	0.03653287211 	-0.0107626711 	-4.102573264e-06 	0.01703664147 	6.949572929e-06 	3.247657374e-05
0.4345267865 	0.03629216264 	-0.01066126477 	-4.158609313e-06 	0.01687133661 	7.045649221e-06 	3.216145673e-05
0.435399194 	0.03604553216 	-0.01055819525 	-4.21613453e-06 	0.01670366657 	7.142956222e-06 	3.184183103e-05
0.4362886099 	0.03579219132 	-0.01045325289 	-4.274986467e-06 	0.01653333542 	7.241430694e-06 	3.151713251e-05
0.4371993628 	0.03553133029 	-0.01034653784 	-4.336030926e-06 	0.01636050306 	7.342758022e-06 	3.118766599e-05
0.4381268879 	0.03522770967 	-0.01022571898 	-4.393978773e-06 	0.01616477991 	7.435645086e-06 	3.081456327e-05
0.4395501106 	0.03484401378 	-0.01007636468 	-4.503846111e-06 	0.01592326396 	7.612429116e-06 	3.035416675e-05
0.4409884004 	0.03441594179 	-0.009912136557 	-4.596862812e-06 	0.01565858217 	7.757644702e-06 	2.984960969e-05
0.44244192 	0.03397695599 	-0.009746857254 	-4.357186436e-06 	0.0153928781 	7.339485767e-06 	2.934310388e-05
0.443910834 	0.03352625368 	-0.00958040086 	-4.132775956e-06 	0.01512609857 	6.947185753e-06 	2.883454795e-05
0.4453953093 	0.03306284882 	-0.009412354955 	-3.921578542e-06 	0.01485745381 	6.577440019e-06 	2.832243637e-05
0.4468955146 	0.03258566721 	-0.009242324691 	-3.721754403e-06 	0.01458625127 	6.227462225e-06 	2.780544896e-05
0.448411621 	0.03209290286 	-0.009069738374 	-3.531558943e-06 	0.0143115261 	5.894508181e-06 	2.728174642e-05
0.449951937 	0.03158262754 	-0.008893933022 	-3.348040872e-06 	0.01403223409 	5.57375924e-06 	2.674933824e-05
0.4515094159 	0.03105430789 	-0.008714657023 	-3.170940134e-06 	0.01374789908 	5.26496387e-06 	2.620731669e-05
0.4530833577 	0.03050756364 	-0.008531813216 	-2.999062839e-06 	0.0134582875 	4.96622321e-06 	2.565523652e-05
0.4546739418 	0.02994144529 	-0.008345099543 	-2.831120232e-06 	0.0131629035 	4.675417169e-06 	2.509215252e-05
0.4562813499 	0.02935496872 	-0.008154178638 	-2.666037538e-06 	0.01286115881 	4.390785873e-06 	2.451694327e-05
0.4579057659 	0.02874718588 	-0.007958740573 	-2.502911534e-06 	0.0125525195 	4.110833402e-06 	2.392859095e-05
0.4595473762 	0.02811701152 	-0.007758433634 	-2.341042264e-06 	0.01223637195 	3.834386365e-06 	2.332592587e-05
0.4612079065 	0.02746260547 	-0.00755271883 	-2.179684289e-06 	0.01191183989 	3.560165083e-06 	2.270727756e-05
0.4628933738 	0.02678233588 	-0.007341063207 	-2.017709404e-06 	0.01157809924 	3.286290041e-06 	2.207107512e-05
0.4645966365 	0.02607606241 	-0.007123339603 	-1.856007383e-06 	0.01123491612 	3.014217125e-06 	2.14168727e-05
0.4663178905 	0.0253434895 	-0.006899399349 	-1.694370072e-06 	0.01088207317 	2.743536401e-06 	2.074425599e-05
0.4680573339 	0.02458371057 	-0.006668768337 	-1.532734313e-06 	0.01051889897 	2.474175381e-06 	2.005194502e-05
0.4698151678 	0.02379622828 	-0.006430818076 	-1.370743073e-06 	0.0101444452 	2.205749024e-06 	1.933813206e-05
0.4715915958 	0.02298453418 	-0.006185758692 	-1.203989109e-06 	0.009759057681 	1.931429122e-06 	1.860347633e-05
0.4733876059 	0.02215696664 	-0.005935055005 	-1.029804078e-06 	0.009365078748 	1.646912065e-06 	1.785244298e-05
0.4752105253 	0.02132143872 	-0.005680030768 	-8.516590443e-07 	0.008964704144 	1.357437357e-06 	1.708921771e-05
0.477052684 	0.02048465802 	-0.005421854917 	-6.735442177e-07 	0.0085599355 	1.069317444e-06 	1.631761617e-05
0.4789142958 	0.01965307723 	-0.00516199111 	-4.957131454e-07 	0.0081533963 	7.832327625e-07 	1.554263947e-05
0.480795578 	0.0188330278 	-0.00490210281 	-3.194195143e-07 	0.007748165937 	5.017230761e-07 	1.477015777e-05
0.4826967503 	0.01803126706 	-0.00464413915 	-1.466807556e-07 	0.007347793389 	2.287334039e-07 	1.400693641e-05
0.4843826563 	0.0173492095 	-0.004421216877 	1.431781372e-06 	0.007003938546 	-2.212067172e-06 	1.335145351e-05
0.48461787 	0.0172541246 	-0.004390126572 	-1.869191359e-08 	0.006955987139 	2.895648463e-08 	1.32600448e-05
0.4865627896 	0.01650747534 	-0.004142081524 	-1.664650742e-07 	0.006576464614 	2.547060744e-07 	1.253656939e-05
0.488532044 	0.01579550453 	-0.003901607789 	-3.045502701e-07 	0.006212251051 	4.590963679e-07 	1.184227711e-05
0.4905221263 	0.0151221508 	-0.003670351295 	-4.316831493e-07 	0.005866322353 	6.393025018e-07 	1.118284087e-05
0.4925332712 	0.01448921391 	-0.003449285811 	-5.490131362e-07 	0.005540554756 	7.967209935e-07 	1.056183728e-05
0.494565717 	0.01389668245 	-0.003238323095 	-6.5802596e-07 	0.005235013021 	9.329783927e-07 	9.979389815e-06
0.4966197052 	0.0133435052 	-0.003037238728 	-7.532716722e-07 	0.004949702181 	1.037144689e-06 	9.435508055e-06
0.4986993654 	0.01282555469 	-0.002846453763 	-8.591833424e-07 	0.004689162484 	1.012395747e-06 	8.938846979e-06
0.500805203 	0.01230654056 	-0.002660384251 	-1.004914382e-06 	0.004482342846 	6.737503546e-07 	8.544591267e-06
0.5029333272 	0.01173294413 	-0.002472503424 	-1.123347925e-06 	0.004368708979 	2.928634586e-07 	8.327973535e-06
0.5050839924 	0.01113172258 	-0.002289021913 	-1.191774263e-06 	0.004322677646 	2.002244027e-07 	8.24022502e-06
0.507257457 	0.01056489323 	-0.002115839839 	-1.259034484e-06 	0.004292262029 	2.416291385e-07 	8.182244399e-06
0.5094539826 	0.01005036615 	-0.001951858345 	-1.318330484e-06 	0.004261255706 	3.136262154e-07 	8.12313773e-06
0.5116800765 	0.009589973639 	-0.001797210889 	-1.366919345e-06 	0.004227700045 	3.725582471e-07 	8.059171314e-06
0.5139311403 	0.009182883012 	-0.001652509082 	-1.407488688e-06 	0.004193471273 	4.229583412e-07 	7.993921761e-06
0.5162060616 	0.008828339966 	-0.001518145982 	-1.440059202e-06 	0.004158878755 	4.785937156e-07 	7.927978807e-06
0.5185051168 	0.008525604206 	-0.001394373393 	-1.464988862e-06 	0.004122583623 	5.501938013e-07 	7.858790198e-06
0.5208285862 	0.008273937386 	-0.001281328088 	-1.483738922e-06 	0.00408206975 	6.464082456e-07 	7.781559497e-06
0.523180392 	0.00807244643 	-0.001178970489 	-1.498953432e-06 	0.004034537414 	7.613941448e-07 	7.690949652e-06
0.5255607218 	0.007917728334 	-0.001086792224 	-1.516036462e-06 	0.003980875473 	8.497981e-07 	7.58865508e-06
0.5279663095 	0.007801478879 	-0.001003649257 	-1.538540448e-06 	0.003928508458 	8.76273342e-07 	7.488828993e-06
0.530397451 	0.007714723534 	-0.0009282934722 	-1.563992421e-06 	0.003884661342 	8.66910144e-07 	7.405244204e-06
0.5328544466 	0.007651940595 	-0.000859869792 	-1.589474938e-06 	0.00385134022 	8.54563975e-07 	7.341724884e-06
0.5353409917 	0.007609838204 	-0.0007977442323 	-1.613810918e-06 	0.003827790789 	8.496868524e-07 	7.296833123e-06
0.5378573206 	0.007586077423 	-0.0007414374349 	-1.635616728e-06 	0.00381249884 	8.554850695e-07 	7.267682418e-06
0.5404003993 	0.007578861931 	-0.0006906425814 	-1.654011786e-06 	0.003803938634 	8.719175548e-07 	7.251364287e-06
0.5429705454 	0.007586642845 	-0.0006450558653 	-1.668741476e-06 	0.003800774596 	8.983868759e-07 	7.24533275e-06
0.5455680808 	0.007608086013 	-0.0006043530072 	-1.679719503e-06 	0.003801848372 	9.337858079e-07 	7.247379665e-06
0.5481981886 	0.007641999418 	-0.0005681779137 	-1.686990503e-06 	0.003806221473 	9.768770453e-07 	7.255716012e-06
0.5508576999 	0.007687300917 	-0.0005362271192 	-1.690253609e-06 	0.003812995176 	1.02631307e-06 	7.268628572e-06
0.5535455538 	0.007743036356 	-0.0005082511714 	-1.689452916e-06 	0.003821424793 	1.080963308e-06 	7.284697766e-06
0.556262091 	0.007808349754 	-0.0004839767475 	-1.641705245e-06 	0.003830952501 	1.110819663e-06 	7.302860224e-06
0.5590093701 	0.007882503525 	-0.0004631211035 	-1.554300894e-06 	0.003841097152 	1.115064472e-06 	7.32219875e-06
0.5617900605 	0.007964814171 	-0.0004454207501 	-1.469616527e-06 	0.003851411758 	1.11994079e-06 	7.341861255e-06
0.5646004358 	0.008054587015 	-0.0004306673566 	-1.387815886e-06 	0.003861496582 	1.124745961e-06 	7.361085732e-06
0.5674408566 	0.008151158713 	-0.0004186507837 	-1.308974672e-06 	0.003871097207 	1.128692405e-06 	7.379387192e-06
0.5703118841 	0.008253959313 	-0.000409124416 	-1.233164722e-06 	0.003880067793 	1.131206394e-06 	7.396487622e-06
0.5732187732 	0.008362530168 	-0.0004018094645 	-1.160333972e-06 	0.003888215517 	1.132094032e-06 	7.41201945e-06
0.5761567623 	0.008476504871 	-0.0003964418799 	-1.090475462e-06 	0.003895180573 	1.132326454e-06 	7.425296781e-06
0.5791262329 	0.008595891932 	-0.0003927638217 	-1.023052263e-06 	0.003900461656 	1.133439773e-06 	7.435363993e-06
0.5821275725 	0.008721314556 	-0.0003905523828 	-9.569994006e-07 	0.003903336153 	1.137816588e-06 	7.440843584e-06
0.5851658635 	0.00885386604 	-0.0003896990829 	-8.90883976e-07 	0.00390275146 	1.148053099e-06 	7.439728997e-06
0.5882368608 	0.00899446132 	-0.0003902307452 	-8.239390379e-07 	0.003897688295 	1.164327592e-06 	7.430077197e-06
0.591340855 	0.009143187629 	-0.0003921838988 	-7.56490971e-07 	0.00388789041 	1.18258452e-06 	7.411399704e-06
0.5944786826 	0.009298761269 	-0.0003954797204 	-6.903552466e-07 	0.003874238672 	1.195094715e-06 	7.385375698e-06
0.5976542396 	0.009458292955 	-0.0003999057971 	-6.283614904e-07 	0.003858631828 	1.193260989e-06 	7.355624715e-06
0.6008639663 	0.009617932826 	-0.0004051216762 	-5.732116617e-07 	0.003843502326 	1.172982231e-06 	7.32678368e-06
0.6041082905 	0.00977462116 	-0.00041070463 	-5.260852499e-07 	0.003830861014 	1.137911145e-06 	7.302685825e-06
0.6073891503 	0.009927617619 	-0.0004163095848 	-4.862656729e-07 	0.003821196535 	1.098699067e-06 	7.284262641e-06
0.6107078431 	0.01007837072 	-0.0004216982904 	-4.527992689e-07 	0.003813426227 	1.066799662e-06 	7.269450275e-06
0.6140623721 	0.01022920653 	-0.0004267934084 	-4.219278075e-07 	0.003805801442 	1.050516797e-06 	7.254915316e-06
0.6174531904 	0.01038191427 	-0.0004314915356 	-3.890822873e-07 	0.003797077816 	1.048880376e-06 	7.23828566e-06
0.620883615 	0.01053703198 	-0.0004355045494 	-3.5566563e-07 	0.003787139723 	1.04669694e-06 	7.219340892e-06
0.6243517981 	0.0106920126 	-0.0004374404779 	-3.506248948e-07 	0.003778191371 	9.943454214e-07 	7.202282846e-06
0.6278575798 	0.01084358976 	-0.0004355148501 	-4.061400419e-07 	0.003773071949 	8.486410244e-07 	7.192523807e-06
0.6314026713 	0.01099332297 	-0.0004306621555 	-4.952584235e-07 	0.003770551197 	6.553614667e-07 	7.187718553e-06
0.6349881336 	0.01114108539 	-0.0004226201558 	-5.889408601e-07 	0.003770737046 	4.664295993e-07 	7.188072831e-06
0.6386125585 	0.01128308792 	-0.000408649844 	-6.903820319e-07 	0.003776938162 	2.867024243e-07 	7.199893883e-06
0.642276724 	0.01142213985 	-0.0003903828681 	-7.951460166e-07 	0.00378652671 	1.214786252e-07 	7.21817232e-06
0.6459832748 	0.0115619439 	-0.0003703085965 	-9.006648865e-07 	0.003795929166 	-3.227054711e-08 	7.236096014e-06
0.64973021 	0.0117002182 	-0.0003474519948 	-9.590923312e-07 	0.003806658686 	-1.160224352e-07 	7.256549462e-06
0.6535180509 	0.01183647351 	-0.0003218108948 	-9.614818436e-07 	0.003818912453 	-1.261178034e-07 	7.279908547e-06
0.6573495086 	0.01197215399 	-0.0002943555836 	-9.498125234e-07 	0.003831435927 	-1.29080525e-07 	7.303781769e-06
0.6612230164 	0.01210687849 	-0.0002653905431 	-9.33350369e-07 	0.003844184087 	-1.375905201e-07 	7.328083306e-06
0.665138934 	0.01224026646 	-0.0002350151079 	-9.147530211e-07 	0.003857295013 	-1.501317131e-07 	7.353076375e-06
0.6690995676 	0.01237242588 	-0.0002031255243 	-8.951790989e-07 	0.00387079439 	-1.666124221e-07 	7.378809939e-06
0.6731039138 	0.01250322069 	-0.0001696824813 	-8.758017775e-07 	0.003884732034 	-1.855095383e-07 	7.405378962e-06
0.6771522377 	0.01263258296 	-0.000134657678 	-8.587168482e-07 	0.00389922273 	-2.038399219e-07 	7.433002256e-06
0.681246681 	0.01276060203 	-9.798301243e-05 	-8.453425354e-07 	0.003914300697 	-2.206712426e-07 	7.461745052e-06
0.6853863423 	0.01288718597 	-5.964723396e-05 	-8.349700235e-07 	0.003929988611 	-2.362956382e-07 	7.491650577e-06
0.6895716523 	0.01301232355 	-1.960959032e-05 	-8.265855434e-07 	0.003946390997 	-2.505937878e-07 	7.522918083e-06
0.6938046212 	0.01313604076 	2.218479121e-05 	-8.194279663e-07 	0.003963577685 	-2.634763791e-07 	7.555680687e-06
0.6980842929 	0.01325793922 	6.559565029e-05 	-8.124633503e-07 	0.0039815616 	-2.754554433e-07 	7.589963027e-06
0.7023638346 	0.01337708525 	0.000110246737 	-8.047763383e-07 	0.004000283834 	-2.869117039e-07 	7.625652809e-06
0.7065967077 	0.01349257841 	0.0001557025154 	-7.960140451e-07 	0.004019622461 	-2.979216552e-07 	7.662517606e-06
0.7107825189 	0.01360423874 	0.000201737027 	-7.860171078e-07 	0.0040395686 	-3.085252943e-07 	7.700540492e-06
0.71492229 	0.01371234975 	0.0002483373528 	-7.747263688e-07 	0.004060177405 	-3.187632874e-07 	7.739826601e-06
0.7190167156 	0.01381709828 	0.0002954520809 	-7.624834682e-07 	0.004081447071 	-3.286214319e-07 	7.780372497e-06
0.7230657653 	0.01391868078 	0.0003430177876 	-7.496983358e-07 	0.004103413686 	-3.379917364e-07 	7.822246971e-06
0.7270703972 	0.01401739012 	0.0003910538721 	-7.367588577e-07 	0.004126129779 	-3.467983405e-07 	7.865550157e-06
0.7310311116 	0.01411341119 	0.0004395187046 	-7.240278463e-07 	0.004149591422 	-3.550034834e-07 	7.91027457e-06
0.7349480478 	0.01420696 	0.0004883705185 	-7.116201668e-07 	0.004173838661 	-3.625445877e-07 	7.956496546e-06
0.7388220362 	0.01429832411 	0.0005376420465 	-6.994631547e-07 	0.004198928432 	-3.693873429e-07 	8.004324623e-06
0.7426535726 	0.01438769518 	0.0005873055284 	-6.874147037e-07 	0.004224862274 	-3.755212179e-07 	8.053761733e-06
0.7464428493 	0.01447529505 	0.0006373336957 	-6.752068998e-07 	0.004251682506 	-3.809219569e-07 	8.104888551e-06
0.7501905479 	0.01456140543 	0.0006877671045 	-6.625871094e-07 	0.004279454066 	-3.85599057e-07 	8.157828863e-06
0.7538972527 	0.01464623146 	0.0007385947547 	-6.494542888e-07 	0.004308189341 	-3.895894775e-07 	8.212606283e-06
0.7575631456 	0.01472999299 	0.0007897950384 	-6.16170709e-07 	0.004337928723 	-3.807926371e-07 	8.269297811e-06
0.7611887622 	0.01481296379 	0.0008414042193 	-5.742555361e-07 	0.004368744716 	-3.654534867e-07 	8.328041658e-06
0.7647748095 	0.01489537094 	0.0008934308728 	-5.343186353e-07 	0.004400669281 	-3.500030245e-07 	8.388898753e-06
0.7683214281 	0.01497743201 	0.0009458574949 	-4.964034965e-07 	0.004433737062 	-3.34527203e-07 	8.451935134e-06
0.7718290835 	0.01505941199 	0.0009987073005 	-4.605211953e-07 	0.00446802321 	-3.191150926e-07 	8.517294062e-06
0.7752984274 	0.0151415665 	0.001052013825 	-4.266290051e-07 	0.004503587598 	-3.038336148e-07 	8.585089669e-06
0.7787297262 	0.01522411818 	0.001105768855 	-3.946501794e-07 	0.004540461668 	-2.887243554e-07 	8.655381895e-06
0.7821233653 	0.01530732577 	0.001159981712 	-3.645208165e-07 	0.004578715716 	-2.738426044e-07 	8.728304743e-06
0.7854798396 	0.01539146726 	0.001214698559 	-3.361734666e-07 	0.004618433324 	-2.592429217e-07 	8.804017544e-06
0.788799627 	0.01547678719 	0.001269929978 	-3.095215306e-07 	0.004659659336 	-2.449514569e-07 	8.88260578e-06
0.7920830061 	0.01556354372 	0.001325680797 	-2.844953188e-07 	0.004702453653 	-2.310011806e-07 	8.964183642e-06
0.795330395 	0.01565202475 	0.001381987526 	-2.610313361e-07 	0.004746907106 	-2.174271017e-07 	9.048924279e-06
0.7985422953 	0.01574251142 	0.001438890161 	-2.390624513e-07 	0.004793097709 	-2.042534867e-07 	9.136976405e-06
0.8017190362 	0.01583527358 	0.001496404188 	-2.185135464e-07 	0.00484108353 	-1.914890747e-07 	9.228450717e-06
0.8048609729 	0.01593060405 	0.001554554989 	-1.993233381e-07 	0.004890948326 	-1.791509329e-07 	9.323506879e-06
0.8079685004 	0.01602881379 	0.001613396214 	-1.814318568e-07 	0.004942796305 	-1.672544388e-07 	9.422343536e-06
0.811042089 	0.01613020453 	0.001672973336 	-1.64774029e-07 	0.004996712571 	-1.558037427e-07 	9.525122924e-06
0.8140820236 	0.01623508076 	0.00173332095 	-1.492847503e-07 	0.005052777921 	-1.447978907e-07 	9.631999064e-06
0.8170886756 	0.01634376806 	0.00179448986 	-1.349081935e-07 	0.005111099058 	-1.342417495e-07 	9.743175362e-06
0.820062419 	0.01645660332 	0.001856551736 	-1.21590326e-07 	0.005171796496 	-1.241382344e-07 	9.858881548e-06
0.8230036812 	0.0165739197 	0.001919572744 	-1.09274173e-07 	0.005234976876 	-1.144823009e-07 	9.979320913e-06
0.8259127482 	0.01669605765 	0.00198361538 	-9.790447435e-08 	0.005300748951 	-1.052669717e-07 	1.010470077e-05
0.8287899789 	0.01682337519 	0.002048758457 	-8.743275381e-08 	0.00536924492 	-9.648999981e-08 	1.023527312e-05
0.8316357286 	0.01695624059 	0.002115097324 	-7.781189095e-08 	0.005440610336 	-8.814763824e-08 	1.037131544e-05
0.8344503826 	0.0170950239 	0.002182727925 	-6.899400225e-08 	0.005514984966 	-8.023222847e-08 	1.051309416e-05
0.8372342416 	0.01724010278 	0.002251743014 	-6.093084936e-08 	0.005592509116 	-7.2733225e-08 	1.066087673e-05
0.8399876419 	0.01739187062 	0.0023222467 	-5.357947943e-08 	0.005673342832 	-6.564457707e-08 	1.081496826e-05
0.8427109212 	0.01755073291 	0.002394356037 	-4.689751907e-08 	0.005757661223 	-5.895896768e-08 	1.097570255e-05
0.8454044284 	0.01771710079 	0.002468189497 	-4.084263709e-08 	0.005845637903 	-5.266723238e-08 	1.114341055e-05
0.8480684794 	0.01789139292 	0.002543857823 	-3.536989468e-08 	0.00593744086 	-4.675540625e-08 	1.131841251e-05
0.850703385 	0.01807404238 	0.002621473077 	-3.043706453e-08 	0.006033250199 	-4.121203243e-08 	1.150105173e-05
0.8533094671 	0.01826549373 	0.002701151281 	-2.600218255e-08 	0.006133255933 	-3.602490516e-08 	1.169169046e-05
0.8558870443 	0.01846619793 	0.002783002644 	-2.202282146e-08 	0.006237644052 	-3.117989909e-08 	1.189068323e-05
0.8584364432 	0.01867661009 	0.002867125265 	-1.845494392e-08 	0.006346589598 	-2.665931342e-08 	1.209836372e-05
0.8609579507 	0.01889718891 	0.002953602099 	-1.525487725e-08 	0.0064602584 	-2.244428248e-08 	1.231504805e-05
0.8634518736 	0.01912839337 	0.003042506113 	-1.238134723e-08 	0.006578812276 	-1.851713579e-08 	1.254104469e-05
0.865918515 	0.01937067384 	0.003133894915 	-9.794665471e-09 	0.006702398418 	-1.485941502e-08 	1.277663422e-05
0.8683581774 	0.01962446211 	0.003227807115 	-7.457748933e-09 	0.006831141587 	-1.145267861e-08 	1.302205448e-05
0.8707711573 	0.01989015966 	0.003324253902 	-5.335808175e-09 	0.006965131011 	-8.277350065e-09 	1.327747557e-05
0.8731577363 	0.02016812709 	0.003423222849 	-3.399514368e-09 	0.007104427508 	-5.31703012e-09 	1.35430134e-05
0.8755182041 	0.02045866663 	0.003524679132 	-1.625534074e-09 	0.007249058426 	-2.559031535e-09 	1.381872013e-05
0.8778475053 	0.02076130877 	0.003628323466 	9.416173586e-09 	0.007398663482 	1.301807078e-08 	1.410390895e-05
0.8778528463 	0.02076200265 	0.003628561139 	-3.062131289e-12 	0.007399006529 	-5.767267385e-12 	1.410456289e-05
0.8801617703 	0.02107822816 	0.003734786249 	-1.294515513e-09 	0.007554205003 	-2.442499271e-09 	1.440041432e-05
0.8824454411 	0.0214073836 	0.003843232254 	-2.504171581e-09 	0.007714531537 	-4.731518638e-09 	1.470604125e-05
0.8847041277 	0.0217493405 	0.003953757076 	-3.627184962e-09 	0.007879809638 	-6.863309986e-09 	1.502110725e-05
0.8869381035 	0.02210381925 	0.004066197187 	-4.653486641e-09 	0.008049810493 	-8.82161353e-09 	1.534517613e-05
0.8891476383 	0.02247038015 	0.004180366035 	-5.569172252e-09 	0.008224246806 	-1.058457958e-08 	1.567770022e-05
0.8913329993 	0.02284842235 	0.00429606028 	-6.35760617e-09 	0.008402782219 	-1.212556391e-08 	1.601803834e-05
0.8934944521 	0.02323718613 	0.004413059755 	-7.000922905e-09 	0.008585029211 	-1.341491553e-08 	1.636545176e-05
0.8956322522 	0.02363575976 	0.004531130545 	-7.480596603e-09 	0.008770555651 	-1.442045876e-08 	1.671911672e-05
0.8977466575 	0.02404309035 	0.004650032782 	-7.777772076e-09 	0.008958899464 	-1.510775158e-08 	1.707815238e-05
0.8998379232 	0.02445799849 	0.004769520192 	-7.87482294e-09 	0.009149567195 	-1.544290246e-08 	1.744161806e-05
0.9019063017 	0.02487920222 	0.00488934414 	-7.756097713e-09 	0.00934204469 	-1.539427189e-08 	1.780853367e-05
0.9039520431 	0.02530534839 	0.005009258811 	-7.40888359e-09 	0.009535809479 	-1.493461149e-08 	1.817790321e-05
0.9059753932 	0.02573504816 	0.005129021246 	-6.824096388e-09 	0.00973033423 	-1.404280854e-08 	1.854872145e-05
0.9079765939 	0.02616691224 	0.005248398557 	-5.995615186e-09 	0.009925105461 	-1.270299792e-08 	1.892000955e-05
0.9099558866 	0.02659957948 	0.005367171324 	-4.920294465e-09 	0.01011963227 	-1.090469825e-08 	1.929083171e-05