0.3526971907 	0.04096012235 	0.00642497157 	-1.413511631e-06
0.3528833318 	0.1217210035 	0.01902510638 	-4.241209686e-06
0.3530694809 	0.242617002 	0.03787087247 	-8.001270972e-06
0.3532556373 	0.3625874657 	0.05658284564 	-1.128899916e-05
0.3534418003 	0.4813475399 	0.0750970519 	-1.409478116e-05
0.3536279691 	0.5983057204 	0.09333467028 	-1.640504086e-05
0.3538141431 	0.7125922094 	0.111184174 	-1.821244583e-05
0.3540003216 	0.8232889276 	0.1284806082 	-1.947760811e-05
0.3541865037 	0.9297603124 	0.1450462936 	-2.022476386e-05
0.3543726888 	1.031774555 	0.1608806907 	-2.053155321e-05
0.3545588762 	1.129298536 	0.1760602267 	-2.039177389e-05
0.3547450652 	1.222316629 	0.190543941 	-1.981956986e-05
0.354931255 	1.310837187 	0.2043051776 	-1.885939478e-05
0.3551174449 	1.394913608 	0.2173689691 	-1.753539427e-05
0.3553036343 	1.474616143 	0.22974696 	-1.587419718e-05
0.3554898223 	1.549998619 	0.2414471652 	-1.390241476e-05
0.3556760083 	1.621086412 	0.2524733593 	-1.16476384e-05
0.3558621916 	1.687883441 	0.2628261431 	-9.13916703e-06
0.3560483715 	1.750395134 	0.272506393 	-6.407847216e-06
0.3562345472 	1.808690537 	0.2815246728 	-3.485150031e-06
0.356420718 	1.863171814 	0.2899439622 	-4.001358299e-07
0.3564442227 	1.869666744 	0.2909467866 	4.334959182e-05
0.3566065628 	1.914617373 	0.2978874841 	-2.749302205e-06
0.3567923551 	1.96367764 	0.3054555847 	-6.024354588e-06
0.3569781408 	2.010651541 	0.3126945481 	-9.426730886e-06
0.357163919 	2.055677755 	0.3196261435 	-1.29459545e-05
0.3573496891 	2.098860183 	0.3262667463 	-1.657193417e-05
0.3575354505 	2.140289831 	0.3326306176 	-2.02949702e-05
0.3577212023 	2.180049106 	0.3387306449 	-2.410568835e-05
0.357906944 	2.218213264 	0.3445786623 	-2.799499463e-05
0.3580926748 	2.254851543 	0.3501857951 	-3.195402719e-05
0.358278394 	2.294803987 	0.3562921961 	-3.603045615e-05
0.3585669344 	2.342177597 	0.3635149115 	-4.232641985e-05
0.3588608649 	2.391772863 	0.3710592219 	-4.889550948e-05
0.3591602827 	2.439080978 	0.3782355495 	-5.566103587e-05
0.3594652866 	2.48411451 	0.3850443972 	-6.259790319e-05
0.3597759769 	2.52687332 	0.3914850509 	-6.967607917e-05
0.3600924555 	2.567334267 	0.3975532032 	-7.685377569e-05
0.3604148257 	2.60544879 	0.403239963 	-8.408232699e-05
0.3607431925 	2.641156791 	0.4085345006 	-9.13179719e-05
0.3610776623 	2.674400582 	0.4134266497 	-9.851978114e-05
0.3614183433 	2.705124964 	0.4179065842 	-0.0001056422182
0.3617653449 	2.733270344 	0.4219635762 	-0.0001126323148
0.3621187783 	2.75876919 	0.4255852634 	-0.000119430802
0.3624787563 	2.781553835 	0.4287596005 	-0.0001259929311
0.362845393 	2.801577509 	0.4314884515 	-0.0001323733953
0.3632188042 	2.818876328 	0.4337593043 	-0.0001383718737
0.3635991072 	2.833679917 	0.4355915919 	-0.0001443094717
0.3639864209 	2.846364209 	0.4370835041 	-0.0001507683435
0.3643808655 	2.857262935 	0.438293691 	-0.0001571891975
0.3647825629 	2.866615217 	0.4392334265 	-0.000163483666
0.3651916363 	2.874615408 	0.4399361347 	-0.0001699794245
0.3656082104 	2.881435311 	0.4404362339 	-0.0001765464168
0.3660324115 	2.887221417 	0.440756784 	-0.0001831777264
0.3664643669 	2.892100569 	0.440917361 	-0.0001898777404
0.3669042055 	2.896201002 	0.4409380258 	-0.0001967026991
0.3673532781 	2.899675465 	0.4408398747 	-0.0002037133978
0.3678226155 	2.902650739 	0.4406390897 	-0.0002111292285
0.3683005872 	2.905195636 	0.440351577 	-0.0002157761579
0.3687873492 	2.907375249 	0.4399920984 	-0.0002062562418
0.3692830603 	2.909255956 	0.4395715165 	-0.0001967396149
0.369787882 	2.91088955 	0.4390982655 	-0.0001872015794
0.3703019789 	2.912316688 	0.4385789146 	-0.0001776239344
0.3708255181 	2.913569494 	0.4380186305 	-0.0001679930477
0.3713586698 	2.914673518 	0.4374214967 	-0.0001582987026
0.3719016073 	2.915649203 	0.436790754 	-0.000148533286
0.3724545069 	2.916512996 	0.4361289825 	-0.0001386911749
0.3730175478 	2.917278199 	0.4354382409 	-0.0001287682811
0.3735909124 	2.917955608 	0.4347201724 	-0.000118761716
0.3741747866 	2.918554014 	0.4339760861 	-0.0001086695431
0.3747693591 	2.919080582 	0.4332070203 	-9.849059542e-05
0.3753748222 	2.919541149 	0.4324137914 	-8.822434164e-05
0.3759913715 	2.91994046 	0.4315970324 	-7.78707876e-05
0.3766192059 	2.920282347 	0.4307572227 	-6.743040418e-05
0.3772585279 	2.920569876 	0.4298947122 	-5.690407664e-05
0.3779095436 	2.920805458 	0.4290097392 	-4.629307348e-05
0.3785724626 	2.920990942 	0.4281024457 	-3.559901545e-05
0.379247498 	2.92112768 	0.427172895 	-2.482384973e-05
0.3799348671 	2.921216586 	0.4262210629 	-1.396992839e-05
0.3806347904 	2.921258186 	0.4252467986 	-3.039933264e-06
0.3808310927 	2.921256454 	0.4249712975 	-1.856240882e-05
0.3813466422 	2.92125086 	0.4242490217 	-7.834298217e-06
0.3820801772 	2.921194478 	0.4232189723 	-1.888790322e-05
0.3828382826 	2.921089031 	0.4221543986 	-3.019989265e-05
0.3836101777 	2.920936645 	0.4210627849 	-4.15723705e-05
0.3843961079 	2.920740182 	0.4199484673 	-5.300508958e-05
0.3851963225 	2.920500423 	0.4188113715 	-6.449213362e-05
0.3860110754 	2.920217335 	0.417651218 	-7.602910038e-05
0.3868406247 	2.919890857 	0.416467872 	-8.761345577e-05
0.3876852333 	2.919521045 	0.4152612085 	-9.92413978e-05
0.3885451683 	2.919108084 	0.4140311202 	-0.0001109092748
0.3894207017 	2.918652271 	0.4127776186 	-0.0001226137508
0.3903121102 	2.918082833 	0.4113420113 	-0.0001342715237
0.3916794299 	2.917329476 	0.4095420081 	-0.0001520112705
0.3930606337 	2.916428525 	0.407562882 	-0.000169434187
0.3944558643 	2.915457766 	0.4055652664 	-0.0001785376105
0.3958652666 	2.914416547 	0.4035391395 	-0.000158821337
0.3973226541 	2.913303622 	0.4014712317 	-0.0001388207818
0.3987982205 	2.912128097 	0.3993741982 	-0.0001190313363
0.4002886278 	2.910902435 	0.3972621511 	-9.951741186e-05
0.401794029 	2.90963221 	0.3951373763 	-8.027988322e-05
0.4033145791 	2.908321725 	0.3930007677 	-6.131871749e-05
0.404850435 	2.906974722 	0.3908531522 	-4.263385699e-05
0.4064017559 	2.905594399 	0.3886952593 	-2.42253231e-05
0.4079687029 	2.90418349 	0.3865275241 	-6.093295719e-06
0.4085056593 	2.903693147 	0.3857856963 	-4.849948047e-05
0.4095500387 	2.902735876 	0.3843446418 	-1.159889228e-05
0.4111722932 	2.901245955 	0.3821319634 	-2.926438839e-05
0.4128244561 	2.899718472 	0.3798931045 	-4.680425696e-05
0.4144931395 	2.898163401 	0.3776420443 	-6.403694252e-05
0.4161785171 	2.896584995 	0.3753836552 	-8.096230191e-05
0.4178807647 	2.894984021 	0.3731182011 	-9.757952698e-05
0.4196000609 	2.893361035 	0.3708459052 	-0.0001138877867
0.4213365867 	2.891716458 	0.3685668235 	-0.000129886272
0.4230905257 	2.890045945 	0.3662753584 	-0.0001455702624
0.4248808085 	2.88834021 	0.3639584574 	-0.0001424196663
0.4267111345 	2.886598499 	0.3616151189 	-0.0001241177699
0.4285596439 	2.884830025 	0.3592592156 	-0.0001061593802
0.430426532 	2.883040262 	0.3568978671 	-8.854926162e-05
0.432311997 	2.881229201 	0.3545312013 	-7.128743693e-05
0.4342162403 	2.879396781 	0.3521592685 	-5.4373824e-05
0.4361394662 	2.87754178 	0.3497805924 	-3.780795273e-05
0.438086583 	2.87565375 	0.347383219 	-2.154159149e-05
0.4400903286 	2.873725539 	0.3449564641 	-5.271933643e-06
0.4407568964 	2.873080192 	0.3441515111 	-5.267690883e-05
0.4421124636 	2.871763929 	0.3425158943 	-1.049452757e-05
0.4441539424 	2.86977915 	0.3400717824 	-2.582603277e-05
0.4462156827 	2.867772131 	0.3376234296 	-4.078354314e-05
0.4482979098 	2.86574275 	0.3351707501 	-5.536863795e-05
0.4504008528 	2.863685978 	0.332708512 	-6.95811825e-05
0.4525441768 	2.861591606 	0.3302245816 	-8.357820476e-05
0.454731616 	2.859458638 	0.3277180349 	-9.736145034e-05
0.4569406477 	2.857296755 	0.3252017747 	-0.0001107383124
0.4591715173 	2.855111534 	0.3226823737 	-0.0001237146603
0.4614244743 	2.852902845 	0.320159788 	-0.0001097191546
0.4636997726 	2.850666455 	0.3176298407 	-9.465319409e-05
0.4660138631 	2.848392013 	0.315081191 	-7.985513021e-05
0.4683768474 	2.846077092 	0.3125110401 	-6.527514148e-05
0.4707631028 	2.843731333 	0.3099317565 	-5.111915171e-05
0.4731729021 	2.841361086 	0.3073504162 	-3.738545103e-05
0.4756065229 	2.83896623 	0.3047668686 	-2.406909142e-05
0.4780642477 	2.836538262 	0.3021732386 	-1.116437882e-05
0.4802716443 	2.834369741 	0.2998777963 	-2.079967721e-05
0.4805791243 	2.834067027 	0.2995582083 	-1.522898692e-06
0.4831257177 	2.831555715 	0.2969297156 	-1.374412786e-05
0.4856974442 	2.829016799 	0.2942978013 	-2.553924357e-05
0.4882946084 	2.826452291 	0.2916645524 	-3.691486451e-05
0.4909175204 	2.823855731 	0.2890242568 	-4.787615861e-05
0.4935914432 	2.821217267 	0.2863665805 	-5.855602018e-05
0.4963073025 	2.818538808 	0.2836942692 	-6.88828028e-05
0.4990499663 	2.81582994 	0.2810178557 	-7.87794481e-05
0.5018197696 	2.813094384 	0.2783409781 	-8.825577624e-05
0.5046170535 	2.810324164 	0.2756569292 	-9.608507719e-05
0.5074731508 	2.807509826 	0.2729558313 	-8.444549716e-05
0.5103654706 	2.804656417 	0.2702438946 	-7.320342682e-05
0.5132863965 	2.801773288 	0.2675305288 	-6.239524776e-05
0.5162362976 	2.798859626 	0.2648153377 	-5.201112582e-05
0.5192259846 	2.795906047 	0.2620901398 	-4.199612996e-05
0.522272157 	2.792908377 	0.259350861 	-3.229509026e-05
0.5253484873 	2.789875174 	0.256606765 	-2.302240626e-05
0.5284553749 	2.786812506 	0.2538634382 	-1.416801431e-05
0.5315944582 	2.783711379 	0.2511138991 	-5.715411015e-06
0.5338265938 	2.781518829 	0.2491883234 	-5.386513929e-05
0.5347983671 	2.780563052 	0.24835015 	-2.437729817e-06
0.5380331266 	2.77737477 	0.2455807828 	-1.015799045e-05
0.5413001689 	2.774155712 	0.2428127683 	-1.747975686e-05
0.5446007731 	2.770897417 	0.2400398573 	-2.441745808e-05
0.5479665339 	2.767591879 	0.237254646 	-3.10603093e-05
0.5513659018 	2.764246525 	0.2344649091 	-3.730998987e-05
0.5547993447 	2.760867074 	0.2316759402 	-4.318151842e-05
0.5582741879 	2.757445591 	0.2288818415 	-4.87037649e-05
0.5618076284 	2.753977355 	0.2260787334 	-5.391168659e-05
0.5653765506 	2.7504692 	0.2232733598 	-5.875229034e-05
0.5689814607 	2.746922134 	0.2204673883 	-6.324119071e-05
0.5726399359 	2.743328626 	0.2176550246 	-6.656517067e-05
0.5763462671 	2.73968941 	0.2148375648 	-6.012515798e-05
0.5800900842 	2.736009603 	0.2120199976 	-5.404096219e-05
0.5838760648 	2.732284888 	0.2091998266 	-4.828785543e-05
0.5877219169 	2.728510035 	0.2063732296 	-4.283185472e-05
0.5916068205 	2.724690484 	0.2035454961 	-3.771206327e-05
0.5955313545 	2.720825693 	0.2007173055 	-3.291232801e-05
0.5995159326 	2.71690883 	0.1978838248 	-2.839100796e-05
0.6035443405 	2.712943024 	0.1950484159 	-2.417765361e-05
0.6076140506 	2.708929307 	0.1922130406 	-2.026142102e-05
0.6117400776 	2.704862036 	0.1893741359 	-1.661026397e-05
0.6159146912 	2.700742007 	0.1865332034 	-1.32374706e-05
0.6201323578 	2.696570087 	0.1836922026 	-1.013607248e-05
0.624405768 	2.69234169 	0.1808486033 	-7.279300933e-06
0.6287296122 	2.688056779 	0.178003365 	-4.674629625e-06
0.6330983433 	2.683715516 	0.1751580424 	-2.313590365e-06
0.6375243826 	2.679313524 	0.1723104634 	-1.730258934e-07
0.6379202885 	2.678918876 	0.1720584868 	-1.550037095e-05
0.6420004271 	2.674850506 	0.1694615727 	-1.749340373e-06
0.6465232803 	2.67032601 	0.1666125774 	-3.458317357e-06
0.6511063536 	2.665735305 	0.1637612695 	-4.97199978e-06
0.6557388531 	2.661078836 	0.1609093979 	-6.285146369e-06
0.660422338 	2.656354807 	0.1580572762 	-7.414966711e-06
0.665165319 	2.651571756 	0.1552106512 	-8.370919058e-06
0.6699055951 	2.646770364 	0.1523948199 	-9.147921707e-06
0.6745962236 	2.641989542 	0.14963217 	-9.761708564e-06
0.6792376453 	2.637240736 	0.1469277881 	-1.022382245e-05
0.683825733 	2.632523721 	0.1442805435 	-1.05524101e-05
0.6883675362 	2.627836141 	0.1416876915 	-1.076641832e-05
0.6928591181 	2.623177978 	0.1391481089 	-1.087250049e-05
0.6972995107 	2.618548531 	0.1366604777 	-1.088703684e-05
0.7016955919 	2.613945189 	0.1342221172 	-1.082188853e-05
0.7060419018 	2.60936842 	0.1318323747 	-1.068257043e-05
0.7103394253 	2.604817462 	0.1294899472 	-1.048240392e-05
0.7145929543 	2.60029003 	0.1271925555 	-1.022827781e-05
0.7187984672 	2.595786422 	0.1249395675 	-9.925330982e-06
0.7229570291 	2.591305818 	0.1227297394 	-9.583661675e-06
0.7270723394 	2.586846281 	0.120561161 	-9.207681089e-06
0.7311414373 	2.582407972 	0.1184332076 	-8.80126181e-06
0.7351650003 	2.577990133 	0.116344785 	-8.372005421e-06
0.7391464853 	2.573590961 	0.1142942011 	-7.923381751e-06
0.7430834556 	2.569210448 	0.1122808088 	-7.457491739e-06
0.7469765096 	2.564848066 	0.1103037446 	-6.980090693e-06
0.7508280447 	2.56050229 	0.1083615763 	-6.494438247e-06
0.7546370775 	2.556172703 	0.1064535149 	-6.001025794e-06
0.7584037601 	2.551858937 	0.1045788777 	-5.504041737e-06
0.7621294977 	2.54755983 	0.1027365147 	-5.006719824e-06
0.7658146819 	2.543274578 	0.1009255171 	-4.50871321e-06
0.7694590036 	2.539002913 	0.09914531647 	-4.012589233e-06
0.773063084 	2.534744004 	0.09739503279 	-3.521205991e-06
0.7766284048 	2.530496752 	0.09567368911 	-3.034797464e-06
0.7801542793 	2.526260807 	0.09398071651 	-2.553913453e-06
0.7836411951 	2.522035697 	0.09231551005 	-2.080709623e-06
0.7870900882 	2.517820446 	0.09067720807 	-1.616630223e-06
0.7905013293 	2.513614321 	0.08906511416 	-1.160844231e-06
0.7938749387 	2.509416933 	0.08747872843 	-7.145273528e-07
0.7972113697 	2.505227629 	0.08591741657 	-2.790640473e-07
0.7993670608 	2.502495854 	0.08491348688 	-2.868522759e-05
0.8005115188 	2.501045478 	0.08438039605 	-1.431401485e-07
0.8037753446 	2.496869886 	0.08286708054 	-5.509474421e-07
0.8070032442 	2.492700523 	0.08137711346 	-9.473648983e-07
0.8101956416 	2.488536709 	0.07990990714 	-1.331551076e-06
0.8133533493 	2.484377642 	0.07846484456 	-1.703713299e-06
0.8164763566 	2.480222808 	0.07704146709 	-2.064379373e-06
0.8195650428 	2.476071771 	0.07563935514 	-2.41295561e-06
0.8226198062 	2.471923881 	0.07425799855 	-2.748946428e-06
0.8256412934 	2.467778395 	0.07289687051 	-3.072613198e-06
0.8286296259 	2.463634761 	0.07155555395 	-3.384576025e-06
0.8315851548 	2.459492508 	0.07023366648 	-3.684510954e-06
0.8345082558 	2.455351048 	0.06893077914 	-3.97215505e-06
0.8373994246 	2.451209707 	0.06764643929 	-4.247596883e-06
0.840258936 	2.447067874 	0.06638025467 	-4.511608666e-06
0.843087083 	2.442925021 	0.06513188131 	-4.76410979e-06
0.8458842206 	2.438780584 	0.06390095735 	-5.004993612e-06
0.8486507275 	2.434633873 	0.06268709646 	-5.234222537e-06
0.8513870014 	2.430484137 	0.06148992612 	-5.452442393e-06
0.8540932784 	2.426330692 	0.06030913109 	-5.659922769e-06
0.8567698952 	2.422172867 	0.05914439312 	-5.856657176e-06
0.859417184 	2.418009931 	0.05799538902 	-6.042668957e-06
0.8620355136 	2.413841098 	0.05686178339 	-6.218125088e-06
0.8646251844 	2.409665588 	0.05574326795 	-6.383651413e-06
0.8671864803 	2.405482693 	0.05463956895 	-6.539382281e-06
0.869719717 	2.401291714 	0.05355040316 	-6.68539516e-06
0.8722252062 	2.397091896 	0.05247549353 	-6.821786775e-06
0.8747032823 	2.392882394 	0.05141455342 	-6.948780975e-06
0.8771542268 	2.388662302 	0.05036731689 	-7.066902624e-06
0.8795783229 	2.3844307 	0.04933354011 	-7.176300112e-06
0.8819758673 	2.380186631 	0.04831296891 	-7.2770923e-06
0.8843471534 	2.375929073 	0.04730535812 	-7.369410074e-06
0.8866924807 	2.371656916 	0.04631045413 	-7.453429402e-06
0.8890121322 	2.367368966 	0.04532801362 	-7.529597393e-06
0.8913063745 	2.363063972 	0.04435781471 	-7.598121583e-06
0.8935754874 	2.358740576 	0.04339963073 	-7.659145735e-06
0.8958197471 	2.354397252 	0.04245324153 	-7.712818504e-06
0.8980394268 	2.350032286 	0.04151843123 	-7.759288974e-06
0.9002348058 	2.345643813 	0.04059498301 	-7.798817044e-06
0.9024061361 	2.34122995 	0.03968269859 	-7.831704697e-06
0.9045536803 	2.336788948 	0.03878139031 	-7.858075559e-06
0.9066776993 	2.33231927 	0.03789086821 	-7.878049989e-06
0.9087784508 	2.327819579 	0.03701095011 	-7.891757217e-06
0.9108561896 	2.323288598 	0.03614144954 	-7.899340477e-06
0.912911172 	2.318724829 	0.03528217144 	-7.90105971e-06
0.9149436382 	2.314126235 	0.03443292297 	-7.897182441e-06
0.9169538349 	2.30948992 	0.0335935044 	-7.717989323e-06
0.9189420056 	2.304811933 	0.03276370767 	-7.409740177e-06
0.9209083911 	2.300087328 	0.03194333002 	-7.111425363e-06
0.9228532297 	2.295310517 	0.03113218018 	-6.822783528e-06
0.924776758 	2.290475846 	0.03033007842 	-6.543524099e-06
0.9266792058 	2.28557825 	0.02953687102 	-6.273312971e-06
0.9285608024 	2.28061372 	0.02875242819 	-6.011903744e-06
0.9304217757 	2.275579367 	0.02797662859 	-5.759025729e-06
0.9322623509 	2.270472967 	0.02720935741 	-5.514363801e-06
0.9340827508 	2.265292115 	0.0264504987 	-5.277587011e-06
0.9358831957 	2.260033241 	0.02569992562 	-5.048432486e-06
0.9376639037 	2.254690858 	0.0249574945 	-4.826767686e-06
0.9394250883 	2.24925736 	0.02422304968 	-4.612632382e-06
0.9411669627 	2.243723448 	0.02349641787 	-4.406140325e-06
0.9428897376 	2.238078962 	0.02277740597 	-4.207141786e-06
0.9445936216 	2.232313677 	0.02206581179 	-4.01498038e-06
0.9462788209 	2.226417524 	0.02136143288 	-3.828572379e-06
0.9479455394 	2.220379842 	0.02066407263 	-3.646962652e-06
0.9495939787 	2.21418763 	0.0199735256 	-3.470129547e-06
0.9512243377 	2.207823171 	0.01928955443 	-3.299400198e-06
0.9528368136 	2.201261564 	0.01861179495 	-3.13681028e-06
0.9544316015 	2.19505351 	0.0179964022 	-2.989446839e-06
0.9554705059 	2.189855762 	0.01750140004 	-2.887425895e-06
0.9564902884 	2.185142757 	0.01706955321 	-2.794824694e-06
0.9574913001 	2.180304982 	0.01664432895 	-2.703952642e-06
0.9584738859 	2.175320428 	0.01622561663 	-2.613270476e-06
0.9594383841 	2.170175281 	0.01581338873 	-2.522219971e-06
0.9603851272 	2.164864576 	0.01540770359 	-2.431381072e-06
0.9613144412 	2.159390959 	0.01500864265 	-2.342218377e-06
0.9622266463 	2.153762163 	0.01461625383 	-2.256507439e-06
0.9631220568 	2.147988072 	0.01423051478 	-2.175815116e-06
0.9640009813 	2.142078248 	0.01385132374 	-2.101112195e-06
0.9648637228 	2.136040253 	0.01347851526 	-2.032489254e-06
0.9657105787 	2.129878766 	0.01311188523 	-1.96907024e-06
0.966541841 	2.123595398 	0.01275121823 	-1.909274667e-06
0.9673577962 	2.117189108 	0.01239631606 	-1.851321241e-06
0.9681587258 	2.110656922 	0.01204702009 	-1.793678698e-06
0.9689449059 	2.103994627 	0.01170321642 	-1.735329689e-06
0.9697166078 	2.097197269 	0.0113648251 	-1.67591151e-06
0.9704740975 	2.090259605 	0.01103178487 	-1.615769177e-06
0.9712176365 	2.083176496 	0.01070403941 	-1.555808777e-06
0.9719474812 	2.075943083 	0.01038152404 	-1.497169406e-06
0.9726638834 	2.068554675 	0.01006415538 	-1.44087983e-06
0.9733670903 	2.061006508 	0.009751829751 	-1.38765039e-06
0.9740573446 	2.053293475 	0.009444429604 	-1.337783627e-06
0.9747348845 	2.045409822 	0.00914183532 	-1.291159278e-06
0.9753999438 	2.03734882 	0.00884393554 	-1.247312672e-06
0.9760527521 	2.029102504 	0.008550634405 	-1.205584737e-06
0.9766935347 	2.020661489 	0.008261857614 	-1.165294648e-06
0.9773225128 	2.01201486 	0.007977554321 	-1.125874901e-06
0.9779399037 	2.003150125 	0.007697695042 	-1.086941531e-06
0.9785459205 	1.994053177 	0.007422267288 	-1.048306629e-06
0.9791407724 	1.984708269 	0.007151270724 	-1.009946701e-06
0.9797246648 	1.975097974 	0.006884713126 	-9.719480455e-07
0.9802977995 	1.965203114 	0.006622607759 	-9.344484697e-07
0.9808603744 	1.955002671 	0.006364972233 	-8.97589149e-07
0.9814125837 	1.944473685 	0.006111828515 	-8.614833332e-07
0.9819546183 	1.933591145 	0.005863203626 	-8.262023505e-07
0.9824866654 	1.922327882 	0.005619130527 	-7.917752765e-07
0.9830089088 	1.910654482 	0.005379648833 	-7.581970021e-07
0.9835215289 	1.898539201 	0.005144805154 	-7.254397228e-07
0.9840247029 	1.885947896 	0.004914652982 	-6.934642006e-07
0.9845186046 	1.872843968 	0.004689252183 	-6.622287601e-07
0.9850034048 	1.859188309 	0.004468668167 	-6.316953346e-07
0.9854792709 	1.844939262 	0.004252970847 	-6.018327798e-07
0.9859463674 	1.830052575 	0.004042233528 	-5.726181213e-07
0.9864048558 	1.814481373 	0.003836531549 	-5.440364764e-07
0.9868548945 	1.79817612 	0.003635941028 	-5.160800931e-07
0.9872966392 	1.781084594 	0.003440538404 	-4.887466297e-07
0.9877302424 	1.763151853 	0.003250399325 	-4.620405374e-07
0.9881558542 	1.744320174 	0.003065594246 	-4.35973397e-07
0.9885736216 	1.724528973 	0.002886186669 	-4.105565615e-07
0.9889836891 	1.703714741 	0.002712238321 	-3.858021673e-07
0.9893861985 	1.681811159 	0.002543807554 	-3.617286219e-07
0.9897812889 	1.658749402 	0.002380942155 	-3.383556139e-07
0.9901690971 	1.634458545 	0.002223679183 	-3.157023539e-07
0.9905497571 	1.608866026 	0.00207204568 	-2.937890906e-07
0.9909234005 	1.581898181 	0.001926061774 	-2.726356553e-07
0.9912901566 	1.553480841 	0.001785744038 	-2.522604849e-07
0.9916501522 	1.523539937 	0.001651012166 	-2.326839337e-07
0.9920035119 	1.492001734 	0.001521435744 	-2.139332269e-07
0.9923503578 	1.461696554 	0.001407799312 	-1.972496421e-07
0.9925735893 	1.435990988 	0.001319442356 	-1.846340107e-07
0.9927968229 	1.412287693 	0.001243337893 	-1.735722663e-07
0.9930200586 	1.387455772 	0.001168452313 	-1.627829505e-07
0.9932432965 	1.3613931 	0.001095014691 	-1.522652615e-07
0.9934665364 	1.333976397 	0.001023115178 	-1.420000424e-07
0.9936897785 	1.305105224 	0.000952841233 	-1.319882741e-07
0.9939130227 	1.274702483 	0.0008842777648 	-1.222431898e-07
0.9941362689 	1.242691259 	0.000817512814 	-1.12775144e-07
0.9943595173 	1.208989661 	0.0007526344879 	-1.035967715e-07
0.9945827679 	1.173509846 	0.000689726386 	-9.472131652e-08
0.9948060205 	1.136158277 	0.0006288677387 	-8.616196717e-08
0.9950292752 	1.096836726 	0.0005701350505 	-7.793152213e-08
0.995252532 	1.055444008 	0.0005136058845 	-7.004203825e-08
0.995475791 	1.011878446 	0.0004593647003 	-6.250524532e-08
0.9956990521 	0.9660410681 	0.0004074760863 	-5.534078818e-08
0.9959223153 	0.9178395432 	0.0003578863849 	-4.856587407e-08
0.9961455805 	0.8671928076 	0.0003106322704 	-4.214351416e-08
0.9963688479 	0.8140366625 	0.0002688563482 	-3.539448894e-08
0.9965921175 	0.7583308135 	0.0002361652451 	-3.086325884e-08
0.9968153891 	0.7000561879 	0.000187810958 	-2.708061515e-08
0.9970386628 	0.6391799205 	0.0001303589332 	-2.004255576e-08
0.9972619387 	0.5756849768 	0.0001084100257 	-1.499375343e-08
0.9974852167 	0.5096905254 	9.912646678e-05 	-1.249200436e-08
0.9977084967 	0.4414642766 	7.813419111e-05 	-9.441526299e-09
0.9979317789 	0.3713349654 	5.674681164e-05 	-6.734665792e-09
0.9981550632 	0.2996128409 	3.642705644e-05 	-4.361988723e-09
0.9983783497 	0.2265251964 	1.985345207e-05 	-2.43875447e-09
0.9986016382 	0.1521989729 	8.730532366e-06 	-1.083092555e-09
0.9988249288 	0.07668558257 	-2.774422004e-06 	-5.543249847e-11
0.9990482216 	0.0320741902 	-8.441738799e-06 	3.628582231e-10
