0.3526971907 	1.30182318e-06 	-8.760326959e-09 	1.243399608e-12 	1.293733444e-06 	-1.2420487e-10 	2.46621552e-09
0.3528833318 	1.656440551e-05 	-4.392016966e-07 	8.41700833e-11 	1.625182852e-05 	-2.135639479e-09 	3.098050213e-08
0.3530694809 	9.499200687e-05 	-5.808689483e-06 	1.15765125e-09 	9.10926002e-05 	-1.229121201e-08 	1.736478139e-07
0.3532556373 	0.0003229727289 	-3.564031215e-05 	6.918962417e-09 	0.0002995429647 	-3.908362144e-08 	5.710121445e-07
0.3534418003 	0.0008068688769 	-0.0001374417012 	2.489872114e-08 	0.0007173331446 	-8.683239494e-08 	1.367436346e-06
0.3536279691 	0.001642804304 	-0.0003843299488 	6.257257377e-08 	0.001393412771 	-1.509932294e-07 	2.65623202e-06
0.3538141431 	0.002876634413 	-0.0008456682612 	1.196942106e-07 	0.002328998275 	-2.189375796e-07 	4.439718024e-06
0.3540003216 	0.004474717437 	-0.00154729837 	1.852456173e-07 	0.00347538985 	-2.760217269e-07 	6.62505899e-06
0.3541865037 	0.006314663404 	-0.002387829555 	2.049718109e-07 	0.004775745048 	-3.27178723e-07 	9.103897411e-06
0.3543726888 	0.008249319778 	-0.003195329441 	2.016783055e-07 	0.006189378289 	-3.658858971e-07 	1.179867527e-05
0.3545588762 	0.01020312043 	-0.003951342904 	2.112222597e-07 	0.007653342421 	-3.81475185e-07 	1.458939779e-05
0.3547450652 	0.0121355728 	-0.004699954126 	2.111114291e-07 	0.009103098667 	-3.788012411e-07 	1.735303613e-05
0.354931255 	0.01399889177 	-0.005423510152 	2.030415528e-07 	0.01050051534 	-3.597853825e-07 	2.00169007e-05
0.3551174449 	0.0157599742 	-0.006112427111 	1.89512252e-07 	0.01181717919 	-3.273815867e-07 	2.252682794e-05
0.3553036343 	0.01739693257 	-0.006765242799 	1.725485068e-07 	0.01303305747 	-2.841574762e-07 	2.48446299e-05
0.3554898223 	0.0188960848 	-0.007385650983 	1.529005554e-07 	0.01413223157 	-2.33134343e-07 	2.693996123e-05
0.3556760083 	0.02024809135 	-0.007978586142 	1.300923223e-07 	0.01510224032 	-1.779995786e-07 	2.878906749e-05
0.3558621916 	0.02144597198 	-0.008547112156 	1.034114186e-07 	0.01593418767 	-1.230532665e-07 	3.037499038e-05
0.3560483715 	0.02248529437 	-0.009092056051 	7.289574706e-08 	0.01662322128 	-7.281117511e-08 	3.168847994e-05
0.3562345472 	0.02336570204 	-0.009614130737 	3.950049694e-08 	0.0171686133 	-3.147935481e-08 	3.272814872e-05
0.356420718 	0.02405085057 	-0.009990456381 	3.621982e-09 	0.01761264667 	-2.911332006e-09 	3.357459973e-05
0.3564442227 	0.02411182397 	-0.01001173322 	-9.038235842e-07 	0.01766002914 	2.020963379e-06 	3.36649239e-05
0.3566065628 	0.02453392742 	-0.01015912873 	1.857547202e-08 	0.01798797401 	-1.888254022e-08 	3.429007796e-05
0.3567923551 	0.02487157042 	-0.01023596761 	3.33949356e-08 	0.01827707354 	-2.91489695e-08 	3.484118202e-05
0.3569781408 	0.02509539709 	-0.01027646605 	4.094110522e-08 	0.01847601071 	-2.626681723e-08 	3.522041155e-05
0.357163919 	0.02521588839 	-0.0102832324 	4.091202476e-08 	0.01859348344 	-9.386222252e-09 	3.544434723e-05
0.3573496891 	0.02524231509 	-0.01025892557 	3.313560131e-08 	0.01863705376 	2.197863085e-08 	3.552740436e-05
0.3575354505 	0.0251833003 	-0.01020617942 	1.753459666e-08 	0.0186136753 	6.799529788e-08 	3.548283853e-05
0.3577212023 	0.02504694465 	-0.01012751135 	-5.887609827e-09 	0.0185298141 	1.28536175e-07 	3.532297577e-05
0.357906944 	0.02484087768 	-0.01002528283 	-3.705317921e-08 	0.01839148856 	2.032062617e-07 	3.505928885e-05
0.3580926748 	0.02457219401 	-0.009901735175 	-7.581714523e-08 	0.01820448023 	2.913925478e-07 	3.4702799e-05
0.358278394 	0.02419855737 	-0.009737107645 	-1.271990216e-07 	0.01793983991 	4.015088628e-07 	3.4198321e-05
0.3585669344 	0.02364361984 	-0.009500566016 	-2.082738255e-07 	0.01754130401 	5.723949348e-07 	3.343860079e-05
0.3588608649 	0.02293006853 	-0.009203474622 	-3.122882961e-07 	0.01702358687 	7.799441294e-07 	3.245168803e-05
0.3591602827 	0.02211915717 	-0.008869656885 	-4.339814001e-07 	0.01643272797 	1.011438487e-06 	3.132534676e-05
0.3594652866 	0.02122633501 	-0.008503710884 	-5.726561219e-07 	0.01578141293 	1.262010749e-06 	3.008375926e-05
0.3597759769 	0.02026880654 	-0.008111500061 	-7.200258798e-07 	0.0150829544 	1.520367421e-06 	2.875230318e-05
0.3600924555 	0.01926771083 	-0.007701926798 	-8.620452374e-07 	0.01435301728 	1.770029805e-06 	2.736084015e-05
0.3604148257 	0.01824427335 	-0.007283821843 	-9.979418021e-07 	0.0136074878 	2.002997029e-06 	2.593965376e-05
0.3607431925 	0.01721525632 	-0.006862668441 	-1.131673447e-06 	0.01285973436 	2.214202731e-06 	2.451422787e-05
0.3610776623 	0.01619610357 	-0.006443345279 	-1.255904464e-06 	0.01212220913 	2.390711686e-06 	2.31082998e-05
0.3614183433 	0.01520365923 	-0.006032442164 	-1.358066619e-06 	0.01140794198 	2.516633282e-06 	2.174670808e-05
0.3617653449 	0.01425544558 	-0.005637929785 	-1.423639696e-06 	0.0107301415 	2.575641463e-06 	2.045463199e-05
0.3621187783 	0.01336908577 	-0.005268724043 	-1.437919781e-06 	0.01010186427 	2.552323575e-06 	1.925696097e-05
0.3624787563 	0.01256210108 	-0.00493348367 	-1.392121619e-06 	0.009534060173 	2.44426502e-06 	1.817456854e-05
0.362845393 	0.01184708264 	-0.004640413188 	-1.276170099e-06 	0.009040837188 	2.203510462e-06 	1.723434845e-05
0.3632188042 	0.01122921261 	-0.004393269109 	-1.128653856e-06 	0.008634646242 	1.839909792e-06 	1.646003561e-05
0.3635991072 	0.01068109914 	-0.004100721347 	-1.768624646e-06 	0.008323133797 	1.370114939e-06 	1.586620631e-05
0.3639864209 	0.01018235763 	-0.003727243508 	-2.373683119e-06 	0.008094136803 	9.319536774e-07 	1.54296744e-05
0.3643808655 	0.009746843545 	-0.003368515277 	-2.141507248e-06 	0.007925924308 	5.597207966e-07 	1.510901463e-05
0.3647825629 	0.009378749038 	-0.003057733299 	-1.994550346e-06 	0.007807970811 	1.878054365e-07 	1.488416248e-05
0.3651916363 	0.009073426435 	-0.002784145643 	-1.862403805e-06 	0.007731917015 	-1.643321403e-07 	1.473918281e-05
0.3656082104 	0.008823111159 	-0.002543610197 	-1.714857606e-06 	0.007695264439 	-5.707732338e-07 	1.466931281e-05
0.3660324115 	0.008619989041 	-0.002335487922 	-1.522705726e-06 	0.007697413131 	-1.006430832e-06 	1.467340881e-05
0.3664643669 	0.00845811739 	-0.002158442622 	-1.330886471e-06 	0.007736821429 	-1.474118495e-06 	1.474853198e-05
0.3669042055 	0.008330892201 	-0.002003517602 	-1.236764072e-06 	0.007810302507 	-1.939319968e-06 	1.488860734e-05
0.3673532781 	0.00823071817 	-0.001861287149 	-1.184703111e-06 	0.007912512393 	-2.368017475e-06 	1.508344779e-05
0.3678226155 	0.008151614806 	-0.001729002381 	-1.114141968e-06 	0.008038033386 	-2.767851036e-06 	1.532272569e-05
0.3683005872 	0.008089786301 	-0.001607101325 	-1.031569116e-06 	0.008181151001 	-3.101225857e-06 	1.559554764e-05
0.3687873492 	0.008041711523 	-0.001495275277 	-8.984843417e-07 	0.008337138403 	-3.188900025e-06 	1.589290298e-05
0.3692830603 	0.008004054739 	-0.001391812187 	-7.866311113e-07 	0.00850312246 	-3.230776148e-06 	1.620931473e-05
0.369787882 	0.007974215837 	-0.001295238453 	-6.929836135e-07 	0.008676952791 	-3.234756248e-06 	1.654068365e-05
0.3703019789 	0.00795018586 	-0.001204279574 	-6.146891363e-07 	0.008856951934 	-3.20682723e-06 	1.688381205e-05
0.3708255181 	0.007930409308 	-0.001117830765 	-5.492484447e-07 	0.009041784696 	-3.151670317e-06 	1.723615466e-05
0.3713586698 	0.007913668078 	-0.001034936513 	-4.944657882e-07 	0.009230391779 	-3.072872974e-06 	1.759569219e-05
0.3719016073 	0.007899001107 	-0.0009547705843 	-4.48443363e-07 	0.009421930474 	-2.973188315e-06 	1.796081817e-05
0.3724545069 	0.007885644112 	-0.0008766111521 	-4.095314943e-07 	0.009615721725 	-2.854757805e-06 	1.833023816e-05
0.3730175478 	0.007872984219 	-0.0007998225032 	-3.762744674e-07 	0.009811212103 	-2.719285505e-06 	1.870289715e-05
0.3735909124 	0.007860525334 	-0.0007238413453 	-3.473734503e-07 	0.01000794988 	-2.568146353e-06 	1.907793404e-05
0.3741747866 	0.007847861517 	-0.0006481634718 	-3.216506303e-07 	0.01020556568 	-2.402462118e-06 	1.945464468e-05
0.3747693591 	0.007834656582 	-0.0005723329132 	-2.980194343e-07 	0.01040375797 	-2.223154114e-06 	1.983245426e-05
0.3753748222 	0.007820628409 	-0.0004959326216 	-2.754590292e-07 	0.01060228195 	-2.030980105e-06 	2.021089614e-05
0.3759913715 	0.007805536683 	-0.0004185763653 	-2.529916771e-07 	0.01080094118 	-1.826560083e-06 	2.058959586e-05
0.3766192059 	0.007789173217 	-0.0003399014894 	-2.296619174e-07 	0.01099958124 	-1.610391986e-06 	2.096825902e-05
0.3772585279 	0.007771353863 	-0.0002595623691 	-2.045180595e-07 	0.01119808556 	-1.382855437e-06 	2.134666343e-05
0.3779095436 	0.007751912225 	-0.0001772241798 	-1.765895072e-07 	0.01139637184 	-1.144227029e-06 	2.172465218e-05
0.3785724626 	0.007730698072 	-9.255483802e-05 	-1.448496584e-07 	0.01159438169 	-8.947080875e-07 	2.210211399e-05
0.379247498 	0.007707562585 	-5.220634865e-06 	-1.082151441e-07 	0.01179209925 	-6.342836843e-07 	2.247901862e-05
0.3799348671 	0.007682323828 	8.50996201e-05 	-6.554304419e-08 	0.01198961497 	-3.627206958e-07 	2.285553847e-05
0.3806347904 	0.007654959034 	0.0001788869119 	-1.538416229e-08 	0.0121866987 	-8.021681782e-08 	2.323123483e-05
0.3808310927 	0.00764676621 	0.0002058340923 	1.18790341e-06 	0.01224105265 	2.178995479e-06 	2.333484858e-05
0.3813466422 	0.0076252113 	0.000276731814 	-4.08990134e-08 	0.01238411276 	-2.081532961e-07 	2.36075609e-05
0.3820801772 	0.007592854143 	0.0003781553084 	-1.038664023e-07 	0.01258351171 	-5.103074609e-07 	2.398767072e-05
0.3828382826 	0.007567919819 	0.000475869695 	-1.489834115e-07 	0.01274469871 	-6.962087947e-07 	2.429493794e-05
0.3836101777 	0.007560914213 	0.0005610655589 	-1.474676131e-07 	0.01282841907 	-6.296855934e-07 	2.445453222e-05
0.3843961079 	0.007564046798 	0.0006366393879 	-1.420802875e-07 	0.01287263046 	-6.24258093e-07 	2.453881142e-05
0.3851963225 	0.007568985906 	0.0007082583902 	-1.554982367e-07 	0.01291239874 	-7.621643123e-07 	2.461462082e-05
0.3860110754 	0.007574689105 	0.0007771930996 	-1.682053192e-07 	0.01295096381 	-9.004107687e-07 	2.468813655e-05
0.3868406247 	0.007581099501 	0.0008435260799 	-1.756284569e-07 	0.01298833132 	-1.038943107e-06 	2.475936941e-05
0.3876852333 	0.007588145717 	0.0009071536921 	-1.762817736e-07 	0.01302454846 	-1.177810651e-06 	2.482840934e-05
0.3885451683 	0.00759578938 	0.0009680314389 	-1.699133397e-07 	0.013059648 	-1.316709943e-06 	2.489531882e-05
0.3894207017 	0.007603943749 	0.001025996196 	-1.561888822e-07 	0.01309371842 	-1.455408718e-06 	2.496026652e-05
0.3903121102 	0.007613745672 	0.001087208896 	-1.299557253e-07 	0.01313111138 	-1.593159498e-06 	2.503154789e-05
0.3916794299 	0.007626219396 	0.001156980969 	-8.796888103e-08 	0.01317494501 	-1.800395014e-06 	2.511510697e-05
0.3930606337 	0.007640095362 	0.001226758274 	-2.552915797e-08 	0.01322025333 	-2.001591497e-06 	2.520147723e-05
0.3944558643 	0.007654320881 	0.001289763026 	4.923017413e-08 	0.01326313381 	-2.102355286e-06 	2.528321933e-05
0.3958652666 	0.00766875118 	0.001346292133 	1.10141589e-07 	0.01330434869 	-1.863128295e-06 	2.536178635e-05
0.3973226541 	0.007683289939 	0.001397330601 	1.52560493e-07 	0.01334434212 	-1.62149857e-06 	2.543802495e-05
0.3987982205 	0.007697891707 	0.001443626196 	1.768543689e-07 	0.01338289104 	-1.38407302e-06 	2.55115099e-05
0.4002886278 	0.00771238634 	0.001484980403 	1.836896766e-07 	0.01342016029 	-1.151773874e-06 	2.558255546e-05
0.401794029 	0.007726751401 	0.001522099859 	1.747526416e-07 	0.01345631249 	-9.248191669e-07 	2.565147159e-05
0.4033145791 	0.007740977031 	0.001555593836 	1.519233828e-07 	0.01349155075 	-7.032357519e-07 	2.571864551e-05
0.404850435 	0.007755082505 	0.001586039145 	1.17178496e-07 	0.0135260519 	-4.869221643e-07 	2.57844143e-05
0.4064017559 	0.0077690585 	0.001613881292 	7.244425092e-08 	0.01356002018 	-2.756500494e-07 	2.584916728e-05
0.4079687029 	0.007783012654 	0.001639784486 	1.953414437e-08 	0.01359350063 	-6.911577996e-08 	2.591299033e-05
0.4085056593 	0.007787756168 	0.001647966405 	2.434398502e-07 	0.01360482049 	-2.177115075e-07 	2.593456912e-05
0.4095500387 	0.007797002438 	0.001663916551 	3.870641484e-08 	0.01362685344 	-1.329572207e-07 	2.597657004e-05
0.4111722932 	0.007811083883 	0.001686710823 	1.030374649e-07 	0.01366047123 	-3.347392581e-07 	2.604065489e-05
0.4128244561 	0.007825341951 	0.00170882897 	1.724900489e-07 	0.01369422343 	-5.346118884e-07 	2.610499598e-05
0.4144931395 	0.007839741219 	0.001730177752 	2.453544238e-07 	0.01372810139 	-7.309534868e-07 	2.616957677e-05
0.4161785171 	0.007854282343 	0.001750852253 	3.207346335e-07 	0.01376216891 	-9.241834756e-07 	2.623451895e-05
0.4178807647 	0.007868998571 	0.001771079716 	3.979653662e-07 	0.01379648803 	-1.114715587e-06 	2.629994073e-05
0.4196000609 	0.007883899785 	0.001790967587 	4.765362907e-07 	0.0138311535 	-1.302904963e-06 	2.636602274e-05
0.4213365867 	0.007899054397 	0.001810754249 	5.561293506e-07 	0.0138661596 	-1.489124663e-06 	2.643275409e-05
0.4230905257 	0.007914549481 	0.001830482737 	6.364915743e-07 	0.01390169568 	-1.673645766e-06 	2.650049574e-05
0.4248808085 	0.007930416383 	0.001850133557 	6.349004655e-07 	0.0139381333 	-1.642955809e-06 	2.656995597e-05
0.4267111345 	0.00794671257 	0.00187011347 	5.635658459e-07 	0.01397536023 	-1.437550462e-06 	2.664092086e-05
0.4285596439 	0.007963407782 	0.001890356431 	4.905387901e-07 	0.01401318929 	-1.235230216e-06 	2.671303354e-05
0.430426532 	0.007980443008 	0.001910639269 	4.160691863e-07 	0.01405163659 	-1.035567761e-06 	2.678632478e-05
0.432311997 	0.007997819687 	0.001931056216 	3.404239835e-07 	0.01409068983 	-8.383139206e-07 	2.686077112e-05
0.4342162403 	0.008015520021 	0.001951594695 	2.637703403e-07 	0.01413038641 	-6.432160639e-07 	2.693644383e-05
0.4361394662 	0.008033660167 	0.001972514026 	1.862798797e-07 	0.01417062171 	-4.501121731e-07 	2.70131435e-05
0.438086583 	0.008052251918 	0.001993479782 	1.077643501e-07 	0.01421188102 	-2.581922513e-07 	2.709179522e-05
0.4400903286 	0.008071341591 	0.002014812584 	2.677832057e-08 	0.01425424658 	-6.363618923e-08 	2.717255575e-05
0.4407568964 	0.008077793926 	0.002022043782 	1.556633515e-07 	0.01426842161 	-2.599995649e-07 	2.719957729e-05
0.4421124636 	0.00809093363 	0.002036754368 	5.417705338e-08 	0.01429724893 	-1.285807047e-07 	2.725453017e-05
0.4441539424 	0.008110901299 	0.002058797542 	1.353058016e-07 	0.01434094589 	-3.188372843e-07 	2.733782872e-05
0.4462156827 	0.008131224832 	0.002081026014 	2.168238355e-07 	0.01438532086 	-5.074798589e-07 	2.742241976e-05
0.4482979098 	0.008151936223 	0.002103560398 	2.986931801e-07 	0.01443030096 	-6.946224543e-07 	2.750816432e-05
0.4504008528 	0.008173099721 	0.002126367785 	3.808764068e-07 	0.01447603174 	-8.803683773e-07 	2.75953399e-05
0.4525441768 	0.008194743638 	0.002149386508 	4.64209591e-07 	0.01452285864 	-1.06675405e-06 	2.768460498e-05
0.454731616 	0.008216915465 	0.002172955837 	5.487767532e-07 	0.01457061241 	-1.254015533e-06 	2.777563695e-05
0.4569406477 	0.008239548469 	0.002196964024 	6.33461327e-07 	0.01461904654 	-1.439816015e-06 	2.786796586e-05
0.4591715173 	0.008262535742 	0.002221127184 	7.181874128e-07 	0.01466816747 	-1.624106134e-06 	2.7961604e-05
0.4614244743 	0.008285893949 	0.002245584067 	6.463834853e-07 	0.01471788523 	-1.45466631e-06 	2.805637988e-05
0.4636997726 	0.00830968665 	0.00227035209 	5.659062118e-07 	0.01476829206 	-1.267715557e-06 	2.815246931e-05
0.4660138631 	0.008333947644 	0.002295339698 	4.845328246e-07 	0.01481975352 	-1.08067638e-06 	2.825056916e-05
0.4683768474 	0.008358731364 	0.002320870029 	4.020133159e-07 	0.01487214346 	-8.928378851e-07 	2.835043894e-05
0.4707631028 	0.008383976567 	0.002346896228 	3.195819331e-07 	0.01492516606 	-7.069413679e-07 	2.845151474e-05
0.4731729021 	0.008409546335 	0.002373055325 	2.37240318e-07 	0.01497886064 	-5.228179488e-07 	2.855387154e-05
0.4756065229 	0.008435511177 	0.002399622211 	1.550422911e-07 	0.0150330377 	-3.404566835e-07 	2.865714808e-05
0.4780642477 	0.008461895928 	0.002426368082 	7.299964594e-08 	0.01508807713 	-1.597694215e-07 	2.876206852e-05
0.4802716443 	0.008485478237 	0.002450158016 	6.606630048e-08 	0.0151373162 	-1.014716137e-07 	2.885593188e-05
0.4805791243 	0.008488766466 	0.002453470862 	1.004496329e-08 	0.01514417511 	-2.212517176e-08 	2.886900686e-05
0.4831257177 	0.008516145119 	0.002481219813 	9.199482303e-08 	0.01520089416 	-2.020728019e-07 	2.897712914e-05
0.4856974442 	0.00854387796 	0.002509194001 	1.734682756e-07 	0.01525825481 	-3.800643472e-07 	2.908647447e-05
0.4882946084 	0.008571975128 	0.002537507725 	2.544389266e-07 	0.01531610716 	-5.56156879e-07 	2.919675714e-05
0.4909175204 	0.008600467893 	0.002566056212 	3.348654825e-07 	0.01537469674 	-7.303949332e-07 	2.930844516e-05
0.4935914432 	0.008629420134 	0.002594934756 	4.15645695e-07 	0.01543426627 	-9.047696752e-07 	2.942200125e-05
0.4963073025 	0.008658879731 	0.00262444735 	4.962493282e-07 	0.01549452261 	-1.078293761e-06 	2.953686658e-05
0.4990499663 	0.008688707906 	0.002654277742 	5.760236917e-07 	0.01555537154 	-1.249664992e-06 	2.965286156e-05
0.5018197696 	0.008718901342 	0.002684472011 	6.549565044e-07 	0.01561665379 	-1.418942452e-06 	2.976968254e-05
0.5046170535 	0.008749476467 	0.002714867154 	7.237036142e-07 	0.01567870678 	-1.56606813e-06 	2.988797279e-05
0.5074731508 	0.008780517379 	0.002745663307 	6.455886343e-07 	0.01574168901 	-1.395554354e-06 	3.000803443e-05
0.5103654706 	0.008812047069 	0.00277711523 	5.680661508e-07 	0.01580522038 	-1.22702575e-06 	3.012914287e-05
0.5132863965 	0.008843930222 	0.002808877049 	4.914714721e-07 	0.01586924998 	-1.060982336e-06 	3.025120109e-05
0.5162362976 	0.008876175294 	0.002840958169 	4.158370139e-07 	0.0159337778 	-8.973789249e-07 	3.037420904e-05
0.5192259846 	0.008908820804 	0.002873313037 	3.408110976e-07 	0.01599911183 	-7.353596455e-07 	3.049875387e-05
0.522272157 	0.008941955141 	0.002906233814 	2.66036091e-07 	0.01606515337 	-5.740339347e-07 	3.06246474e-05
0.5253484873 	0.008975505167 	0.002939668458 	1.92502683e-07 	0.01613163547 	-4.155063433e-07 	3.075138075e-05
0.5284553749 	0.009009411977 	0.002973473341 	1.202444155e-07 	0.01619846501 	-2.596832827e-07 	3.087877643e-05
0.5315944582 	0.009043682748 	0.003007503498 	4.923252846e-08 	0.01626600394 	-1.064097129e-07 	3.100752442e-05
0.5338265938 	0.009067883986 	0.003031567131 	1.948263539e-07 	0.01631356436 	-3.459014973e-07 	3.10981878e-05
0.5347983671 	0.00907842656 	0.003042037254 	2.100547783e-08 	0.01633427105 	-4.599764528e-08 	3.113766049e-05
0.5380331266 	0.009113621566 	0.00307719567 	8.879015523e-08 	0.01640284846 	-1.947197142e-07 	3.126838811e-05
0.5413001689 	0.009149167199 	0.00311272548 	1.549800926e-07 	0.01647171453 	-3.404608653e-07 	3.139966597e-05
0.5446007731 	0.009185066119 	0.003148509114 	2.195793787e-07 	0.01654119091 	-4.833377241e-07 	3.153210725e-05
0.5479665339 	0.009221430742 	0.003184819954 	2.832946898e-07 	0.01661129001 	-6.249588154e-07 	3.166573564e-05
0.5513659018 	0.009258266965 	0.003221833088 	3.45087585e-07 	0.01668157508 	-7.63289619e-07 	3.179971851e-05
0.5547993447 	0.00929544241 	0.003259185659 	4.049765299e-07 	0.01675214312 	-8.983747647e-07 	3.19342408e-05
0.5582741879 	0.009332985994 	0.003296883411 	4.63097877e-07 	0.01682319394 	-1.030629137e-06 	3.206968341e-05
0.5618076284 	0.009370992634 	0.00333517308 	5.196530289e-07 	0.01689462764 	-1.1606072e-06 	3.22058559e-05
0.5653765506 	0.009409449684 	0.003374127021 	5.739592394e-07 	0.01696610584 	-1.287057275e-06 	3.234211322e-05
0.5689814607 	0.009448234809 	0.003413392984 	6.260558459e-07 	0.01703785895 	-1.410010308e-06 	3.247889459e-05
0.5726399359 	0.00948742424 	0.003453129702 	6.676398616e-07 	0.01710993109 	-1.510758842e-06 	3.261628411e-05
0.5763462671 	0.009527084878 	0.003493560831 	6.108141567e-07 	0.01718203374 	-1.389383335e-06 	3.27537318e-05
0.5800900842 	0.0095671248 	0.003534495611 	5.559366526e-07 	0.0172541152 	-1.271725764e-06 	3.289113911e-05
0.5838760648 	0.009607509172 	0.003575807402 	5.028998264e-07 	0.01732635638 	-1.157419659e-06 	3.302885088e-05
0.5877219169 	0.009648340292 	0.003617732336 	4.514637277e-07 	0.0173986325 	-1.045858438e-06 	3.316662925e-05
0.5916068205 	0.009689613163 	0.003660347891 	4.021410684e-07 	0.01747061347 	-9.382812936e-07 	3.330384498e-05
0.5955313545 	0.009731195034 	0.003703308709 	3.549465417e-07 	0.01754256093 	-8.345091295e-07 	3.344099684e-05
0.5995159326 	0.009773186328 	0.003746823511 	3.095549182e-07 	0.01761439885 	-7.337297769e-07 	3.357793988e-05
0.6035443405 	0.009815635059 	0.003791079065 	2.663803946e-07 	0.01768574438 	-6.369950928e-07 	3.371394428e-05
0.6076140506 	0.009858388723 	0.003835719826 	2.254838267e-07 	0.01775681329 	-5.442869205e-07 	3.384942139e-05
0.6117400776 	0.009901515638 	0.003880881202 	1.866301525e-07 	0.01782753426 	-4.550185621e-07 	3.398423521e-05
0.6159146912 	0.009945084525 	0.003926765237 	1.500735152e-07 	0.01789755717 	-3.698457621e-07 	3.411771834e-05
0.6201323578 	0.009988954824 	0.003973070888 	1.158875174e-07 	0.01796703576 	-2.888770982e-07 	3.425016384e-05
0.624405768 	0.01003317382 	0.004019886639 	8.388277863e-08 	0.018035884 	-2.116465628e-07 	3.438140771e-05
0.6287296122 	0.01007780968 	0.004067399469 	5.425305819e-08 	0.01810376176 	-1.386763545e-07 	3.45108016e-05
0.6330983433 	0.01012272363 	0.004115328396 	2.702535056e-08 	0.01817080803 	-7.003748165e-08 	3.463861042e-05
0.6375243826 	0.01016796993 	0.004163772602 	2.032749087e-09 	0.01823688493 	-5.345438033e-09 	3.476457136e-05
0.6379202885 	0.01017200486 	0.004168115527 	7.468704781e-08 	0.01824261438 	-2.38967074e-07 	3.477549327e-05
0.6420004271 	0.01021359221 	0.004212859077 	2.016122129e-08 	0.01830166143 	-5.449370557e-08 	3.488805337e-05
0.6465232803 	0.01025945286 	0.004262325728 	4.00125586e-08 	0.01836528421 	-1.099307192e-07 	3.500933607e-05
0.6511063536 	0.01030563895 	0.004312331363 	5.769772607e-08 	0.01842752066 	-1.612866513e-07 	3.512797604e-05
0.6557388531 	0.01035213663 	0.004362896472 	7.307844076e-08 	0.01848812864 	-2.080819032e-07 	3.52435117e-05
0.660422338 	0.0103988389 	0.004413818457 	8.629768256e-08 	0.0185471731 	-2.505597293e-07 	3.535606685e-05
0.665165319 	0.01044571865 	0.004465145239 	9.740501635e-08 	0.0186041842 	-2.886980266e-07 	3.546474585e-05
0.6699055951 	0.01049227799 	0.004516292342 	1.06301874e-07 	0.01865866958 	-3.219535515e-07 	3.556861013e-05
0.6745962236 	0.0105380932 	0.004566754683 	1.131517478e-07 	0.01871020222 	-3.50476196e-07 	3.566684566e-05
0.6792376453 	0.01058312426 	0.004616540597 	1.1806822e-07 	0.0187584758 	-3.743146131e-07 	3.575886852e-05
0.683825733 	0.01062727489 	0.004665477746 	1.212721723e-07 	0.01880368721 	-3.938260438e-07 	3.584505403e-05
0.6883675362 	0.0106706141 	0.004713650182 	1.229838096e-07 	0.01884577636 	-4.09433461e-07 	3.592528765e-05
0.6928591181 	0.01071316635 	0.004761110117 	1.23285727e-07 	0.01888466498 	-4.211486801e-07 	3.599942017e-05
0.6972995107 	0.0107548337 	0.004807683749 	1.224035549e-07 	0.0189205825 	-4.293930836e-07 	3.606788895e-05
0.7016955919 	0.01079571116 	0.004853494275 	1.204861915e-07 	0.01895342565 	-4.34435946e-07 	3.613049712e-05
0.7060419018 	0.01083577889 	0.00489852538 	1.176228715e-07 	0.01898320219 	-4.363381707e-07 	3.618725948e-05
0.7103394253 	0.0108749688 	0.004942654696 	1.140076778e-07 	0.01901009427 	-4.355005965e-07 	3.623852326e-05
0.7145929543 	0.0109133759 	0.004986005604 	1.097360126e-07 	0.01903398985 	-4.320765802e-07 	3.628407487e-05
0.7187984672 	0.01095095753 	0.005028528249 	1.049003163e-07 	0.01905495607 	-4.261797764e-07 	3.632404232e-05
0.7229570291 	0.01098767107 	0.005070142306 	9.965106531e-08 	0.01907313311 	-4.181524084e-07 	3.635869281e-05
0.7270723394 	0.01102360405 	0.00511095704 	9.405552887e-08 	0.01908841952 	-4.081018433e-07 	3.638783295e-05
0.7311414373 	0.01105871483 	0.005150927777 	8.818990244e-08 	0.01910088767 	-3.961384095e-07 	3.641160072e-05
0.7351650003 	0.01109295948 	0.00518997927 	8.217056701e-08 	0.01911067944 	-3.82553049e-07 	3.643026655e-05
0.7391464853 	0.01112642259 	0.005228208472 	7.605140773e-08 	0.01911770686 	-3.674546108e-07 	3.644366278e-05
0.7430834556 	0.01115908209 	0.0052656009 	6.988197661e-08 	0.01912200874 	-3.509092015e-07 	3.645186335e-05
0.7469765096 	0.01119087294 	0.005302064266 	6.375279458e-08 	0.01912375598 	-3.331652693e-07 	3.645519406e-05
0.7508280447 	0.0112218757 	0.005337680391 	5.77094449e-08 	0.01912287801 	-3.143547514e-07 	3.645352042e-05
0.7546370775 	0.0112520989 	0.005372473801 	5.177631446e-08 	0.01911936539 	-2.944891708e-07 	3.644682438e-05
0.7584037601 	0.01128145697 	0.00540634052 	4.60198015e-08 	0.01911341087 	-2.737717705e-07 	3.643547342e-05
0.7621294977 	0.01131001483 	0.005439336356 	4.047937253e-08 	0.01910497855 	-2.523588726e-07 	3.641939907e-05
0.7658146819 	0.01133781086 	0.005471514828 	3.51641953e-08 	0.01909402112 	-2.302343577e-07 	3.639851117e-05
0.7694590036 	0.011364766 	0.005502793623 	3.011499594e-08 	0.0190807009 	-2.075391971e-07 	3.637311913e-05
0.773063084 	0.01139089851 	0.005533177569 	2.536357426e-08 	0.01906505835 	-1.844304961e-07 	3.634330008e-05
0.7766284048 	0.01141627054 	0.005562731671 	2.091687483e-08 	0.01904703306 	-1.60930949e-07 	3.630893886e-05
0.7801542793 	0.01144085173 	0.005591436127 	1.678801344e-08 	0.0190266896 	-1.370859547e-07 	3.627015858e-05
0.7836411951 	0.01146459078 	0.005619233915 	1.299944103e-08 	0.01900416501 	-1.130293536e-07 	3.622722045e-05
0.7870900882 	0.0114875502 	0.00564617661 	9.561086257e-09 	0.01897942236 	-8.885771637e-08 	3.618005408e-05
0.7905013293 	0.0115097553 	0.005672298353 	6.469398153e-09 	0.01895244229 	-6.454657396e-08 	3.612862256e-05
0.7938749387 	0.0115311423 	0.005697544856 	3.733639804e-09 	0.01892335437 	-4.018393737e-08 	3.60731729e-05
0.7972113697 	0.01155170684 	0.005721904641 	1.35952548e-09 	0.01889222709 	-1.587068477e-08 	3.601383565e-05
0.7993670608 	0.01156463956 	0.005737269353 	-1.761797076e-09 	0.01887053494 	-1.688385545e-06 	3.597248439e-05
0.8005115188 	0.01157150802 	0.005745428653 	6.273793556e-10 	0.01885901736 	-8.344938491e-09 	3.595052868e-05
0.8037753446 	0.01159054217 	0.005768123755 	2.202752866e-09 	0.01882375076 	-3.246421839e-08 	3.588330075e-05
0.8070032442 	0.01160874819 	0.005789941083 	3.418679325e-09 	0.01878655799 	-5.641257241e-08 	3.581240099e-05
0.8101956416 	0.01162614246 	0.005810889046 	4.280637095e-09 	0.01874747523 	-8.011480936e-08 	3.573789837e-05
0.8133533493 	0.0116427761 	0.005831012388 	4.797938651e-09 	0.01870646753 	-1.035560218e-07 	3.565972631e-05
0.8164763566 	0.01165863444 	0.005850308237 	4.981739884e-09 	0.01866358168 	-1.267421758e-07 	3.557797395e-05
0.8195650428 	0.01167367406 	0.005868744246 	4.842296121e-09 	0.01861892477 	-1.496120974e-07 	3.549284547e-05
0.8226198062 	0.01168791285 	0.005886331276 	4.390057789e-09 	0.01857253017 	-1.721075195e-07 	3.540440447e-05
0.8256412934 	0.01170139877 	0.005903108845 	3.636086337e-09 	0.01852437226 	-1.94214464e-07 	3.531260211e-05
0.8286296259 	0.01171412003 	0.005919076187 	2.594247432e-09 	0.01847449847 	-2.15945292e-07 	3.521752881e-05
0.8315851548 	0.01172603777 	0.005934208322 	1.280444287e-09 	0.01842300792 	-2.372562675e-07 	3.51193735e-05
0.8345082558 	0.01173715816 	0.005948508738 	-2.89341922e-10 	0.01836995169 	-2.581062149e-07 	3.501823359e-05
0.8373994246 	0.01174752979 	0.005962013566 	-2.100497732e-09 	0.01831531416 	-2.784739375e-07 	3.491407928e-05
0.840258936 	0.01175716367 	0.005974737742 	-4.136877678e-09 	0.01825911793 	-2.98385902e-07 	3.480695364e-05
0.843087083 	0.01176603257 	0.005986666767 	-6.379267763e-09 	0.01820144835 	-3.178165182e-07 	3.469701938e-05
0.8458842206 	0.01177414607 	0.005997807109 	-8.810569699e-09 	0.01814235547 	-3.367343086e-07 	3.458437193e-05
0.8486507275 	0.01178155578 	0.006008192555 	-1.141756901e-08 	0.01808183289 	-3.551057391e-07 	3.446899908e-05
0.8513870014 	0.01178830545 	0.006017855806 	-1.418934433e-08 	0.01801987134 	-3.729414135e-07 	3.435088314e-05
0.8540932784 	0.01179438305 	0.006026792804 	-1.711039885e-08 	0.01795653984 	-3.902322946e-07 	3.423015569e-05
0.8567698952 	0.01179978594 	0.006035003835 	-2.016403294e-08 	0.01789190285 	-4.06951229e-07 	3.410693964e-05
0.859417184 	0.0118045271 	0.006042497627 	-2.333317727e-08 	0.01782601082 	-4.230739197e-07 	3.398133111e-05
0.8620355136 	0.01180864445 	0.006049298526 	-2.660130869e-08 	0.01775888004 	-4.385871732e-07 	3.385336119e-05
0.8646251844 	0.01181215079 	0.006055419772 	-2.995059772e-08 	0.0176905493 	-4.535166699e-07 	3.37231038e-05
0.8671864803 	0.01181502452 	0.006060852318 	-3.335717869e-08 	0.01762111287 	-4.678613177e-07 	3.359073866e-05
0.869719717 	0.01181727856 	0.006065606461 	-3.68011779e-08 	0.01755062771 	-4.816097875e-07 	3.345637436e-05
0.8722252062 	0.0118189471 	0.006069703389 	-4.026804845e-08 	0.01747913018 	-4.947423656e-07 	3.332008019e-05
0.8747032823 	0.01182009168 	0.006073178922 	-4.375090879e-08 	0.01740662317 	-5.072352915e-07 	3.318186167e-05
0.8771542268 	0.01182075354 	0.006076059885 	-4.724747937e-08 	0.01733312849 	-5.190796077e-07 	3.30417604e-05
0.8795783229 	0.0118209427 	0.00607835401 	-5.075139251e-08 	0.01725871782 	-5.302403046e-07 	3.289991297e-05
0.8819758673 	0.01182068955 	0.006080079699 	-5.425558579e-08 	0.01718344129 	-5.406818313e-07 	3.2756415e-05
0.8843471534 	0.01182002982 	0.00608125761 	-5.774586491e-08 	0.01710734728 	-5.503858959e-07 	3.261135866e-05
0.8866924807 	0.01181902027 	0.006081918093 	-6.119809819e-08 	0.01703046253 	-5.593647879e-07 	3.246479495e-05
0.8890121322 	0.01181771674 	0.006082092538 	-6.457733138e-08 	0.01695281022 	-5.676867499e-07 	3.231676807e-05
0.8913063745 	0.01181616235 	0.006081803761 	-6.783581892e-08 	0.01687443941 	-5.754355768e-07 	3.216737152e-05
0.8935754874 	0.01181442967 	0.006081086817 	-7.092935107e-08 	0.01679537134 	-5.826931494e-07 	3.201664581e-05
0.8958197471 	0.01181260768 	0.006079983541 	-7.383139664e-08 	0.01671560893 	-5.895094192e-07 	3.186459649e-05