0.1259213289 	0.09591142464 	0.063999046 	-0.0002300885987
0.1262793061 	0.3433496895 	0.2281285591 	-0.0008037114376
0.1266372716 	0.6630999805 	0.4393793919 	-0.001415630742
0.1269952209 	0.9550688235 	0.6316224105 	-0.001842761319
0.1273531494 	1.214133318 	0.8009928299 	-0.002094596694
0.1277110527 	1.43588029 	0.9445189556 	-0.002192163366
0.1280689261 	1.618125476 	1.060998523 	-0.002166567923
0.1284267651 	1.761426016 	1.150984373 	-0.00205419191
0.1287845652 	1.868933592 	1.216680755 	-0.001890993252
0.1291423219 	1.94573407 	1.261638601 	-0.001706931203
0.1295000308 	1.998014061 	1.29008494 	-0.00152610901
0.1298576873 	2.032263673 	1.306454265 	-0.00136381398
0.1302152869 	2.054395332 	1.314842514 	-0.001221744317
0.1305728251 	2.069006309 	1.31833173 	-0.001094513937
0.1309302976 	2.079166023 	1.318892109 	-0.0009771186651
0.1312876999 	2.086663483 	1.317695898 	-0.0008662268596
0.1316450274 	2.092483595 	1.315412876 	-0.0007597970449
0.1320022759 	2.097192646 	1.31242237 	-0.0006566951928
0.1323594408 	2.101125238 	1.308949459 	-0.0005563738252
0.1327165178 	2.104479759 	1.305127991 	-0.000458587739
0.1330735024 	2.107392328 	1.301046543 	-0.0003632149859
0.1334303903 	2.109952911 	1.296767733 	-0.0002702033372
0.133787177 	2.112226408 	1.292336485 	-0.0001795062735
0.1341438583 	2.114269569 	1.287790103 	-9.104274242e-05
0.1345004297 	2.116132133 	1.283162416 	-4.703790055e-06
0.1345200979 	2.116227406 	1.282903446 	-1.479485774e-05
0.1348448873 	2.117470664 	1.27845733 	-7.577121233e-05
0.1351885373 	2.118697062 	1.273720224 	-0.0001543413079
0.1355320768 	2.119864767 	1.268973502 	-0.0002313178223
0.1358755018 	2.120997783 	1.264233961 	-0.0003067800817
0.1362188085 	2.12211393 	1.25951522 	-0.0003808029205
0.1365619928 	2.123263212 	1.254235726 	-0.0004529486863
0.1370949704 	2.124978594 	1.247580497 	-0.0005636904723
0.1376376367 	2.126798772 	1.240333574 	-0.0006729065395
0.1381901456 	2.128701213 	1.233066381 	-0.0007810494726
0.1387526518 	2.130692514 	1.225782765 	-0.0008880572871
0.1393253109 	2.132773921 	1.218484555 	-0.0009938478175
0.1399082793 	2.134943784 	1.211172235 	-0.001098325877
0.1405017138 	2.13719911 	1.203845223 	-0.001201389535
0.1411057722 	2.139536299 	1.196502553 	-0.001302935289
0.1417206121 	2.141951637 	1.189143259 	-0.001402860655
0.1423463917 	2.144441577 	1.181766547 	-0.001501065155
0.1429832692 	2.147002856 	1.174371889 	-0.001597450434
0.1436314025 	2.149632541 	1.166959048 	-0.001691919911
0.1442909495 	2.152328007 	1.159528077 	-0.001784378323
0.1449620674 	2.155086907 	1.152079286 	-0.001874731335
0.1456449128 	2.157907116 	1.144613219 	-0.001962885312
0.1463396412 	2.16078668 	1.137130614 	-0.001921116345
0.1470464072 	2.163723773 	1.129632375 	-0.001775238332
0.1477653637 	2.166716649 	1.122119542 	-0.001631536463
0.1484966621 	2.169763614 	1.114593268 	-0.001490121966
0.1492404515 	2.172862989 	1.107054804 	-0.001351105651
0.1499968789 	2.176013107 	1.099505467 	-0.00121459762
0.1507660886 	2.179212294 	1.091946642 	-0.00108070704
0.1515482218 	2.182458808 	1.084379875 	-0.0009495423047
0.1523434163 	2.185752083 	1.076801284 	-0.0008212006066
0.153154247 	2.189109035 	1.069151802 	-0.0006953612148
0.1540028413 	2.192586442 	1.061376105 	-0.0005691115994
0.1548660003 	2.196119074 	1.053544924 	-0.0004459261171
0.1557439519 	2.199693845 	1.045711403 	-0.000325969868
0.1566369267 	2.203309195 	1.037876483 	-0.0002093243763
0.1575451583 	2.206963332 	1.030041311 	-9.606924738e-05
0.1583510363 	2.210186185 	1.023203038 	-6.296879577e-05
0.1584660267 	2.210606291 	1.022189998 	-1.365686853e-05
0.1593827974 	2.213960886 	1.014215953 	-0.0001197788011
0.1603152827 	2.217362333 	1.006231871 	-0.0002229275537
0.1612637283 	2.220808702 	0.9982391127 	-0.0003230215379
0.1622283831 	2.224297909 	0.9902390104 	-0.0004199813155
0.163209499 	2.227827757 	0.9822328832 	-0.0005137294897
0.1642073315 	2.231395993 	0.9742220575 	-0.000604190576
0.165222139 	2.235000374 	0.9662078926 	-0.0006912909257
0.1662541832 	2.23863874 	0.9581918076 	-0.0007749587917
0.1673037291 	2.242309079 	0.9501753049 	-0.0008551246254
0.1683710452 	2.246009561 	0.9421599834 	-0.0009317216769
0.169456403 	2.249738549 	0.9341475375 	-0.001004686936
0.1705600777 	2.253494554 	0.9261397381 	-0.001073962415
0.1716823477 	2.257276143 	0.9181383976 	-0.0009917772873
0.1728234947 	2.261081814 	0.9101453103 	-0.0008751282382
0.1739838043 	2.264909848 	0.9021621597 	-0.0007624114867
0.1751635651 	2.268758123 	0.8941905016 	-0.0006536966775
0.1763630695 	2.272623886 	0.8862319013 	-0.0005490453353
0.1775826133 	2.276511643 	0.8782598686 	-0.0004484737649
0.1788397014 	2.280458344 	0.8702147538 	-0.0003508051154
0.1801389661 	2.28446613 	0.8620952129 	-0.0002560152458
0.1814596313 	2.288484764 	0.8539656421 	-0.0001657492468
0.1828020077 	2.292501973 	0.8458604793 	-8.00634566e-05
0.1841485552 	2.296463099 	0.8378860467 	-7.121870518e-06
0.18416605 	2.296511723 	0.8377776976 	-1.083598452e-06
0.18552498 	2.300260711 	0.8294920906 	-8.227201758e-05
0.1869062846 	2.304014866 	0.8212299652 	-0.0001591476839
0.1883102904 	2.307773094 	0.8129933419 	-0.0002316761795
0.1897373279 	2.311533953 	0.8047851402 	-0.000299830408
0.1911877315 	2.31529612 	0.7966090889 	-0.000363583822
0.1926618398 	2.319346871 	0.7874276774 	-0.0004214323026
0.194917909 	2.324707829 	0.7763152552 	-0.0005036989211
0.1971907412 	2.330251551 	0.7644358773 	-0.0005594896774
0.1994804504 	2.33569112 	0.7528346392 	-0.0004369388809
0.2017871531 	2.341051237 	0.7414207172 	-0.0003260128335
0.2041725415 	2.346407243 	0.7301169875 	-0.0002239781871
0.2065814515 	2.35168263 	0.7189896819 	-0.0001328790572
0.2090075945 	2.356847351 	0.7081144819 	-5.247626086e-05
0.2107981571 	2.360563402 	0.7003202545 	-0.0001998739901
0.2114405296 	2.361850596 	0.6974084828 	-1.982488741e-05
0.2138620629 	2.366623578 	0.6867240928 	-8.8203219e-05
0.2163013646 	2.371306338 	0.6762770612 	-0.0001477048908
0.2187585689 	2.375897143 	0.666060459 	-0.0001988024601
0.2212338133 	2.380394545 	0.6560675061 	-0.0002419572352
0.2237272386 	2.384809488 	0.6462465123 	-0.0002775570382
0.2262844816 	2.3891878 	0.6365315935 	-0.0002304553322
0.2288841363 	2.393503755 	0.6269437068 	-0.0001675017533
0.2315022259 	2.39772115 	0.6175448528 	-0.000112550414
0.2341388985 	2.401833662 	0.6083507031 	-6.515537382e-05
0.2367943064 	2.405841099 	0.5993540424 	-2.485881011e-05
0.2387190331 	2.408661418 	0.5930120716 	-0.000179538153
0.2394596258 	2.409722509 	0.5904806596 	-1.075336991e-05
0.2421211125 	2.413456128 	0.581623109 	-4.511427802e-05
0.2448020967 	2.417107491 	0.5729245209 	-7.348959897e-05
0.2475350655 	2.420705077 	0.5643277338 	-9.651224243e-05
0.2503258165 	2.424248086 	0.5558299227 	-0.0001143965635
0.2531363547 	2.427700891 	0.5474822013 	-0.0001271026059
0.2559668634 	2.431055708 	0.5393089168 	-9.482413287e-05
0.2588175317 	2.434312501 	0.5313037573 	-6.51559852e-05
0.2616885543 	2.43747127 	0.523460876 	-4.068414932e-05
0.264580132 	2.440533457 	0.5157690535 	-2.105658476e-05
0.2675004713 	2.443513001 	0.5081766156 	-5.901648894e-06
0.2689517363 	2.444937335 	0.5045408187 	-0.0002731818906
0.2704904539 	2.446427131 	0.5005593935 	-8.192230047e-06
0.2734881808 	2.449246347 	0.4929684279 	-2.080701909e-05
0.2765073236 	2.451972625 	0.4855316855 	-2.943591679e-05
0.2795481128 	2.454606034 	0.4782432475 	-3.438014918e-05
0.2826107857 	2.457146552 	0.471097989 	-3.592781566e-05
0.2856955875 	2.459597978 	0.4640721261 	-3.169610334e-05
0.2888351016 	2.46197743 	0.4571253883 	-1.883175464e-05
0.2920349116 	2.464284299 	0.4502550381 	-9.389489809e-06
0.2952572244 	2.466498063 	0.4434956674 	-3.241453016e-06
0.2985023113 	2.468615216 	0.4368641634 	-1.248506342e-07
0.3017704529 	2.470636477 	0.4303555216 	2.195224106e-07
0.3023784211 	2.470998011 	0.4291729642 	-8.970665503e-05
0.3050417129 	2.472574138 	0.4238503424 	-1.243303192e-06
0.3083587734 	2.474437706 	0.4173984321 	-4.734900033e-07
0.3117421337 	2.476228301 	0.4110164 	2.680239358e-06
0.3151496471 	2.477929065 	0.4047339557 	8.007237362e-06
0.3185816398 	2.479537375 	0.3985679783 	1.528920768e-05
0.3220384482 	2.481053891 	0.3925138896 	2.031940838e-05
0.3255204201 	2.482481654 	0.3865444701 	1.998326982e-05
0.3290810692 	2.483833782 	0.3806328787 	1.759874805e-05
0.3326809016 	2.485098798 	0.3747926183 	1.335966727e-05
0.3363064639 	2.486271174 	0.369049519 	7.464467029e-06
0.3399581467 	2.487351301 	0.3634053032 	9.335351244e-08
0.3400009082 	2.487363112 	0.363340687 	-4.910349173e-06
0.3436167554 	2.488364881 	0.357756743 	5.800373862e-06
0.3473421082 	2.489298636 	0.3521681887 	1.309614693e-05
0.3511193483 	2.490147846 	0.3466451036 	2.166149128e-05
0.3549242038 	2.490906989 	0.341209274 	3.129585958e-05
0.3587571281 	2.491576356 	0.3358664158 	4.185556031e-05
0.3626185895 	2.492156558 	0.3305962608 	4.589039722e-05
0.3665578315 	2.492653786 	0.3253784104 	3.934542683e-05
0.3705385693 	2.493062041 	0.3202227584 	3.179745744e-05
0.3745486816 	2.493380087 	0.3151479339 	2.340073407e-05
0.3785886962 	2.493608496 	0.3101497329 	1.427715043e-05
0.3826754965 	2.493748283 	0.3052084373 	4.494452215e-06
0.3845023008 	2.493776105 	0.3030617703 	-0.0001618551671
0.386826837 	2.493815263 	0.3002852396 	4.811026877e-06
0.3910032662 	2.49380328 	0.2954056843 	1.379126046e-05
0.3952115833 	2.493702757 	0.2906046975 	2.323344001e-05
0.3994543048 	2.493512442 	0.2858641421 	3.305202086e-05
0.4037823229 	2.493234615 	0.281169968 	4.328440938e-05
0.4081433549 	2.492865963 	0.2765351168 	5.370546389e-05
0.4125380618 	2.492408966 	0.2719719242 	5.753408256e-05
0.4169684189 	2.491861755 	0.2674647628 	4.920328376e-05
0.4214827764 	2.491224957 	0.2630012626 	4.051463986e-05
0.4260321037 	2.490497234 	0.2585923844 	3.165533108e-05
0.4306171419 	2.489680952 	0.2542464287 	2.268896602e-05
0.4352491377 	2.488774059 	0.2499503679 	1.364797059e-05
0.4399539769 	2.487775756 	0.2456976648 	4.544802806e-06
0.4423479416 	2.487228826 	0.243579263 	-0.0001510165718
0.4446905644 	2.486697533 	0.2414840278 	4.015209181e-06
0.4494600003 	2.485539833 	0.2373123227 	1.205728168e-05
0.4542945485 	2.484289423 	0.2331861046 	2.008242484e-05
0.4591850403 	2.482945668 	0.2291064563 	2.801039667e-05
0.4641157131 	2.481510187 	0.2250799096 	3.577282044e-05
0.4690937196 	2.4799809 	0.2211002938 	4.335429055e-05
0.4741454846 	2.478355391 	0.2171612379 	5.075840598e-05
0.4792393223 	2.476635082 	0.2132694121 	5.789024219e-05
0.484376213 	2.474819407 	0.2094240126 	5.573832727e-05
0.4895867639 	2.472904619 	0.2056169665 	4.893820705e-05
0.4948461995 	2.470891295 	0.2018521013 	4.233803138e-05
0.500150834 	2.468779448 	0.1981307451 	3.595982215e-05
0.5055231693 	2.46656519 	0.1944465576 	2.978892359e-05
0.5109512262 	2.464247997 	0.1908007603 	2.387582631e-05
0.5164268225 	2.461827581 	0.1871946217 	1.823904821e-05
0.5219689509 	2.459300086 	0.1836234177 	1.286244524e-05
0.5275693167 	2.456664409 	0.1800875947 	7.783056382e-06
0.5332197666 	2.453919706 	0.1765878473 	3.009978411e-06
0.5370443662 	2.452009366 	0.1742697537 	-7.823337396e-05
0.5389372376 	2.451065367 	0.1731174659 	1.381164499e-06
0.5447098637 	2.448103422 	0.1696753369 	5.292301397e-06
0.5505356794 	2.445025045 	0.1662668767 	8.922418412e-06
0.5564344686 	2.441825439 	0.1628880959 	1.228619615e-05
0.5623900213 	2.438503945 	0.1595402593 	1.535813995e-05
0.5684048535 	2.435058185 	0.1562225222 	1.815327119e-05
0.5744913721 	2.431493117 	0.1529405621 	2.067467343e-05
0.5805680299 	2.427840326 	0.1497219896 	2.28898478e-05
0.5865762445 	2.424132123 	0.1465903137 	2.480305262e-05
0.5925167773 	2.420379654 	0.1435493077 	2.642177552e-05
0.5983839848 	2.416587028 	0.1405956706 	2.7765547e-05
0.6041885817 	2.412757172 	0.1377245502 	2.885896237e-05
0.609924862 	2.408892388 	0.1349334418 	2.9703919e-05
0.6155918012 	2.404995254 	0.1322195148 	3.032465955e-05
0.6211996839 	2.401068671 	0.1295781991 	3.074547132e-05
0.6267405924 	2.397115436 	0.1270077599 	3.097775425e-05
0.632216296 	2.393135459 	0.1245055417 	3.105361417e-05
0.6376339047 	2.389130009 	0.1220675461 	3.09890947e-05
0.6429876209 	2.385103038 	0.119691901 	3.079818333e-05
0.6482792542 	2.381054732 	0.1173759028 	3.051182023e-05
0.6535142602 	2.376984278 	0.1151162865 	3.014018486e-05
0.6586883686 	2.372894162 	0.112911529 	2.968833462e-05
0.6638027592 	2.36878548 	0.1107593046 	2.916994651e-05
0.6688625183 	2.364657871 	0.1086567772 	2.858760891e-05
0.6738640927 	2.360512913 	0.1066025835 	2.794422444e-05
0.6788084956 	2.356351516 	0.1045950907 	2.725200986e-05
0.6836992744 	2.352173489 	0.1026321067 	2.651592381e-05
0.6885349454 	2.347979869 	0.1007122726 	2.573486302e-05
0.6933158242 	2.343771499 	0.09883427448 	2.491762464e-05
0.6980440199 	2.33954831 	0.09699637347 	2.407241876e-05
0.7027200283 	2.335310688 	0.09519723029 	2.319983105e-05
0.7073434376 	2.331059424 	0.0934357997 	2.230675117e-05
0.711915207 	2.32679455 	0.09171068582 	2.14007662e-05
0.7164374468 	2.322515847 	0.09002051448 	2.048370901e-05
0.7209091221 	2.318223914 	0.08836436478 	1.955802549e-05
0.7253309727 	2.313919014 	0.08674121116 	1.862964902e-05
0.7297043654 	2.309600843 	0.08514981603 	1.77028037e-05
0.7340297528 	2.30526945 	0.08358920027 	1.677662014e-05
0.7383071582 	2.300925134 	0.08205855091 	1.585467611e-05
0.7425372445 	2.29656778 	0.08055689306 	1.494099785e-05
0.7467213447 	2.292197049 	0.07908322749 	1.40372193e-05
0.7508593764 	2.287813022 	0.07763678948 	1.31426996e-05
0.7549517763 	2.283415791 	0.07621685939 	1.226047156e-05
0.7589991451 	2.27900507 	0.07482258302 	1.139331012e-05
0.7630026057 	2.274580506 	0.07345313922 	1.054156181e-05
0.7669620699 	2.270142093 	0.07210788639 	9.704845986e-06
0.7708780631 	2.265689781 	0.07078619095 	8.885315009e-06
0.7747511348 	2.261223231 	0.06948733177 	8.084842476e-06
0.7785821642 	2.256742076 	0.06821061904 	7.303527527e-06
0.7823712521 	2.252246187 	0.06695548906 	6.540645066e-06
0.7861188721 	2.24773541 	0.06572139008 	5.79759637e-06
0.7898255312 	2.243209404 	0.06450772206 	5.075596137e-06
0.7934918964 	2.238667786 	0.06331389638 	4.37500972e-06
0.7971182852 	2.234110296 	0.06213940499 	3.694629201e-06
0.8007050767 	2.229536698 	0.06098377248 	3.035174261e-06
0.804252742 	2.224946656 	0.05984649892 	2.397386064e-06
0.807761783 	2.220339753 	0.05872708166 	1.781806704e-06
0.8112327012 	2.215715598 	0.05762505551 	1.187394787e-06
0.8146657788 	2.211073871 	0.05654000936 	6.13958596e-07
0.8180614562 	2.206414202 	0.05547152123 	6.190309884e-08
0.8184468325 	2.205877413 	0.05535073534 	-6.352632025e-06
0.821419617 	2.201738398 	0.05441873092 	4.859927047e-07
0.8247412418 	2.197043975 	0.0533816225 	1.013816149e-06
0.8280267635 	2.192330176 	0.05235987454 	1.52041098e-06
0.83127654 	2.187596532 	0.05135313514 	2.005786704e-06
0.8344909783 	2.182842507 	0.05036103941 	2.469846921e-06
0.8376704786 	2.178067499 	0.04938323429 	2.912561119e-06
0.8408154687 	2.17327087 	0.04841937062 	3.334222397e-06
0.8439262864 	2.168451983 	0.04746912764 	3.735837485e-06
0.8470032886 	2.163610156 	0.04653220368 	4.11754359e-06
0.8500468538 	2.158744636 	0.04560828694 	4.479432153e-06
0.8530573547 	2.153854601 	0.0446970795 	4.821634808e-06
0.8560351715 	2.148939167 	0.04379828519 	5.144402934e-06
0.8589806486 	2.143997407 	0.04291162446 	5.448616406e-06
0.8618941178 	2.139028335 	0.04203683748 	5.734596025e-06
0.8647759328 	2.134030877 	0.04117365833 	6.00252713e-06
0.8676264425 	2.129003867 	0.04032182898 	6.25262021e-06
0.8704459909 	2.123946051 	0.03948109953 	6.48511645e-06
0.8732349262 	2.118856085 	0.03865122268 	6.700542372e-06
0.8759935556 	2.113732543 	0.03783196591 	6.899518301e-06
0.8787222088 	2.10857388 	0.03702309716 	7.082198418e-06
0.8814212137 	2.103378429 	0.03622437032 	7.248567507e-06
0.8840908936 	2.098144409 	0.03543553896 	7.398406993e-06
0.8867315682 	2.092869954 	0.0346563531 	7.531345581e-06
0.8893435546 	2.087553133 	0.03388655164 	7.647049634e-06
0.8919271484 	2.082191961 	0.03312587274 	7.745158789e-06
0.8944826583 	2.076784305 	0.0323740833 	7.826026509e-06
0.8970103891 	2.071327937 	0.0316308796 	7.889072721e-06
0.8995106423 	2.065820392 	0.03089601271 	7.934514914e-06
0.9019837154 	2.060258724 	0.0301694059 	7.966548902e-06
0.9044299033 	2.054639792 	0.02945082043 	7.987875206e-06
0.9068494884 	2.048960036 	0.02874013648 	7.999262209e-06
0.9092427571 	2.043215233 	0.02803740088 	8.004482014e-06
0.9116099941 	2.037400733 	0.02734248603 	8.005260065e-06
0.9139514807 	2.03151146 	0.02665536558 	7.998288906e-06
0.9162674951 	2.025542025 	0.0259759901 	7.983023869e-06
0.9185583122 	2.019486768 	0.02530422386 	7.959470241e-06
0.9208242029 	2.013339628 	0.02463996529 	7.926160327e-06
0.9230654317 	2.007094084 	0.02398307328 	7.883097469e-06
0.9252822647 	2.000743095 	0.02333339819 	7.830246544e-06
0.9274749651 	1.99427893 	0.02269077706 	7.767736967e-06
0.9296437933 	1.987692852 	0.02205504164 	7.695705313e-06
0.9317890067 	1.98097465 	0.02142601968 	7.614287813e-06
0.9339108598 	1.974112098 	0.02080353718 	7.442680505e-06
0.9360096042 	1.967090475 	0.02018741702 	7.068168141e-06
0.9380854865 	1.959892269 	0.01957749093 	6.705449977e-06
0.940138753 	1.95249715 	0.01897361397 	6.354086587e-06
0.9421696475 	1.945533953 	0.01842577671 	6.03241637e-06
0.9434927291 	1.939746134 	0.01798573836 	5.796837572e-06
0.9447915204 	1.934545074 	0.01760227662 	5.586556368e-06
0.9460664655 	1.929271038 	0.01722517859 	5.3829031e-06
0.9473180001 	1.923914461 	0.01685424273 	5.185651699e-06
0.9485465523 	1.918467321 	0.0164893239 	4.994593069e-06
0.9497525422 	1.912922587 	0.01613031693 	4.809528347e-06
0.9509363824 	1.907273573 	0.01577713172 	4.630272814e-06
0.9520984777 	1.901513392 	0.0154296785 	4.45664094e-06
0.9532392257 	1.895634652 	0.01508785986 	4.288454699e-06
0.9543590169 	1.889629393 	0.01475156704 	4.125541978e-06
0.9554582347 	1.883489202 	0.01442068139 	3.967729718e-06
0.9565372556 	1.877205449 	0.01409507795 	3.814845635e-06
0.9575964493 	1.870769531 	0.01377462862 	3.666719949e-06
0.9586361788 	1.864173096 	0.01345920476 	3.52318665e-06
0.9596568004 	1.857408198 	0.01314867858 	3.38408423e-06
0.9606586639 	1.850467387 	0.01284292351 	3.249256196e-06
0.9616421128 	1.843343733 	0.01254181391 	3.118551645e-06
0.9626074845 	1.836030814 	0.01224522444 	2.991826029e-06
0.9635551099 	1.828522669 	0.01195302958 	2.868941957e-06
0.9644853143 	1.820813743 	0.01166510328 	2.749769819e-06
0.9653984168 	1.812898823 	0.01138131904 	2.634188016e-06
0.9662947307 	1.804772975 	0.01110155029 	2.522082763e-06
0.9671745637 	1.796431481 	0.01082567052 	2.413347035e-06
0.9680382177 	1.787869774 	0.01055355437 	2.307877704e-06
0.9688859894 	1.779083376 	0.01028507835 	2.205579692e-06
0.9697181699 	1.770067831 	0.01002012085 	2.106363655e-06
0.970535045 	1.760818639 	0.009758562898 	2.010144863e-06
0.9713368954 	1.751331195 	0.0095002886 	1.916843048e-06
0.9721239966 	1.741600719 	0.009245185455 	1.826382302e-06
0.9728966191 	1.731622186 	0.008993144657 	1.738690985e-06
0.9736550286 	1.721390258 	0.008744061403 	1.653701576e-06
0.9743994857 	1.710899208 	0.008497835192 	1.571350451e-06
0.9751302464 	1.700142836 	0.008254370131 	1.491577601e-06
0.975847562 	1.689114385 	0.008013575246 	1.414326362e-06
0.9765516793 	1.677806445 	0.007775364781 	1.339543183e-06
0.9772428404 	1.666210852 	0.007539658509 	1.267177466e-06
0.9779212832 	1.65431857 	0.007306382042 	1.197181499e-06
0.978587241 	1.642119579 	0.007075467144 	1.129510449e-06
0.9792409432 	1.629602731 	0.006846852072 	1.064122396e-06
0.9798826146 	1.616755616 	0.006620481927 	1.000978359e-06
0.9805124762 	1.603564399 	0.006396309045 	9.400422762e-07
0.9811307448 	1.590013648 	0.006174293407 	8.812809118e-07
0.9817376333 	1.576086153 	0.005954403077 	8.246636912e-07
0.9823333508 	1.561762722 	0.005736614694 	7.701624837e-07
0.9829181023 	1.547021965 	0.00552091385 	7.177513409e-07
0.9834920893 	1.531840055 	0.005307295557 	6.674061503e-07
0.9840555095 	1.516190481 	0.005095764899 	6.191047177e-07
0.9846085571 	1.500043776 	0.004886337346 	5.728268605e-07
0.9851514226 	1.483367225 	0.004679039147 	5.285541504e-07
0.9856842931 	1.466124552 	0.004473907901 	4.862698119e-07
0.9862073523 	1.448275593 	0.004270992919 	4.459585734e-07
0.9867207804 	1.429775929 	0.004070355797 	4.076079914e-07
0.9872247546 	1.410576495 	0.00387207338 	3.712064045e-07
0.9877194484 	1.390623142 	0.003676234006 	3.367342166e-07
0.9882050326 	1.369856096 	0.003482931243 	3.041767815e-07
0.9886816745 	1.348209356 	0.003292281622 	2.735401234e-07
0.9891495385 	1.325610288 	0.003104433553 	2.448188964e-07
0.9896087861 	1.301979517 	0.00291948635 	2.179836574e-07
0.9900595756 	1.277230865 	0.002737301532 	1.929962771e-07
0.9905020626 	1.253538572 	0.002573523351 	1.716707514e-07
0.9907868528 	1.233482493 	0.002442967512 	1.557826613e-07
0.9910716487 	1.21499618 	0.002328454569 	1.423959487e-07
0.9913564502 	1.195627395 	0.002214003854 	1.296393767e-07
0.9916412574 	1.175309301 	0.002099864198 	1.175370281e-07
0.9919260701 	1.153969633 	0.001986170623 	1.061058931e-07
0.9922108886 	1.131529977 	0.001873038886 	9.536000237e-08
0.9924957126 	1.107904184 	0.001760592587 	8.528578512e-08
0.9927805423 	1.082992115 	0.001648961232 	7.58317023e-08
0.9930653777 	1.056677144 	0.001538292153 	6.699745666e-08
0.9933502186 	1.028837289 	0.001428776164 	5.883996073e-08
0.9936350652 	0.9993515544 	0.001320625026 	5.138499398e-08
0.9939199175 	0.9680940563 	0.001214048286 	4.463136589e-08
0.9942047754 	0.9349300916 	0.001109276997 	3.857238384e-08
0.9944896389 	0.8997168053 	0.001006568021 	3.319194335e-08
0.994774508 	0.8623057398 	0.0009062060972 	2.84664429e-08
0.9950593828 	0.8225468023 	0.0008083947107 	2.434008125e-08
0.9953442632 	0.7802937403 	0.0007132121936 	2.077653214e-08
0.9956291493 	0.73541118 	0.0006213788277 	1.791346963e-08
0.995914041 	0.6877854388 	0.0005442949647 	1.784272205e-08
0.9961989383 	0.6373364054 	0.0004619700937 	1.106022071e-08
0.9964838413 	0.583987428 	0.0003545929754 	5.604748923e-09
0.9967687499 	0.5276506373 	0.0002743457445 	1.539102243e-08
0.9970536641 	0.4683599017 	0.0002323004017 	1.558441205e-08
0.997338584 	0.4063876307 	0.0001889457668 	6.266851796e-09
0.9976235095 	0.342180527 	0.0001398553237 	2.976546025e-09
0.9979084407 	0.2762139283 	9.214318276e-05 	1.785682477e-09
0.9981933774 	0.2088594504 	5.148206689e-05 	1.625249276e-09
0.9984783199 	0.1403281437 	2.261454426e-05 	1.28581076e-09
0.9987632679 	0.07070188041 	1.740870451e-06 	-5.795874203e-10
0.9990482216 	0.0295699651 	-6.624023115e-06 	-1.774415722e-09
