0.4709558481 	0.02355292631 	1.899904515e-08 	-1.315371391e-13
0.4709558481 	0.02355292631 	1.899904515e-08 	-1.315371391e-13
0.4711314108 	0.06476439307 	4.500835267e-08 	-6.845830659e-13
0.4713069734 	0.1294577537 	-1.2923784e-07 	-1.251868044e-12
0.471482536 	0.1940677577 	-1.0819805e-06 	2.600631081e-13
0.4716580986 	0.2585458134 	-3.289966461e-06 	4.336827673e-12
0.4718336613 	0.3227735371 	-6.146843694e-06 	5.705567523e-12
0.4720092239 	0.3865281719 	-7.519721041e-06 	-3.644641215e-12
0.4721847865 	0.4494742257 	-5.426397329e-06 	-2.492840758e-11
0.4723603491 	0.5112010622 	-2.894003772e-07 	-5.353396992e-11
0.4725359118 	0.571299123 	8.242223599e-06 	-2.041341442e-10
0.4727114744 	0.6294384004 	2.981835573e-05 	-1.226355656e-10
0.472887037 	0.685423188 	2.811279152e-05 	1.212225346e-10
0.4730625996 	0.7392378507 	-3.913192256e-06 	-5.349963602e-11
0.4732381623 	0.7909698276 	-4.348162058e-06 	-1.842578138e-10
0.4734137249 	0.8406681203 	9.802874278e-06 	-1.181283834e-10
0.4735892875 	0.8883544778 	1.02379968e-05 	-1.337392492e-10
0.4737648501 	0.9340737708 	1.067705657e-05 	-1.547730855e-10
0.4739404128 	0.9778885784 	1.164284661e-05 	-1.757928699e-10
0.4741159754 	1.019872217 	1.282513328e-05 	-1.974685001e-10
0.474291538 	1.060104868 	1.408224155e-05 	-2.206572219e-10
0.4744671006 	1.09867012 	1.541450123e-05 	-2.453525337e-10
0.4746426632 	1.135652151 	1.681798988e-05 	-2.715379422e-10
0.4748182259 	1.171133478 	1.828435166e-05 	-2.992304102e-10
0.4749937885 	1.205193145 	1.980623804e-05 	-3.284453571e-10
0.4751693511 	1.237905413 	2.137724157e-05 	-3.591685304e-10
0.4753449137 	1.2693397 	2.299088246e-05 	-3.913768697e-10
0.4755204764 	1.299565231 	2.464290966e-05 	-4.25208581e-10
0.475696039 	1.328656907 	2.632890776e-05 	-4.607331347e-10
0.4758716016 	1.356689214 	2.80899696e-05 	-4.978309409e-10
0.4760471642 	1.383726057 	3.017845309e-05 	-5.368561951e-10
0.4762227269 	1.41337223 	3.261710833e-05 	-5.833945615e-10
0.4764955107 	1.448814458 	3.487953033e-05 	-6.434772544e-10
0.4767734216 	1.486330716 	3.739256442e-05 	-7.139956983e-10
0.4770565557 	1.522627795 	4.057125193e-05 	-7.907224919e-10
0.4773450114 	1.557772867 	4.396669196e-05 	-8.733545544e-10
0.4776388886 	1.591829804 	4.749650428e-05 	-9.620068755e-10
0.4779382892 	1.624859711 	5.118211992e-05 	-1.056956715e-09
0.4782433171 	1.656921095 	5.502685165e-05 	-1.158333403e-09
0.4785540779 	1.688069866 	5.903265907e-05 	-1.266577358e-09
0.4788706795 	1.718358944 	6.322998829e-05 	-1.382609651e-09
0.4791932316 	1.747837481 	6.764017369e-05 	-1.506675616e-09
0.4795218461 	1.776550465 	7.224992773e-05 	-1.63872923e-09
0.4798566368 	1.804539114 	7.705547194e-05 	-1.77939419e-09
0.48019772 	1.831841539 	8.207353921e-05 	-1.929355486e-09
0.4805452138 	1.858493186 	8.731837783e-05 	-2.089146026e-09
0.4808992388 	1.884527127 	9.280037603e-05 	-2.259380671e-09
0.4812599177 	1.909974288 	9.853083731e-05 	-2.440725419e-09
0.4816273755 	1.934863647 	0.0001045219845 	-2.633892539e-09
0.4820017397 	1.959222426 	0.0001107868076 	-2.839640774e-09
0.48238314 	1.983076255 	0.0001173390604 	-3.058776376e-09
0.4827717088 	2.006449328 	0.0001241932986 	-3.292153568e-09
0.4831675807 	2.029364546 	0.0001313649124 	-3.540674809e-09
0.4835708931 	2.051843645 	0.000138870159 	-3.805290825e-09
0.4839817856 	2.073907313 	0.0001467261947 	-4.08700025e-09
0.4844004009 	2.095575294 	0.0001549511094 	-4.386848945e-09
0.4848268841 	2.116866482 	0.0001635639593 	-4.70592884e-09
0.485261383 	2.137799003 	0.0001725848001 	-5.045376176e-09
0.4857040484 	2.15839029 	0.0001820347185 	-5.406368988e-09
0.4861550336 	2.178657148 	0.0001919358624 	-5.790123841e-09
0.4866144951 	2.198615811 	0.0002023114678 	-6.197891674e-09
0.4870825921 	2.218281988 	0.0002131858829 	-6.630952769e-09
0.487559487 	2.237670912 	0.0002245845883 	-7.090610866e-09
0.4880453452 	2.256797366 	0.0002365342112 	-7.57818677e-09
0.4885403351 	2.27567572 	0.0002490625344 	-8.095011794e-09
0.4890446283 	2.294319952 	0.0002621984982 	-8.642421615e-09
0.4895583997 	2.312743662 	0.0002759721936 	-9.221750978e-09
0.4900818274 	2.330960091 	0.0002904148474 	-9.834329452e-09
0.4906150929 	2.348982124 	0.000305558796 	-1.048147763e-08
0.4911583811 	2.366822294 	0.0003214374487 	-1.116450228e-08
0.4917118805 	2.38449278 	0.0003380852371 	-1.188468779e-08
0.4922757829 	2.402005402 	0.00035553755 	-1.264328018e-08
0.4928502838 	2.419371611 	0.000373830651 	-1.34414603e-08
0.4934355824 	2.43660247 	0.0003930015765 	-1.428030405e-08
0.4940318817 	2.45370864 	0.0004130880118 	-1.51607305e-08
0.4946393885 	2.470700356 	0.0004341281425 	-1.608344303e-08
0.4952583133 	2.4875874 	0.000456160482 	-1.704887309e-08
0.4958888709 	2.50437907 	0.0004792236732 	-1.805713867e-08
0.4965312797 	2.521084151 	0.0005033562676 	-1.910802902e-08
0.4971857627 	2.537710873 	0.0005285964842 	-2.020102175e-08
0.4978525466 	2.554266875 	0.000554981952 	-2.13353291e-08
0.4985318627 	2.570759164 	0.0005825494386 	-2.250995958e-08
0.4992239466 	2.587194076 	0.0006113345685 	-2.372377267e-08
0.4999290382 	2.603577232 	0.000641371532 	-2.497550213e-08
0.5006473819 	2.619913509 	0.0006726927936 	-2.626372945e-08
0.501379227 	2.636207016 	0.0007053288317 	-2.758680468e-08
0.502124827 	2.652461095 	0.0007393078644 	-2.894273067e-08
0.5028844406 	2.66867836 	0.0007746550213 	-3.03290419e-08
0.5036583311 	2.684860813 	0.0008113911455 	-3.174273034e-08
0.5044467669 	2.701010062 	0.0008495423617 	-3.318045826e-08
0.5052500214 	2.717127677 	0.0008891748474 	-3.46395352e-08
0.506068373 	2.735264809 	0.000935592932 	-3.630586514e-08
0.507324668 	2.757286728 	0.0009944469812 	-3.835728015e-08
0.5085949819 	2.780894812 	0.001060763756 	-4.059139268e-08
0.5098794711 	2.804042852 	0.001129218847 	-4.281843905e-08
0.5111782938 	2.826736588 	0.001199519038 	-4.495456911e-08
0.5124916099 	2.848975217 	0.001271425339 	-4.70080243e-08
0.5138195812 	2.87074094 	0.001344948673 	-4.91160238e-08
0.5151623712 	2.8919839 	0.001419880127 	-5.104515383e-08
0.5165201452 	2.912614232 	0.001495454435 	-5.251977228e-08
0.5178930705 	2.932508145 	0.001570823294 	-5.360219194e-08
0.5192813161 	2.951520294 	0.001645187173 	-5.425385418e-08
0.520685053 	2.969495129 	0.001717607418 	-5.43320577e-08
0.522104454 	2.986278664 	0.001787011911 	-5.375554243e-08
0.523539694 	3.00173628 	0.001852100374 	-5.241978212e-08
0.5249909497 	3.015777818 	0.001918880012 	-5.648970612e-08
0.5264583998 	3.028397781 	0.001977598178 	-4.936599243e-08
0.527942225 	3.039742256 	0.002016306259 	-3.920526587e-08
0.5294426081 	3.05007315 	0.002059644532 	-5.078353686e-08
0.5309597337 	3.059597467 	0.002112336496 	-5.20331981e-08
0.5324937889 	3.068399469 	0.00215589621 	-4.457462626e-08
0.5340449624 	3.07650895 	0.002193183971 	-4.524186674e-08
0.5356134452 	3.083947884 	0.002228981079 	-4.451207198e-08
0.5371994306 	3.090737169 	0.002261975549 	-4.359400055e-08
0.5388031139 	3.096899972 	0.002292009214 	-4.256141737e-08
0.5404246925 	3.102463005 	0.002319027527 	-4.142755774e-08
0.5420643661 	3.107455757 	0.002343042562 	-4.024158284e-08
0.5437223366 	3.111909404 	0.002364083992 	-3.899193862e-08
0.5453988083 	3.115855675 	0.002382226673 	-3.778321234e-08
0.5470939875 	3.119325864 	0.002397650974 	-3.662671803e-08
0.5488080831 	3.122351507 	0.002410351787 	-3.531228266e-08
0.5505413061 	3.124968614 	0.00242029231 	-3.406418916e-08
0.5522938699 	3.127219932 	0.002427854336 	-3.310052598e-08
0.5540659904 	3.129149708 	0.002433400671 	-3.221689434e-08
0.5558578859 	3.130797542 	0.002437044488 	-3.138474142e-08
0.5576697768 	3.132197032 	0.002438951838 	-3.066524148e-08
0.5595018865 	3.133376621 	0.00243931215 	-3.002897072e-08
0.5613544406 	3.134360432 	0.002438265338 	-2.946195659e-08
0.563227667 	3.135168986 	0.002435930883 	-2.895535842e-08
0.5651217966 	3.135819806 	0.002432411761 	-2.850145298e-08
0.5670370626 	3.136327907 	0.002427796899 	-2.809332813e-08
0.5689737009 	3.136706205 	0.002422163141 	-2.772497085e-08
0.5709319499 	3.136965848 	0.002415577174 	-2.739135456e-08
0.5729120508 	3.137116493 	0.002408095814 	-2.708674467e-08
0.5749142474 	3.13716653 	0.00239977142 	-2.681030607e-08
0.5769387863 	3.137123299 	0.002390646288 	-2.655851931e-08
0.5789859169 	3.136993188 	0.002380757635 	-2.632642896e-08
0.5810558911 	3.136781771 	0.002370140559 	-2.61127984e-08
0.583148964 	3.13649397 	0.002358822522 	-2.591445204e-08
0.5852653933 	3.136134119 	0.002346829088 	-2.572979806e-08
0.5874054395 	3.135706039 	0.002334182127 	-2.555718112e-08
0.5895693664 	3.135213103 	0.002320900615 	-2.539512327e-08
0.5917574402 	3.134658293 	0.002307000943 	-2.52422843e-08
0.5939699306 	3.134044248 	0.002292497189 	-2.509744392e-08
0.5962071099 	3.133373301 	0.002277401355 	-2.495948229e-08
0.5984692536 	3.132647515 	0.002261723557 	-2.482736628e-08
0.6007566404 	3.131868712 	0.002245472199 	-2.470013759e-08
0.6030695519 	3.131038497 	0.002228654118 	-2.457690248e-08
0.6054082729 	3.130158281 	0.002211274706 	-2.445682251e-08
0.6077730914 	3.129229302 	0.002193338011 	-2.433910648e-08
0.6101642987 	3.128252633 	0.002174846835 	-2.422300331e-08
0.6125821893 	3.127229207 	0.002155802804 	-2.410779577e-08
0.6150270608 	3.126159818 	0.002136206437 	-2.399279516e-08
0.6174992144 	3.125045141 	0.002116057204 	-2.387733665e-08
0.6199989545 	3.123885735 	0.002095353574 	-2.376077537e-08
0.622526589 	3.122682054 	0.002074093058 	-2.364248308e-08
0.625082429 	3.121434454 	0.002052272251 	-2.352184539e-08
0.6276667894 	3.120143199 	0.002029886862 	-2.339825951e-08
0.6302799884 	3.118808464 	0.002006931747 	-2.32711323e-08
0.6329223478 	3.117430346 	0.001983400941 	-2.31398789e-08
0.6355941931 	3.116008863 	0.001959287683 	-2.300392151e-08
0.6382958531 	3.114543963 	0.001934584444 	-2.286268863e-08
0.6410276607 	3.113035523 	0.001909282955 	-2.271561454e-08
0.6437899523 	3.111483356 	0.001883374233 	-2.256213906e-08
0.646583068 	3.109887212 	0.001856848612 	-2.240170758e-08
0.6494073518 	3.108246784 	0.001829695774 	-2.223377134e-08
0.6522631514 	3.106561709 	0.00180190478 	-2.205778795e-08
0.6551508186 	3.10483157 	0.001773464108 	-2.187322217e-08
0.658070709 	3.1030559 	0.001744361688 	-2.16795469e-08
0.6610231822 	3.101234185 	0.001714584951 	-2.147624437e-08
0.6640086017 	3.099365867 	0.001684120871 	-2.126280761e-08
0.6670273351 	3.097450341 	0.00165295602 	-2.103874212e-08
0.6700797543 	3.095486966 	0.001621076624 	-2.080356761e-08
0.6731662352 	3.09347506 	0.001588468628 	-2.055682011e-08
0.6762871577 	3.091413904 	0.001555117765 	-2.0298054e-08
0.6794429063 	3.089302747 	0.00152100963 	-2.002684436e-08
0.6826338695 	3.087140803 	0.001486129767 	-1.97427891e-08
0.6858604404 	3.084927255 	0.00145046376 	-1.944551127e-08
0.6891230163 	3.082661254 	0.001413997329 	-1.913466111e-08
0.6924219988 	3.080341924 	0.00137671644 	-1.880991793e-08
0.6957577944 	3.077968356 	0.001338607417 	-1.847099159e-08
0.6991308138 	3.075539614 	0.001299657072 	-1.811762349e-08
0.7025414724 	3.073054729 	0.001259852829 	-1.774958694e-08
0.7059901901 	3.070512699 	0.001219182871 	-1.736668669e-08
0.7094773917 	3.067912487 	0.001177636283 	-1.696875748e-08
0.7130035066 	3.065253015 	0.001135203213 	-1.655566137e-08
0.7165689691 	3.062533159 	0.001091875029 	-1.612728381e-08
0.7201742182 	3.059751744 	0.0010476445 	-1.568352805e-08
0.7238196978 	3.056907533 	0.001002505991 	-1.522430726e-08
0.727505857 	3.053999216 	0.0009564557142 	-1.474952478e-08
0.7312331497 	3.0510254 	0.0009094913433 	-1.425907163e-08
0.7350020349 	3.047992718 	0.0008617400323 	-1.375420428e-08
0.7387709215 	3.044926158 	0.0008136199316 	-1.323931099e-08
0.7424982157 	3.041851748 	0.0007655630223 	-1.271903033e-08
0.7461843763 	3.038778078 	0.0007177245175 	-1.21950744e-08
0.7498298574 	3.035705539 	0.0006701315125 	-1.166771767e-08
0.7534351078 	3.032634416 	0.0006228109656 	-1.113715721e-08
0.7570005716 	3.029564888 	0.00057578932 	-1.060350946e-08
0.7605266877 	3.026497032 	0.0005290923927 	-1.006681082e-08
0.7640138905 	3.023430818 	0.0004827453326 	-9.527024604e-09
0.7674626093 	3.020366118 	0.0004367725939 	-8.984048496e-09
0.770873269 	3.017302703 	0.000391197921 	-8.43772311e-09
0.7742462894 	3.014240248 	0.0003460443413 	-7.887841329e-09
0.777582086 	3.011178335 	0.0003013341656 	-7.334158002e-09
0.7808810695 	3.008116452 	0.0002570889958 	-6.776399605e-09
0.7841436462 	3.005054001 	0.0002133297389 	-6.214273518e-09
0.787370218 	3.001990296 	0.000170076625 	-5.647476724e-09
0.7905611821 	2.99892457 	0.0001273492312 	-5.075703769e-09
0.7937169314 	2.995855974 	8.51665098e-05 	-4.498653608e-09
0.7968378547 	2.992783582 	4.354680733e-05 	-3.916037211e-09
0.7999243362 	2.989706392 	2.507893371e-06 	-3.327582186e-09
0.8029767561 	2.986623328 	-3.793298225e-05 	-2.733034645e-09
0.8059954902 	2.983533243 	-7.775907613e-05 	-2.132167653e-09
0.8089809102 	2.98043492 	-0.0001169541428 	-1.524785197e-09
0.8119333839 	2.977327074 	-0.0001555023818 	-9.107206345e-10
0.8148532749 	2.974208352 	-0.0001933884079 	-2.898413326e-10
0.8177409426 	2.971077334 	-0.0002305972344 	3.379480026e-10
0.8205967427 	2.967932538 	-0.000267114249 	9.727043389e-10
0.8234210268 	2.964772414 	-0.000302925194 	1.614444146e-09
0.8262141429 	2.961595349 	-0.0003380161497 	2.263141333e-09
0.8289764348 	2.958399668 	-0.0003723735225 	2.918725003e-09
0.8317082427 	2.955183631 	-0.0004059840374 	3.581076865e-09
0.8344099031 	2.951945435 	-0.000438834735 	4.250028131e-09
0.8370817486 	2.948683216 	-0.000470912975 	4.925355699e-09
0.8397241082 	2.945395047 	-0.0005022064451 	5.606777472e-09
0.8423373074 	2.942078939 	-0.0005327031775 	6.293946574e-09
0.844921668 	2.938732841 	-0.0005623915737 	6.986444195e-09
0.8474775082 	2.935354646 	-0.0005912604378 	7.683770748e-09
0.8500051427 	2.931942185 	-0.0006192990203 	8.385334971e-09
0.8525048829 	2.928493233 	-0.0006464970742 	9.090440492e-09
0.8549770366 	2.925005514 	-0.0006728449248 	9.798269264e-09
0.8574219081 	2.9214767 	-0.0006983335554 	1.050786109e-08
0.8598397987 	2.917904418 	-0.0007229547119 	1.121808835e-08
0.862231006 	2.914286256 	-0.0007467010303 	1.192762466e-08
0.8645958245 	2.910619772 	-0.0007695661896 	1.263490622e-08
0.8669345455 	2.906902501 	-0.000791545098 	1.333808431e-08
0.8692474569 	2.903131971 	-0.0008126341161 	1.403496826e-08
0.8715348435 	2.899305716 	-0.0008328313281 	1.47229608e-08
0.8737969871 	2.895421296 	-0.0008521368689 	1.539899367e-08
0.8760341663 	2.891476325 	-0.0008705533182 	1.605948692e-08
0.8782466565 	2.887468493 	-0.0008880861737 	1.670038098e-08
0.8804347301 	2.88339561 	-0.0009047444277 	1.731727627e-08
0.8825986568 	2.879255648 	-0.0009205412246 	1.790586351e-08
0.8847387028 	2.875046792 	-0.0009354947548 	1.846218439e-08
0.8868551318 	2.870767502 	-0.000949631218 	1.897899244e-08
0.8889482045 	2.866416575 	-0.0009629831507 	1.945395125e-08
0.8910181784 	2.861993182 	-0.0009756043702 	1.98482612e-08
0.8930653087 	2.857496697 	-0.0009876570928 	1.994907398e-08
0.8950898473 	2.852926452 	-0.0009986216463 	2.100627519e-08
0.8970920436 	2.848280836 	-0.001008829289 	2.091724138e-08
0.8990721441 	2.843552045 	-0.001019218638 	1.930475521e-08
0.9010303927 	2.838720906 	-0.001028532422 	2.054777625e-08
0.9029670306 	2.833762215 	-0.001036102275 	2.197575188e-08
0.9048822962 	2.828651637 	-0.001042424024 	2.229627993e-08
0.9067764254 	2.823365658 	-0.001047239131 	2.346311622e-08
0.9086496514 	2.817880639 	-0.001050267086 	2.476807553e-08
0.910502205 	2.81217278 	-0.001051364372 	2.614685501e-08
0.9123343142 	2.806218277 	-0.001050406245 	2.757464382e-08
0.9141462048 	2.799993599 	-0.001047282466 	2.903113369e-08
0.9159380997 	2.793475892 	-0.001041903637 	3.04954429e-08
0.9177102197 	2.786643457 	-0.001034206243 	3.194437492e-08
0.9194627831 	2.779476228 	-0.001024153563 	3.335466366e-08
0.9211960055 	2.771956216 	-0.001011738601 	3.4701624e-08
0.9229101006 	2.764067869 	-0.000996985295 	3.59609107e-08
0.9246052793 	2.755798327 	-0.0009799485969 	3.710972179e-08
0.9262817504 	2.74713755 	-0.0009607132262 	3.81276514e-08
0.9279397204 	2.738078342 	-0.000939391354 	3.899718324e-08
0.9295793934 	2.728616248 	-0.0009161196277 	3.970401236e-08
0.9312009714 	2.718749371 	-0.00089105566 	4.023741461e-08
0.9328046541 	2.708478086 	-0.0008643738985 	4.059062065e-08
0.9343906389 	2.697804677 	-0.0008362609607 	4.076097457e-08
0.9359591211 	2.686732935 	-0.000806910859 	4.074967011e-08
0.937510294 	2.675267751 	-0.0007765207232 	4.056096098e-08
0.9390443485 	2.663414739 	-0.0007452873506 	4.020150565e-08
0.9405614735 	2.65117991 	-0.0007134044823 	3.96804052e-08
0.942061856 	2.638569391 	-0.0006810605768 	3.900901096e-08
0.9435456805 	2.625589201 	-0.0006484370308 	3.820005206e-08
0.9450131299 	2.612245055 	-0.0006157068946 	3.726668615e-08
0.946464385 	2.598542198 	-0.0005830340025 	3.622182107e-08
0.9478996243 	2.584485265 	-0.0005505724001 	3.507783216e-08
0.9493190246 	2.570078146 	-0.0005184659785 	3.384666143e-08
0.9507227608 	2.555323868 	-0.0004868482413 	3.254015837e-08
0.9521110058 	2.540224451 	-0.0004558421524 	3.117043291e-08
0.9534839303 	2.524780774 	-0.0004255600353 	2.975000912e-08
0.9548417036 	2.508992401 	-0.0003961035208 	2.829168679e-08
0.9561844929 	2.492857395 	-0.0003675635664 	2.680816963e-08
0.9575124634 	2.476372084 	-0.0003400205051 	2.531161995e-08
0.9588257788 	2.459530789 	-0.0003135436839 	2.381329373e-08
0.9601246008 	2.442325496 	-0.0002881908816 	2.232334163e-08
0.9614090893 	2.424745471 	-0.0002640170752 	2.085101028e-08
0.9626794024 	2.406776776 	-0.0002410988015 	1.940563169e-08
0.9639356968 	2.389973255 	-0.000221198633 	1.811174021e-08
0.9647540487 	2.376095286 	-0.0002058054606 	1.708658543e-08
0.9655573034 	2.363724012 	-0.000192887265 	1.62080467e-08
0.9663457395 	2.35128704 	-0.0001806655131 	1.53601581e-08
0.9671196303 	2.338777812 	-0.0001690975593 	1.454325721e-08
0.9678792442 	2.32619034 	-0.0001581577445 	1.375785514e-08
0.9686248445 	2.313518794 	-0.000147823619 	1.300439702e-08
0.9693566897 	2.300757249 	-0.0001380717483 	1.228314825e-08
0.9700750337 	2.287899547 	-0.0001288783081 	1.159418039e-08
0.9707801255 	2.274939232 	-0.0001202195229 	1.093734829e-08
0.9714722095 	2.26186953 	-0.0001120718068 	1.031227458e-08
0.9721515258 	2.248683354 	-0.000104411861 	9.718358307e-09
0.9728183099 	2.235373314 	-9.721676898e-05 	9.154807197e-09
0.9734727929 	2.221931743 	-9.046407648e-05 	8.620684256e-09
0.9741152019 	2.208350709 	-8.413185827e-05 	8.114957146e-09
0.9747457596 	2.194622037 	-7.819877165e-05 	7.636541173e-09
0.9753646845 	2.180737321 	-7.264409914e-05 	7.184331071e-09
0.9759721914 	2.166687933 	-6.744778209e-05 	6.757220573e-09
0.9765684907 	2.152465035 	-6.25904465e-05 	6.354111871e-09
0.9771537895 	2.138059577 	-5.805342218e-05 	5.973918139e-09
0.9777282904 	2.123462308 	-5.381875601e-05 	5.615562773e-09
0.9782921928 	2.108663766 	-4.986921985e-05 	5.27797807e-09
0.9788456922 	2.093654285 	-4.618831312e-05 	4.960105459e-09
0.9793889805 	2.078423982 	-4.276026048e-05 	4.660897835e-09
0.979922246 	2.062962754 	-3.957000492e-05 	4.379323858e-09
0.9804456737 	2.047260268 	-3.660319641e-05 	4.114373307e-09
0.9809594451 	2.031305948 	-3.384617698e-05 	3.865062812e-09
0.9814637383 	2.01508896 	-3.128596249e-05 	3.630441096e-09
0.9819587281 	1.998598194 	-2.891022195e-05 	3.409593339e-09
0.9824445862 	1.981822244 	-2.670725485e-05 	3.201644321e-09
0.9829214811 	1.964749381 	-2.466596715e-05 	3.005760704e-09
0.9833895781 	1.947367528 	-2.277584637e-05 	2.821152523e-09
0.9838490396 	1.929664225 	-2.102693623e-05 	2.647074066e-09
0.9843000247 	1.911626592 	-1.940981109e-05 	2.482824165e-09
0.98474269 	1.893241292 	-1.791555071e-05 	2.327746247e-09
0.9851771888 	1.874494475 	-1.653571535e-05 	2.181228118e-09
0.9856036719 	1.855371736 	-1.526232168e-05 	2.04270146e-09
0.9860222871 	1.835858046 	-1.408781937e-05 	1.911640903e-09
0.9864331796 	1.815937694 	-1.300506895e-05 	1.787562944e-09
0.9868364919 	1.795594208 	-1.200732084e-05 	1.670024648e-09
0.9872323637 	1.774810279 	-1.108819593e-05 	1.558622071e-09
0.9876209323 	1.753567668 	-1.024166783e-05 	1.452988327e-09
0.9880023326 	1.73184711 	-9.462045093e-06 	1.352791542e-09
0.9883766967 	1.709628206 	-8.743949679e-06 	1.257732687e-09
0.9887441544 	1.686889305 	-8.082324035e-06 	1.167543532e-09
0.9891048331 	1.663607385 	-7.472556927e-06 	1.081984692e-09
0.9894588579 	1.639757904 	-6.910523097e-06 	1.000841675e-09
0.9898063516 	1.615314651 	-6.389168767e-06 	9.238948512e-10
0.9901474347 	1.590249537 	-5.898074052e-06 	8.509851535e-10
0.9904822253 	1.564532274 	-5.442157414e-06 	7.820492465e-10
0.9908108397 	1.538129856 	-5.037127574e-06 	7.169119279e-10
0.9911333916 	1.511006211 	-4.670513601e-06 	6.553507437e-10
0.9914499931 	1.483122507 	-4.318606358e-06 	5.972925759e-10
0.9917607538 	1.454437818 	-3.981697671e-06 	5.426724037e-10
0.9920657815 	1.424909498 	-3.665464125e-06 	4.91385174e-10
0.9923651819 	1.394493222 	-3.368669786e-06 	4.433452094e-10
0.992659059 	1.363142912 	-3.084146318e-06 	3.984640068e-10
0.9929475145 	1.33081071 	-2.795614292e-06 	3.566430946e-10
0.9932306485 	1.297447015 	-2.581380196e-06 	3.178238894e-10
0.9935085592 	1.263000193 	-2.841331655e-06 	2.821317913e-10
0.9937813429 	1.230499144 	-2.990408286e-06 	2.519351679e-10
0.9939569055 	1.203346396 	-2.491098886e-06 	2.288172483e-10
0.9941324681 	1.17860579 	-2.083594133e-06 	2.094506623e-10
0.9943080307 	1.152970049 	-1.949393162e-06 	1.910999391e-10
0.9944835934 	1.12638696 	-1.841979357e-06 	1.736928924e-10
0.994659156 	1.098809446 	-1.722915153e-06 	1.572283666e-10
0.9948347186 	1.070189337 	-1.605584132e-06 	1.417151111e-10
0.9950102812 	1.04047513 	-1.496060642e-06 	1.271555883e-10
0.9951858439 	1.009612143 	-1.396883786e-06 	1.135468012e-10
0.9953614065 	0.9775433118 	-1.311630854e-06 	1.008813886e-10
0.9955369691 	0.9442102506 	-1.244516722e-06 	8.914865527e-11
0.9957125317 	0.9095545128 	-1.195364721e-06 	7.833721217e-11
0.9958880943 	0.873519147 	-1.159755955e-06 	6.843007769e-11
0.996063657 	0.8360506281 	-1.249838731e-06 	5.932033114e-11
0.9962392196 	0.7971011712 	-1.711838676e-06 	5.091771275e-11
0.9964147822 	0.7566311706 	-2.105159465e-06 	4.372139407e-11
0.9965903448 	0.7146138722 	8.80178197e-06 	4.510276022e-11
0.9967659075 	0.6710384332 	7.543311398e-06 	2.777256776e-11
0.9969414701 	0.6258674141 	-1.845591879e-05 	7.305095858e-12
0.9971170327 	0.5790291164 	-1.918388424e-05 	2.776747763e-11
0.9972925953 	0.5305276244 	-3.534747784e-06 	3.16496244e-11
0.997468158 	0.4804920087 	6.681111651e-07 	1.435011028e-11
0.9976437206 	0.4291407083 	3.751576108e-06 	1.044478635e-11
0.9978192832 	0.376755359 	5.659884361e-06 	7.092167127e-12
0.9979948458 	0.3236371403 	5.451705549e-06 	4.421927346e-12
0.9981704085 	0.2700559891 	3.732410411e-06 	2.766452279e-12
0.9983459711 	0.216214905 	1.845950547e-06 	1.841966763e-12
0.9985215337 	0.1622410373 	6.244122518e-07 	1.169521798e-12
0.9986970963 	0.1081994594 	1.132222268e-07 	5.840754368e-13
0.998872659 	0.05411630576 	-4.619256043e-09 	1.703592225e-13
0.9990482216 	0.02278922381 	-7.941771338e-09 	2.116241483e-14
0.9990482216 	0.02278922381 	-7.941771338e-09 	2.116241483e-14
