0.4709558481 	4.854742292e-07 	-1.806786832e-09 	5.210395271e-15 	4.845505374e-07 	-9.812737142e-13 	9.236879981e-10
0.4709558481 	4.854742292e-07 	-1.806786832e-09 	5.210395271e-15 	4.845505374e-07 	-9.812737141e-13 	9.236879981e-10
0.4711314108 	5.450411855e-06 	-7.924487974e-08 	2.294666037e-13 	5.440041853e-06 	-1.101610024e-11 	1.037023175e-08
0.4713069734 	3.037209115e-05 	-1.032002414e-06 	2.995634902e-12 	3.031432786e-05 	-6.136262175e-11 	5.778753434e-08
0.471482536 	0.0001010004468 	-6.398946011e-06 	1.855248887e-11 	0.0001008086403 	-2.037550786e-10 	1.921692867e-07
0.4716580986 	0.0002487014123 	-2.561727197e-05 	7.370992443e-11 	0.0002482301963 	-4.997180774e-10 	4.731957461e-07
0.4718336613 	0.0005053845393 	-7.657074187e-05 	2.165644906e-10 	0.0005044265684 	-1.006778587e-09 	9.615772374e-07
0.4720092239 	0.0008983247895 	-0.0001850686247 	5.082628734e-10 	0.0008966078435 	-1.76203468e-09 	1.709183749e-06
0.4721847865 	0.0014438638 	-0.0003794638478 	9.985296692e-10 	0.001441062585 	-2.764528739e-09 	2.74706581e-06
0.4723603491 	0.002141951729 	-0.0006815157753 	1.696745486e-09 	0.002137712469 	-3.966144206e-09 	4.075074112e-06
0.4725359118 	0.0029747368 	-0.001098076236 	2.560111229e-09 	0.002968438121 	-5.28720733e-09 	5.658668093e-06
0.4727114744 	0.003910033953 	-0.001618494856 	3.514273675e-09 	0.003902073157 	-6.639568033e-09 	7.438435963e-06
0.472887037 	0.004909681691 	-0.002210506032 	4.005205979e-09 	0.004901852493 	-7.951256709e-09 	9.344293251e-06
0.4730625996 	0.005942558068 	-0.002760884345 	4.302258596e-09 	0.005932786526 	-9.223413865e-09 	1.130954005e-05
0.4732381623 	0.006988248835 	-0.003246262677 	4.878361261e-09 	0.006973900082 	-1.046294641e-08 	1.329419185e-05
0.4734137249 	0.008029543925 	-0.003729981135 	5.420602277e-09 	0.008013096197 	-1.162742617e-08 	1.527518848e-05
0.4735892875 	0.009052419284 	-0.00420530909 	5.925298822e-09 	0.009034983206 	-1.270456843e-08 	1.722318913e-05
0.4737648501 	0.01004672029 	-0.004667197828 	6.39142529e-09 	0.01002729248 	-1.370090994e-08 	1.911480642e-05
0.4739404128 	0.01100447022 	-0.005112099992 	6.819605638e-09 	0.0109830791 	-1.461557058e-08 	2.093680135e-05
0.4741159754 	0.01192069938 	-0.00553772075 	7.211408179e-09 	0.01189745762 	-1.545156032e-08 	2.267986096e-05
0.474291538 	0.01279261005 	-0.005942765432 	7.568945302e-09 	0.01276760922 	-1.621303917e-08 	2.433861175e-05
0.4744671006 	0.01361903111 	-0.006326716135 	7.894767443e-09 	0.01359234924 	-1.690438894e-08 	2.591079544e-05
0.4746426632 	0.01439998076 	-0.006689653799 	8.192012305e-09 	0.01437169758 	-1.752971964e-08 	2.739644999e-05
0.4748182259 	0.01513631717 	-0.00703212919 	8.464696456e-09 	0.01510651203 	-1.809268283e-08 	2.879721057e-05
0.4749937885 	0.01582945806 	-0.007355074747 	8.717992117e-09 	0.0157982079 	-1.859637503e-08 	3.011577515e-05
0.4751693511 	0.01648116731 	-0.007659743274 	8.95836988e-09 	0.01644854607 	-1.904337756e-08 	3.135550044e-05
0.4753449137 	0.01709340794 	-0.007947661815 	9.193634731e-09 	0.01705948607 	-1.943608485e-08 	3.252012189e-05
0.4755204764 	0.01766828123 	-0.008218527753 	9.357411521e-09 	0.01763312581 	-1.977803742e-08 	3.361363866e-05
0.475696039 	0.01820806665 	-0.008469739755 	9.465394128e-09 	0.0181717277 	-2.007531279e-08 	3.464036356e-05
0.4758716016 	0.01871517581 	-0.008703278625 	9.580092461e-09 	0.01867761374 	-2.0332305e-08 	3.560472296e-05
0.4760471642 	0.01919179848 	-0.008923028086 	9.678208065e-09 	0.01915305692 	-2.055104336e-08 	3.65110498e-05
0.4762227269 	0.01969993791 	-0.009157590449 	9.77116157e-09 	0.01966023145 	-2.075761117e-08 	3.747786543e-05
0.4764955107 	0.02028672818 	-0.009428734227 	9.861417776e-09 	0.02024591678 	-2.095696496e-08 	3.859434444e-05
0.4767734216 	0.02088276089 	-0.009704359044 	9.930829968e-09 	0.02084044491 	-2.110841561e-08 	3.97276803e-05
0.4770565557 	0.02143399519 	-0.009959451569 	9.969740677e-09 	0.02139017469 	-2.119152372e-08 	4.077561805e-05
0.4773450114 	0.02194324475 	-0.01019527409 	9.977868886e-09 	0.02189811805 	-2.120623067e-08 	4.174389927e-05
0.4776388886 	0.02241322876 	-0.0104130167 	9.954294166e-09 	0.0223668696 	-2.115075755e-08 	4.263747001e-05
0.4779382892 	0.02284639952 	-0.01061377539 	9.897543309e-09 	0.02279885232 	-2.102215628e-08 	4.346094913e-05
0.4782433171 	0.02324496129 	-0.01079854635 	9.805909185e-09 	0.02319627198 	-2.081688549e-08 	4.421854147e-05
0.4785540779 	0.02361092397 	-0.01096824055 	9.677990399e-09 	0.02356112592 	-2.053189701e-08 	4.491405448e-05
0.4788706795 	0.02394642252 	-0.01112383077 	9.516034225e-09 	0.02389553598 	-2.01723118e-08 	4.5551533e-05
0.4791932316 	0.0242539555 	-0.01126646352 	9.324499528e-09 	0.0242020086 	-1.974828655e-08 	4.613575499e-05
0.4795218461 	0.02453590472 	-0.01139723428 	9.10424051e-09 	0.02448293094 	-1.926176886e-08 	4.667127106e-05
0.4798566368 	0.02479413185 	-0.01151699875 	8.854571947e-09 	0.02474015023 	-1.871118641e-08 	4.71616025e-05
0.48019772 	0.02503017566 	-0.01162646561 	8.575678048e-09 	0.02497519327 	-1.8097028e-08 	4.760965988e-05
0.4805452138 	0.02524542823 	-0.0117262781 	8.267592474e-09 	0.02518945046 	-1.741941436e-08 	4.801809363e-05
0.4808992388 	0.02544114875 	-0.01181701842 	7.930180255e-09 	0.02538417877 	-1.667803475e-08 	4.83892999e-05
0.4812599177 	0.02561847416 	-0.01189921226 	7.563130314e-09 	0.02556051097 	-1.587220897e-08 	4.872543809e-05
0.4816273755 	0.02577842855 	-0.01197333332 	7.165953819e-09 	0.02571946719 	-1.500087103e-08 	4.902845283e-05
0.4820017397 	0.02592193299 	-0.01203980776 	6.737985807e-09 	0.02586196476 	-1.406257254e-08 	4.930009279e-05
0.48238314 	0.02604981491 	-0.01209901853 	6.278388381e-09 	0.02598882748 	-1.305549101e-08 	4.954192839e-05
0.4827717088 	0.02616281683 	-0.01215130928 	5.786154386e-09 	0.02610079435 	-1.197743911e-08 	4.975536836e-05
0.4831675807 	0.02626160435 	-0.0121969881 	5.260110946e-09 	0.02619852753 	-1.082587321e-08 	4.994167497e-05
0.4835708931 	0.02634677336 	-0.0122363308 	4.698922395e-09 	0.0262826196 	-9.597900775e-09 	5.010197784e-05
0.4839817856 	0.02641885663 	-0.01226958394 	4.101092971e-09 	0.02635360007 	-8.290286647e-09 	5.023728633e-05
0.4844004009 	0.02647832953 	-0.01229696753 	3.46496864e-09 	0.02641194117 	-6.899457907e-09 	5.034850069e-05
0.4848268841 	0.02652561529 	-0.01231867739 	2.788738382e-09 	0.02645806309 	-5.421507718e-09 	5.043642188e-05
0.485261383 	0.02656108953 	-0.01233488727 	2.070435316e-09 	0.02649233848 	-3.85219832e-09 	5.050176032e-05
0.4857040484 	0.02658508429 	-0.01234575073 	1.307937301e-09 	0.02651509659 	-2.186963466e-09 	5.054514358e-05
0.4861550336 	0.02659789156 	-0.01235140279 	4.989674117e-10 	0.02652662671 	-4.209106367e-10 	5.056712321e-05
0.4866144951 	0.02659976643 	-0.01235196135 	-3.589053374e-10 	0.02652718141 	1.451176682e-09 	5.056818063e-05
0.4870825921 	0.02659092977 	-0.01234752846 	-1.268265035e-09 	0.0265169792 	3.434836251e-09 	5.054873237e-05
0.487559487 	0.02657157061 	-0.01233819143 	-2.231847399e-09 	0.02649620695 	5.535923265e-09 	5.050913469e-05
0.4880453452 	0.02654184818 	-0.01232402379 	-3.25253691e-09 	0.02646502199 	7.760604176e-09 	5.044968748e-05
0.4885403351 	0.02650189376 	-0.01230508613 	-4.333362631e-09 	0.02642355392 	1.011534604e-08 	5.037063783e-05
0.4890446283 	0.02645181221 	-0.01228142682 	-5.477492018e-09 	0.02637190625 	1.260689872e-08 	5.027218301e-05
0.4895583997 	0.02639168335 	-0.01225308271 	-6.688222312e-09 	0.02631015776 	1.524226874e-08 	5.015447323e-05
0.4900818274 	0.02632156312 	-0.0122200796 	-7.968969804e-09 	0.02623836377 	1.802868694e-08 	5.001761392e-05
0.4906150929 	0.02624148471 	-0.01218243284 	-9.32325709e-09 	0.02615655721 	2.097357508e-08 	4.986166788e-05
0.4911583811 	0.02615145944 	-0.0121401477 	-1.07546982e-08 	0.02606474965 	2.408452023e-08 	4.968665715e-05
0.4917118805 	0.02605147765 	-0.01209321982 	-1.226697956e-08 	0.02596293216 	2.736926177e-08 	4.949256473e-05
0.4922757829 	0.0259415095 	-0.01204163562 	-1.386383536e-08 	0.02585107622 	3.083566883e-08 	4.927933621e-05
0.4928502838 	0.02582150577 	-0.0119853726 	-1.55490188e-08 	0.02572913446 	3.449168326e-08 	4.904688132e-05
0.4934355824 	0.02569139859 	-0.01192439976 	-1.732626958e-08 	0.02559704155 	3.834522946e-08 	4.879507552e-05
0.4940318817 	0.02555110224 	-0.01185867797 	-1.919927713e-08 	0.025454715 	4.240409124e-08 	4.852376156e-05
0.4946393885 	0.02540051401 	-0.01178816038 	-2.117164034e-08 	0.02530205605 	4.6675776e-08 	4.823275117e-05
0.4952583133 	0.02523951513 	-0.01171279283 	-2.32468217e-08 	0.02513895062 	5.116741582e-08 	4.79218269e-05
0.4958888709 	0.02506797179 	-0.01163251437 	-2.542809464e-08 	0.02496527043 	5.588569823e-08 	4.759074418e-05
0.4965312797 	0.02488573633 	-0.01154725782 	-2.771848858e-08 	0.02478087413 	6.083678691e-08 	4.723923359e-05
0.4971857627 	0.02469264866 	-0.01145695037 	-3.01207359e-08 	0.02458560877 	6.602622716e-08 	4.686700352e-05
0.4978525466 	0.02448853783 	-0.01136151442 	-3.26372209e-08 	0.02437931131 	7.145884051e-08 	4.647374324e-05
0.4985318627 	0.02427322395 	-0.01126086835 	-3.526993101e-08 	0.02416181058 	7.713861513e-08 	4.60591264e-05
0.4992239466 	0.0240465203 	-0.0111549276 	-3.80204113e-08 	0.02393292935 	8.306860221e-08 	4.562281516e-05
0.4999290382 	0.02380823591 	-0.01104360579 	-4.088972504e-08 	0.02369248681 	8.925082845e-08 	4.516446485e-05
0.5006473819 	0.02355817825 	-0.01092681603 	-4.38784236e-08 	0.02344030129 	9.568623325e-08 	4.468372916e-05
0.501379227 	0.02329615619 	-0.01080447226 	-4.698652983e-08 	0.02317619316 	1.023746396e-07 	4.418026565e-05
0.502124827 	0.02302198256 	-0.01067649053 	-5.021354035e-08 	0.02289998786 	1.093147692e-07 	4.365374159e-05
0.5028844406 	0.02273547589 	-0.01054279002 	-5.355845388e-08 	0.0226115184 	1.16504318e-07 	4.310383862e-05
0.5036583311 	0.02243646233 	-0.01040329302 	-5.701983649e-08 	0.02231062147 	1.239401641e-07 	4.253024544e-05
0.5044467669 	0.02212477866 	-0.0102579233 	-6.059593549e-08 	0.02199712042 	1.316187989e-07 	4.193262531e-05
0.5052500214 	0.02180023394 	-0.01010660163 	-6.428483937e-08 	0.02167087102 	1.39536214e-07 	4.131070327e-05
0.506068373 	0.02141869746 	-0.00992878645 	-6.857601358e-08 	0.02128768777 	1.487417499e-07 	4.05802495e-05
0.507324668 	0.02093136546 	-0.009701753339 	-7.398619545e-08 	0.0207986026 	1.603431536e-07 	3.964791722e-05
0.5085949819 	0.02037908456 	-0.009444549797 	-8.003242464e-08 	0.02024463202 	1.733042571e-07 	3.859189533e-05
0.5098794711 	0.01980629398 	-0.009177908392 	-8.622405326e-08 	0.01967051823 	1.865721937e-07 	3.749747489e-05
0.5111782938 	0.01921325474 	-0.00890196759 	-9.257355143e-08 	0.01907659948 	2.001727412e-07 	3.636530067e-05
0.5124916099 	0.01860000491 	-0.008616751189 	-9.910370784e-08 	0.01846292762 	2.141384476e-07 	3.519547155e-05
0.5138195812 	0.01796631485 	-0.008322163629 	-1.058400542e-07 	0.01782933172 	2.285245841e-07 	3.398766166e-05
0.5151623712 	0.01731181521 	-0.008018027238 	-1.127849898e-07 	0.01717541417 	2.433802792e-07 	3.274111306e-05
0.5165201452 	0.01663801045 	-0.007705026298 	-1.190844114e-07 	0.01650259832 	2.568514026e-07 	3.145853905e-05
0.5178930705 	0.01595128136 	-0.007386143784 	-1.235819344e-07 	0.01581734086 	2.664038264e-07 	3.015224787e-05
0.5192813161 	0.01526037199 	-0.007065467403 	-1.26457855e-07 	0.01512848529 	2.724709289e-07 	2.883909772e-05
0.520685053 	0.014572009 	-0.006746105921 	-1.28124655e-07 	0.01444266505 	2.759726704e-07 	2.753173372e-05
0.522104454 	0.01389186958 	-0.006430662162 	-1.284399398e-07 	0.0137654242 	2.765740514e-07 	2.624072442e-05
0.523539694 	0.01322633755 	-0.0061220744 	-1.271858336e-07 	0.01310310763 	2.738063461e-07 	2.497816496e-05
0.5249909497 	0.01258277737 	-0.005823742911 	-1.240249613e-07 	0.01246310137 	2.669367696e-07 	2.375813514e-05
0.5264583998 	0.01196957465 	-0.005539550475 	-1.186893082e-07 	0.01185383512 	2.5586358e-07 	2.259670433e-05
0.527942225 	0.01139655587 	-0.005273413457 	-1.112585659e-07 	0.01128113211 	2.40086748e-07 	2.150497322e-05
0.5294426081 	0.01086796515 	-0.005028498557 	-1.024857758e-07 	0.01075679683 	2.192068651e-07 	2.050544446e-05
0.5309597337 	0.01038432891 	-0.004804545597 	-1.103928411e-07 	0.01028761002 	2.010484854e-07 	1.961104399e-05
0.5324937889 	0.009946193579 	-0.004501221889 	-1.431702375e-07 	0.009850821632 	1.91282519e-07 	1.877840392e-05
0.5340449624 	0.009540167541 	-0.004142570349 	-1.553167971e-07 	0.00943856085 	1.810557213e-07 	1.799252029e-05
0.5356134452 	0.009155014618 	-0.003831136246 	-1.448147715e-07 	0.009062023308 	1.674429161e-07 	1.727473508e-05
0.5371994306 	0.00879664551 	-0.003542688143 	-1.394367663e-07 	0.0087127488 	1.553749677e-07 	1.66089208e-05
0.5388031139 	0.008467845207 	-0.003272187828 	-1.33015065e-07 	0.008387611056 	1.43056941e-07 	1.598911789e-05
0.5404246925 	0.008166970463 	-0.003017676834 	-1.261643133e-07 	0.008091430438 	1.292437587e-07 	1.542451531e-05
0.5420643661 	0.00789455738 	-0.002778189401 	-1.192509585e-07 	0.007823717431 	1.151652619e-07 	1.491417991e-05
0.5437223366 	0.007650470883 	-0.002553435104 	-1.124018113e-07 	0.007584252227 	1.0085698e-07 	1.445769268e-05
0.5453988083 	0.007434171528 	-0.002342982311 	-1.057225547e-07 	0.007372475 	8.654388118e-08 	1.405398642e-05
0.5470939875 	0.007244742976 	-0.002146238926 	-9.927545157e-08 	0.00718745567 	7.245580342e-08 	1.370128816e-05
0.5488080831 	0.007080936013 	-0.001962501844 	-9.309340435e-08 	0.00702796254 	5.880231816e-08 	1.339724992e-05
0.5505413061 	0.006941303771 	-0.001791010894 	-8.72196519e-08 	0.00689252011 	4.571875161e-08 	1.313905901e-05
0.5522938699 	0.006824320715 	-0.00163112104 	-8.133509173e-08 	0.006779611493 	3.319421088e-08 	1.29238238e-05
0.5540659904 	0.006728580973 	-0.001482729804 	-7.548830413e-08 	0.006687984346 	2.097560715e-08 	1.274915699e-05
0.5558578859 	0.006653291604 	-0.001344512287 	-7.091459289e-08 	0.006616811714 	8.970761809e-09 	1.261348218e-05
0.5576697768 	0.006597564497 	-0.001213764533 	-6.757803297e-08 	0.006564995185 	-2.31865261e-09 	1.251470547e-05
0.5595018865 	0.00655936516 	-0.001089409111 	-6.44036818e-08 	0.006530559495 	-1.241324665e-08 	1.244906147e-05
0.5613544406 	0.006536251239 	-0.0009712730271 	-6.141801204e-08 	0.006511189438 	-2.125689279e-08 	1.241213676e-05
0.563227667 	0.006526139089 	-0.0008586582919 	-5.883999638e-08 	0.006504756958 	-2.899065409e-08 	1.239987467e-05
0.5651217966 	0.006527251968 	-0.0007508514518 	-5.663144444e-08 	0.006509466523 	-3.579301688e-08 	1.240885241e-05
0.5670370626 	0.006538061422 	-0.0006472220656 	-5.474895298e-08 	0.0065238189 	-4.179664481e-08 	1.243621202e-05
0.5689737009 	0.006557265498 	-0.0005472220588 	-5.315128468e-08 	0.006546525099 	-4.710597371e-08 	1.247949635e-05
0.5709319499 	0.006583748769 	-0.000450377985 	-5.180146878e-08 	0.006576478911 	-5.181364539e-08 	1.253659664e-05
0.5729120508 	0.006616551931 	-0.0003562811811 	-5.066723332e-08 	0.006612729112 	-5.599868183e-08 	1.26056996e-05
0.5749142474 	0.00665484734 	-0.0002645790727 	-4.972087945e-08 	0.006654455083 	-5.972850635e-08 	1.26852409e-05
0.5769387863 	0.006697918339 	-0.0001749674467 	-4.893814758e-08 	0.00670094728 	-6.306165037e-08 	1.277386795e-05
0.5789859169 	0.006745143604 	-8.7184181e-05 	-4.829561093e-08 	0.006751587793 	-6.604598143e-08 	1.287040284e-05
0.5810558911 	0.006795981392 	-1.012980164e-06 	-4.777993566e-08 	0.006805839676 	-6.872261218e-08 	1.297382201e-05
0.583148964 	0.006849956917 	8.37444885e-05 	-4.73826896e-08 	0.006863235573 	-7.113183297e-08 	1.308323454e-05
0.5852653933 	0.006906655832 	0.0001672812987 	-4.708281582e-08 	0.006923361589 	-7.330494305e-08 	1.319785144e-05
0.5874054395 	0.006965712764 	0.0002497431341 	-4.686376259e-08 	0.006985855695 	-7.526781812e-08 	1.331698257e-05
0.5895693664 	0.007026804532 	0.0003312452871 	-4.671838597e-08 	0.007050398986 	-7.70446638e-08 	1.344002002e-05
0.5917574402 	0.007089645762 	0.0004118988295 	-4.663819787e-08 	0.007116706832 	-7.865527026e-08 	1.356642121e-05
0.5939699306 	0.00715398209 	0.0004918002169 	-4.661581473e-08 	0.007184527254 	-8.011765996e-08 	1.369570578e-05
0.5962071099 	0.007219586645 	0.000571033179 	-4.664475024e-08 	0.00725363507 	-8.144740013e-08 	1.382744449e-05
0.5984692536 	0.00728625624 	0.000649670322 	-4.671929114e-08 	0.007323828565 	-8.265811007e-08 	1.39612528e-05
0.6007566404 	0.007353808263 	0.0007277744752 	-4.683438252e-08 	0.007394926384 	-8.376172811e-08 	1.4096785e-05
0.6030695519 	0.007422078019 	0.0008053998296 	-4.698553146e-08 	0.0074667649 	-8.476874556e-08 	1.423372918e-05
0.6054082729 	0.007490916454 	0.0008825928983 	-4.716872261e-08 	0.007539195948 	-8.56884005e-08 	1.437180289e-05
0.6077730914 	0.007560188213 	0.000959393325 	-4.738034438e-08 	0.007612084891 	-8.652884298e-08 	1.451074947e-05
0.6101642987 	0.00762976996 	0.001035834564 	-4.761712461e-08 	0.007685308951 	-8.729727449e-08 	1.465033488e-05
0.6125821893 	0.007699548936 	0.001111944447 	-4.787607444e-08 	0.007758755764 	-8.800006574e-08 	1.479034492e-05
0.6150270608 	0.007769421707 	0.001187745664 	-4.81544395e-08 	0.007832322132 	-8.864285626e-08 	1.493058286e-05
0.6174992144 	0.007839293078 	0.001263256149 	-4.844965704e-08 	0.007905912937 	-8.923063872e-08 	1.507086739e-05
0.6199989545 	0.007909075147 	0.001338489415 	-4.875931824e-08 	0.007979440189 	-8.976783041e-08 	1.521103077e-05
0.622526589 	0.007978686476 	0.001413454816 	-4.908113463e-08 	0.008052822191 	-9.025833402e-08 	1.535091726e-05
0.625082429 	0.008048051362 	0.001488157764 	-4.941290806e-08 	0.008125982805 	-9.070558928e-08 	1.549038173e-05
0.6276667894 	0.008117099193 	0.001562599901 	-4.97525034e-08 	0.008198850799 	-9.111261707e-08 	1.562928838e-05
0.6302799884 	0.00818576388 	0.001636779238 	-5.009782373e-08 	0.008271359265 	-9.148205702e-08 	1.576750966e-05
0.6329223478 	0.008253983348 	0.001710690254 	-5.044678739e-08 	0.008343445103 	-9.181619988e-08 	1.590492531e-05
0.6355941931 	0.008321699084 	0.001784323978 	-5.079730667e-08 	0.008415048557 	-9.211701515e-08 	1.604142139e-05
0.6382958531 	0.008388855735 	0.00185766804 	-5.114726785e-08 	0.008486112789 	-9.238617509e-08 	1.617688957e-05
0.6410276607 	0.008455400737 	0.001930706708 	-5.149451222e-08 	0.008556583507 	-9.262507531e-08 	1.631122634e-05
0.6437899523 	0.008521283998 	0.002003420909 	-5.183681813e-08 	0.008626408618 	-9.283485276e-08 	1.644433241e-05
0.646583068 	0.008586457597 	0.002075788236 	-5.217188365e-08 	0.008695537918 	-9.301640127e-08 	1.657611207e-05
0.6494073518 	0.008650875523 	0.002147782952 	-5.249730994e-08 	0.008763922806 	-9.317038517e-08 	1.670647267e-05
0.6522631514 	0.008714493442 	0.002219375985 	-5.281058511e-08 	0.008831516033 	-9.329725112e-08 	1.683532415e-05
0.6551508186 	0.008777268481 	0.002290534923 	-5.310906862e-08 	0.008898271468 	-9.339723847e-08 	1.696257856e-05
0.658070709 	0.008839159051 	0.002361224009 	-5.338997626e-08 	0.008964143888 	-9.347038824e-08 	1.70881497e-05
0.6610231822 	0.00890012468 	0.002431404151 	-5.365036566e-08 	0.009029088795 	-9.351655104e-08 	1.721195275e-05
0.6640086017 	0.008960125878 	0.002501032929 	-5.388712259e-08 	0.009093062254 	-9.353539378e-08 	1.733390394e-05
0.6670273351 	0.009019124019 	0.002570064629 	-5.409694815e-08 	0.009156020748 	-9.35264055e-08 	1.745392033e-05
0.6700797543 	0.009077081254 	0.002638450288 	-5.427634705e-08 	0.009217921061 	-9.34889023e-08 	1.757191953e-05
0.6731662352 	0.009133960439 	0.002706137777 	-5.44216175e-08 	0.009278720182 	-9.342203126e-08 	1.768781955e-05
0.6762871577 	0.009189725095 	0.002773071897 	-5.452884291e-08 	0.009338375231 	-9.332477358e-08 	1.780153866e-05
0.6794429063 	0.009244339387 	0.002839194534 	-5.459388655e-08 	0.009396843415 	-9.319594703e-08 	1.791299527e-05
0.6826338695 	0.009297768134 	0.002904444845 	-5.461239112e-08 	0.009454082 	-9.303420494e-08 	1.802210792e-05
0.6858604404 	0.009349976846 	0.002968759503 	-5.457977762e-08 	0.009510048325 	-9.283801426e-08 	1.812879529e-05
0.6891230163 	0.009400931785 	0.003032072999 	-5.449121298e-08 	0.009564699831 	-9.260571701e-08 	1.823297625e-05
0.6924219988 	0.009450600061 	0.003094318 	-5.434151097e-08 	0.009617994153 	-9.233557236e-08 	1.833457004e-05
0.6957577944 	0.009498949791 	0.003155425717 	-5.4124536e-08 	0.009669889165 	-9.202512755e-08 	1.843349636e-05
0.6991308138 	0.009545950332 	0.003215326357 	-5.383370717e-08 	0.009720343058 	-9.167145308e-08 	1.85296755e-05
0.7025414724 	0.009591572307 	0.003273950158 	-5.346644592e-08 	0.009769314723 	-9.127350327e-08 	1.86230291e-05
0.7059901901 	0.009635787654 	0.00333122854 	-5.302159896e-08 	0.009816764174 	-9.083072529e-08 	1.871348094e-05
0.7094773917 	0.009678570173 	0.003387094389 	-5.249172002e-08 	0.009862652554 	-9.033931247e-08 	1.880095695e-05
0.7130035066 	0.009719896069 	0.003441482489 	-5.186744235e-08 	0.009906942242 	-8.97944912e-08 	1.88853854e-05
0.7165689691 	0.009759744199 	0.003494330838 	-5.114269793e-08 	0.009949597401 	-8.919313269e-08 	1.896669799e-05
0.7201742182 	0.009798096401 	0.003545582103 	-5.031286823e-08 	0.009990584556 	-8.853232674e-08 	1.90448309e-05
0.7238196978 	0.00983493804 	0.003595184843 	-4.937361287e-08 	0.01002987303 	-8.780862051e-08 	1.911972565e-05
0.727505857 	0.009870258317 	0.003643094459 	-4.832074942e-08 	0.0100674361 	-8.70182144e-08 	1.91913313e-05
0.7312331497 	0.009904050836 	0.003689272875 	-4.71504946e-08 	0.01010325184 	-8.615695414e-08 	1.925960605e-05
0.7350020349 	0.009936232061 	0.003733567947 	-4.586354809e-08 	0.01013721446 	-8.522290036e-08 	1.932434825e-05
0.7387709215 	0.009966571827 	0.003775611739 	-4.447128307e-08 	0.01016906476 	-8.422068242e-08 	1.938506377e-05
0.7424982157 	0.009994905353 	0.003815125514 	-4.298915851e-08 	0.01019862138 	-8.315717787e-08 	1.944140691e-05
0.7461843763 	0.0100212807 	0.003852136574 	-4.142670524e-08 	0.01022593199 	-8.203465763e-08 	1.949346853e-05
0.7498298574 	0.01004582808 	0.003886795966 	-3.979014084e-08 	0.01025112974 	-8.085274412e-08 	1.954150243e-05
0.7534351078 	0.01006867667 	0.003919259535 	-3.808588731e-08 	0.01027434682 	-7.961102712e-08 	1.958576064e-05
0.7570005716 	0.01008995435 	0.003949685735 	-3.632049015e-08 	0.01029571524 	-7.830907653e-08 	1.962649479e-05
0.7605266877 	0.010109788 	0.003978234651 	-3.450050237e-08 	0.01031536668 	-7.694642598e-08 	1.96639559e-05
0.7640138905 	0.01012830358 	0.00400506727 	-3.263237288e-08 	0.01033343253 	-7.552256935e-08 	1.969839443e-05
0.7674626093 	0.0101456263 	0.004030344772 	-3.07223412e-08 	0.01035004394 	-7.40369611e-08 	1.97300604e-05
0.770873269 	0.01016188075 	0.004054227866 	-2.877634289e-08 	0.01036533191 	-7.248901549e-08 	1.975920352e-05
0.7742462894 	0.01017719098 	0.004076876165 	-2.679992761e-08 	0.01037942734 	-7.087810626e-08 	1.978607332e-05
0.777582086 	0.01019168069 	0.004098447634 	-2.479819054e-08 	0.0103924611 	-6.92035666e-08 	1.98109193e-05
0.7808810695 	0.01020547332 	0.004119098107 	-2.277571769e-08 	0.01040456416 	-6.746468957e-08 	1.983399108e-05
0.7841436462 	0.01021869218 	0.004138980876 	-2.073654789e-08 	0.01041586756 	-6.566073207e-08 	1.985553851e-05
0.787370218 	0.01023146063 	0.004158246347 	-1.868415261e-08 	0.01042650261 	-6.379089959e-08 	1.987581187e-05
0.7905611821 	0.01024390212 	0.004177041763 	-1.662143773e-08 	0.0104366009 	-6.185435685e-08 	1.989506201e-05
0.7937169314 	0.01025614042 	0.004195510928 	-1.455086501e-08 	0.01044629441 	-5.985027521e-08 	1.991354054e-05
0.7968378547 	0.01026829967 	0.004213794076 	-1.247413835e-08 	0.01045571561 	-5.777776021e-08 	1.993149997e-05
0.7999243362 	0.01028050456 	0.004232027996 	-1.039209387e-08 	0.01046499754 	-5.563583824e-08 	1.994919391e-05
0.8029767561 	0.01029288043 	0.004250345995 	-8.305348826e-09 	0.01047427394 	-5.342357509e-08 	1.99668773e-05
0.8059954902 	0.01030555336 	0.004268877685 	-6.21424065e-09 	0.01048367931 	-5.114003183e-08 	1.998480656e-05
0.8089809102 	0.01031865034 	0.004287748961 	-4.11856667e-09 	0.01049334904 	-4.87842035e-08 	2.000323974e-05
0.8119333839 	0.01033229932 	0.004307082054 	-2.01776566e-09 	0.01050341948 	-4.63550735e-08 	2.00224368e-05
0.8148532749 	0.01034662933 	0.004326995552 	8.898577894e-11 	0.01051402808 	-4.385163023e-08 	2.004265975e-05
0.8177409426 	0.01036177054 	0.004347604389 	2.202674819e-09 	0.01052531345 	-4.127286076e-08 	2.00641728e-05
0.8205967427 	0.01037785438 	0.00436901982 	4.324345734e-09 	0.01053741543 	-3.861776229e-08 	2.008724254e-05
0.8234210268 	0.01039501358 	0.004391349342 	6.45498293e-09 	0.01055047521 	-3.588535196e-08 	2.011213811e-05
0.8262141429 	0.01041338219 	0.004414696561 	8.595379787e-09 	0.01056463536 	-3.307467702e-08 	2.013913128e-05
0.8289764348 	0.01043309567 	0.004439160994 	1.07459913e-08 	0.01058003991 	-3.018482547e-08 	2.016849663e-05
0.8317082427 	0.01045429087 	0.004464837771 	1.290676791e-08 	0.0105968344 	-2.721493657e-08 	2.020051161e-05
0.8344099031 	0.01047710604 	0.004491817218 	1.507696721e-08 	0.01061516593 	-2.4164211e-08 	2.023545659e-05
0.8370817486 	0.01050168082 	0.004520184309 	1.725493911e-08 	0.01063518315 	-2.103192001e-08 	2.027361498e-05
0.8397241082 	0.01052815619 	0.004550017925 	1.943787894e-08 	0.01065703633 	-1.781741268e-08 	2.031527322e-05
0.8423373074 	0.01055667444 	0.00458138991 	2.162154104e-08 	0.01068087736 	-1.45201205e-08 	2.036072084e-05
0.844921668 	0.01058737906 	0.004614363857 	2.379990369e-08 	0.01070685972 	-1.113955787e-08 	2.041025044e-05
0.8474775082 	0.0106204147 	0.004648993568 	2.59647733e-08 	0.01073513854 	-7.675316716e-09 	2.046415773e-05
0.8500051427 	0.01065592702 	0.004685321125 	2.810531208e-08 	0.01076587057 	-4.127052662e-09 	2.052274153e-05
0.8525048829 	0.01069406258 	0.004723374485 	3.020746568e-08 	0.01079921423 	-4.944581001e-10 	2.05863038e-05
0.8549770366 	0.01073496872 	0.004763164502 	3.225325121e-08 	0.01083532961 	3.222785944e-09 	2.065514977e-05
0.8574219081 	0.01077879345 	0.004804681276 	3.421983079e-08 	0.0108743786 	7.025093841e-09 	2.072958799e-05
0.8598397987 	0.01082568528 	0.004847889705 	3.607822369e-08 	0.01091652493 	1.091312041e-08 	2.080993061e-05
0.862231006 	0.01087579315 	0.004892724118 	3.77913987e-08 	0.01096193444 	1.488802503e-08 	2.089649375e-05
0.8645958245 	0.01092926628 	0.00493908184 	3.931134964e-08 	0.01101077531 	1.895183277e-08 	2.098959803e-05
0.8669345455 	0.01098625408 	0.004986815486 	4.057478195e-08 	0.01106321865 	2.310800561e-08 	2.10895696e-05
0.8692474569 	0.01104690582 	0.005035723983 	4.149893176e-08 	0.01111943956 	2.7363418e-08 	2.119674229e-05
0.8715348435 	0.01111136996 	0.00508554353 	4.198067462e-08 	0.01117961929 	3.172221672e-08 	2.131146157e-05
0.8737969871 	0.01117979418 	0.005135942764 	4.191506362e-08 	0.01124394654 	3.619656415e-08 	2.14340872e-05
0.8760341663 	0.01125231577 	0.005186553712 	4.133741e-08 	0.01131263962 	4.086094879e-08 	2.15650353e-05
0.8782466565 	0.01132910386 	0.005237098571 	4.043453914e-08 	0.01138587207 	4.503808031e-08 	2.170463671e-05
0.8804347301 	0.01141049224 	0.005287554433 	3.986628641e-08 	0.01146351171 	4.95738294e-08 	2.185263944e-05
0.8825986568 	0.01149648022 	0.005339146255 	4.338435419e-08 	0.01154614543 	5.518011743e-08 	2.201016228e-05
0.8847387028 	0.01158721555 	0.005393485539 	3.81836818e-08 	0.01163435718 	5.897945489e-08 	2.217831839e-05
0.8868551318 	0.0116840654 	0.005444129534 	3.069301943e-08 	0.01172694555 	6.260761487e-08 	2.235481755e-05
0.8889482045 	0.01178773546 	0.005490925883 	3.335824614e-08 	0.01182427305 	6.875361343e-08 	2.254035083e-05
0.8910181784 	0.01189803006 	0.005540738191 	3.620488389e-08 	0.01192824653 	7.50189618e-08 	2.273855318e-05
0.8930653087 	0.01201555165 	0.005593807344 	3.922371553e-08 	0.01203911033 	8.110657507e-08 	2.294989039e-05
0.8950898473 	0.01214095017 	0.005650378069 	4.240421348e-08 	0.01215707688 	8.784913082e-08 	2.317476741e-05
0.8970920436 	0.01227461552 	0.005710702223 	4.574137838e-08 	0.01228294621 	9.492977055e-08 	2.341470934e-05
0.8990721441 	0.01241706705 	0.005775041042 	4.922876423e-08 	0.01241732285 	1.023580248e-07 	2.367086857e-05
0.9010303927 	0.01256883761 	0.005843661184 	5.285672269e-08 	0.01256081818 	1.101496704e-07 	2.394441054e-05
0.9029670306 	0.01273045195 	0.005916828752 	5.66091173e-08 	0.01271405029 	1.182851482e-07 	2.423651353e-05
0.9048822962 	0.01290240878 	0.005994800351 	6.0461757e-08 	0.01287762195 	1.266981047e-07 	2.454832659e-05
0.9067764254 	0.01308516203 	0.006077812085 	6.438268673e-08 	0.01305209165 	1.35265229e-07 	2.488091433e-05
0.9086496514 	0.01327910108 	0.00616606752 	6.833283095e-08 	0.01323794242 	1.438774233e-07 	2.523519755e-05
0.910502205 	0.0134845246 	0.006259724695 	7.226627571e-08 	0.01343555145 	1.524828597e-07 	2.561189528e-05
0.9123343142 	0.01370161016 	0.006358883255 	7.613048601e-08 	0.01364516564 	1.609794465e-07 	2.60114782e-05
0.9141462048 	0.01393039157 	0.006463573543 	7.986737092e-08 	0.01386687806 	1.692197647e-07 	2.643412368e-05
0.9159380997 	0.01417074269 	0.006573748289 	8.341582324e-08 	0.01410060814 	1.770615758e-07 	2.687967817e-05
0.9177102197 	0.01442236658 	0.006689277545 	8.671521842e-08 	0.014346091 	1.843683261e-07 	2.734763674e-05
0.9194627831 	0.01468479385 	0.00680994816 	8.970923325e-08 	0.01460287692 	1.910159114e-07 	2.783714207e-05
0.9211960055 	0.01495739135 	0.006935468334 	9.234889018e-08 	0.01487034216 	1.968973228e-07 	2.834700516e-05
0.9229101006 	0.01523937872 	0.007065475824 	9.459377123e-08 	0.01514770781 	2.019245485e-07 	2.887574117e-05
0.9246052793 	0.01552984762 	0.007199547338 	9.641186968e-08 	0.01543406085 	2.060279554e-07 	2.942160966e-05
0.9262817504 	0.0158277812 	0.00733720793 	9.777966127e-08 	0.015728375 	2.091562209e-07 	2.998265423e-05
0.9279397204 	0.01613207554 	0.007477941204 	9.868323802e-08 	0.0160295331 	2.112786184e-07 	3.055674526e-05
0.9295793934 	0.01644156545 	0.007621201567 	9.911969176e-08 	0.01633635387 	2.123879674e-07 	3.114163094e-05
0.9312009714 	0.01675505385 	0.007766428134 	9.909715722e-08 	0.01664762234 	2.12500799e-07 	3.173499515e-05