0.2974940496 	0.04664124829 	0.01014471475 	-4.503548545e-06
0.2977032251 	0.1445293611 	0.03133637096 	-1.544761844e-05
0.2979124097 	0.287888246 	0.06233662353 	-3.179280405e-05
0.2981216023 	0.429894178 	0.09304730033 	-4.902217472e-05
0.2983308017 	0.5700640493 	0.1233467361 	-6.70478619e-05
0.2985400069 	0.7074827575 	0.1530826679 	-8.577564077e-05
0.2987492165 	0.8410042436 	0.1819819106 	-0.0001049284884
0.2989584294 	0.9697151174 	0.2097443656 	-0.0001244183046
0.2991676445 	1.093164314 	0.2363168838 	-0.0001444055143
0.2993768607 	1.211156781 	0.2617505284 	-0.0001646563175
0.2995860767 	1.32355237 	0.2859742246 	-0.0001849859577
0.2997952915 	1.430242873 	0.3089378772 	-0.0002053722905
0.3000045038 	1.531139858 	0.3306399856 	-0.0002256428157
0.3002137125 	1.626135956 	0.3510585363 	-0.0002456133877
0.3004229164 	1.71509643 	0.3701643522 	-0.0002650950097
0.3006321145 	1.797904614 	0.3879324335 	-0.0002839341846
0.3008413056 	1.874522025 	0.4043550247 	-0.0003020436241
0.3010504885 	1.94502649 	0.4194497255 	-0.0003194048377
0.3012596621 	2.00964554 	0.4332663082 	-0.0003360362437
0.3014688252 	2.068971535 	0.4459324043 	-0.0003518837802
0.3016779767 	2.12405891 	0.4576748642 	-0.0003669621687
0.3018871155 	2.175893687 	0.468705379 	-0.0003815029771
0.3020962405 	2.224951373 	0.4791257199 	-0.0003956742386
0.3023053504 	2.271405751 	0.4889735775 	-0.000409494102
0.3025144442 	2.315378406 	0.4982754974 	-0.0004229577233
0.3027235208 	2.356973547 	0.5070541905 	-0.000436024778
0.3029325789 	2.396269223 	0.5153266857 	-0.0004409858404
0.3031416175 	2.433307128 	0.5231016848 	-0.0004357075953
0.3033506355 	2.468107228 	0.5303828428 	-0.0004295037558
0.3035596318 	2.500694209 	0.537174535 	-0.0004224578197
0.3037686051 	2.535175968 	0.544331106 	-0.0004147223716
0.3040932534 	2.574361981 	0.5524029937 	-0.0004012158863
0.3044239396 	2.613109278 	0.5603131773 	-0.0003860014657
0.3047607701 	2.647471359 	0.5672351925 	-0.0003691111948
0.3051038528 	2.677363483 	0.5731474911 	-0.000350747699
0.3054532974 	2.702748519 	0.5780493515 	-0.0003314325039
0.3058092146 	2.723736435 	0.5819516478 	-0.0003112832556
0.306171717 	2.740739019 	0.5849162871 	-0.0002916018555
0.3065409184 	2.754455978 	0.5871317077 	-0.0002736070671
0.306916934 	2.765592449 	0.5887848537 	-0.0002561720179
0.3072998807 	2.774666073 	0.5899556786 	-0.0002389723324
0.3076898765 	2.78204757 	0.5907152187 	-0.0002223356586
0.3080870409 	2.788044634 	0.5911459999 	-0.0002061118487
0.3084914948 	2.792937583 	0.5913119068 	-0.0001902518189
0.3089033604 	2.796970596 	0.5912683758 	-0.0001746371854
0.3093227611 	2.800338474 	0.5910585548 	-0.0001591583695
0.3097498216 	2.803187447 	0.5907150465 	-0.000143736123
0.310184668 	2.805626067 	0.5902624647 	-0.0001283103804
0.3106274272 	2.807735468 	0.5897191327 	-0.0001128399192
0.3110782274 	2.809576847 	0.589098793 	-9.729760525e-05
0.311537198 	2.811196812 	0.5884118805 	-8.166588098e-05
0.3120044692 	2.812631209 	0.5876663919 	-6.593399282e-05
0.3124801721 	2.813907853 	0.586868508 	-5.009615581e-05
0.3129644388 	2.815048505 	0.586023021 	-3.415028906e-05
0.313457402 	2.816071026 	0.5851329495 	-1.80971081e-05
0.3139606955 	2.816995549 	0.5841938628 	-1.889067537e-06
0.3140196842 	2.817089461 	0.5840825326 	-7.763653231e-06
0.3144864039 	2.817831627 	0.5832052596 	-1.457362639e-05
0.3150214844 	2.81858159 	0.5821721165 	-3.112103304e-05
0.3155662914 	2.819247538 	0.5811015128 	-4.779667206e-05
0.3161209968 	2.819835243 	0.579994548 	-6.459748589e-05
0.3166857751 	2.820349146 	0.5788520137 	-8.151948999e-05
0.3172608041 	2.82079257 	0.5776745049 	-9.85582698e-05
0.3178462644 	2.821168039 	0.5764623751 	-0.000115708209
0.3184423396 	2.821479161 	0.5752160838 	-0.0001329660331
0.3190492165 	2.821732016 	0.5739368216 	-0.0001503370164
0.3196670849 	2.821932418 	0.5726259196 	-0.0001678230172
0.320296138 	2.822083468 	0.5712839756 	-0.0001854126975
0.3209365718 	2.822186438 	0.5699110301 	-0.0002030941344
0.3215885862 	2.822242122 	0.5685070209 	-0.000220861585
0.3222523839 	2.822251345 	0.5670719391 	-0.0002387106282
0.3229281712 	2.822215086 	0.5656058226 	-0.0002566362611
0.3236161579 	2.822134474 	0.5641087473 	-0.0002746338643
0.3243165573 	2.822010779 	0.5625808306 	-0.0002926991407
0.3250295861 	2.821845399 	0.5610222298 	-0.0003108279591
0.3257554648 	2.821639841 	0.5594331374 	-0.0003215959023
0.3264944175 	2.8213957 	0.5578137756 	-0.0002999501835
0.3272466721 	2.821114637 	0.5561643963 	-0.0002782158371
0.3280124601 	2.82079835 	0.5544852692 	-0.0002563991062
0.3287920171 	2.820448561 	0.5527766285 	-0.0002345059614
0.3295855824 	2.820065379 	0.5510330157 	-0.0002125379322
0.3304044215 	2.819647383 	0.5492407629 	-0.0001901908316
0.3312516186 	2.819195287 	0.5473982897 	-0.0001674094791
0.3321139468 	2.818712887 	0.5455198445 	-0.000144586107
0.3329916665 	2.818203821 	0.5436127796 	-0.0001217313603
0.3338850422 	2.817669553 	0.5416773892 	-9.885147945e-05
0.3347943428 	2.817111411 	0.5397139267 	-7.595296669e-05
0.3357198416 	2.816530574 	0.5377226203 	-5.304264705e-05
0.3366618167 	2.815928078 	0.5357036473 	-3.012771945e-05
0.3376205503 	2.815304823 	0.5336571817 	-7.215816124e-06
0.3379264957 	2.815103128 	0.5330066135 	-4.229606571e-05
0.338594552 	2.814656401 	0.531588055 	-1.536909955e-05
0.3395850516 	2.813889302 	0.5292363048 	-3.776450236e-05
0.3411037153 	2.812946219 	0.526302699 	-7.138375736e-05
0.3426370071 	2.811882692 	0.5231027662 	-0.0001043424058
0.3441850697 	2.810797682 	0.5198964381 	-0.0001366681969
0.3457480479 	2.809684473 	0.5166644131 	-0.0001683465214
0.3473669816 	2.808538131 	0.513381823 	-0.0002002467867
0.3490055772 	2.807363523 	0.5100706241 	-0.0002315143298
0.3506597448 	2.806169691 	0.5067537397 	-0.0002620627919
0.3523296368 	2.804957892 	0.5034335525 	-0.0002294012282
0.3540154081 	2.803728424 	0.5001103217 	-0.0001943930549
0.3557172157 	2.802481483 	0.4967843182 	-0.0001601060933
0.3574352186 	2.801217193 	0.4934557815 	-0.0001265426859
0.3591695786 	2.799935653 	0.4901247977 	-9.370502184e-05
0.3609204596 	2.798630468 	0.4867777217 	-6.159180443e-05
0.3627191701 	2.797294142 	0.4833911411 	-2.962677872e-05
0.3644419757 	2.796009968 	0.4801773666 	-1.333148524e-05
0.3645511443 	2.795927701 	0.4799739255 	-1.827011247e-06
0.3663965782 	2.794529817 	0.476554374 	-3.20281974e-05
0.3682594268 	2.793114187 	0.4731342199 	-6.145364023e-05
0.3701398671 	2.791680726 	0.4697136303 	-9.010371271e-05
0.3720380791 	2.790229318 	0.4662927837 	-0.0001179791341
0.3739542458 	2.78875986 	0.4628717473 	-0.0001450809949
0.3758885531 	2.787267455 	0.4594413037 	-0.0001714044192
0.3778638087 	2.785743074 	0.4559797457 	-0.0001972762061
0.379884383 	2.784185864 	0.4524857615 	-0.000195666905
0.3819238389 	2.782604079 	0.4489825103 	-0.0001652353915
0.3839823744 	2.781003134 	0.4454813972 	-0.0001356490371
0.3860601911 	2.779382867 	0.4419825542 	-0.0001069040985
0.3881574941 	2.777743096 	0.4384860807 	-7.899650315e-05
0.390274492 	2.776082461 	0.43498979 	-5.192131567e-05
0.3924170564 	2.774390335 	0.4314742993 	-2.559759199e-05
0.3945853924 	2.772691372 	0.4279852331 	-4.142336771e-06
0.3946244435 	2.77266052 	0.4279224088 	-4.495457802e-07
0.3968485406 	2.770890995 	0.424359038 	-2.535568237e-05
0.3990933791 	2.769100868 	0.4207997341 	-4.940694069e-05
0.4013591875 	2.767289963 	0.4172445824 	-7.261098841e-05
0.4036461983 	2.765458097 	0.4136935671 	-9.497592105e-05
0.4059546488 	2.763600029 	0.4101384606 	-0.0001165058737
0.4083080945 	2.761705925 	0.4065599239 	-0.0001374409458
0.4107109084 	2.759774835 	0.402956861 	-0.000157781736
0.4131360043 	2.757815802 	0.3993500037 	-0.0001463047774
0.4155836376 	2.755834487 	0.3957495002 	-0.000122148115
0.418054069 	2.753830698 	0.3921552935 	-9.886639321e-05
0.4205475644 	2.751799995 	0.3885609469 	-7.644541958e-05
0.4230837798 	2.749732205 	0.3849486916 	-5.469397503e-05
0.4256746989 	2.747625102 	0.3813144478 	-3.353936566e-05
0.4282895784 	2.745487634 	0.3776777781 	-1.327674823e-05
0.430085928 	2.744016882 	0.3752071437 	-7.639205972e-05
0.4309275931 	2.743323764 	0.374048998 	-6.083050618e-06
0.4335878205 	2.741130643 	0.3704271727 	-2.454549151e-05
0.4362729455 	2.738904805 	0.3668009311 	-4.218184985e-05
0.4390226095 	2.736637003 	0.3631526594 	-5.928152288e-05
0.4418080164 	2.734331893 	0.3594938747 	-7.559985571e-05
0.4446192947 	2.731999492 	0.3558414435 	-9.107953426e-05
0.447456771 	2.729641806 	0.3521984768 	-0.0001057405154
0.4503207787 	2.727252044 	0.3485562931 	-0.0001195963032
0.4532413803 	2.724820633 	0.344899203 	-0.0001059335984
0.4562076383 	2.722349201 	0.3412317029 	-8.833293739e-05
0.4592014673 	2.719847172 	0.337569719 	-7.157295805e-05
0.4622232313 	2.717318329 	0.3339186402 	-5.563513397e-05
0.4652733019 	2.714754291 	0.330268349 	-4.049509258e-05
0.4683888986 	2.712145966 	0.3266040997 	-2.594623709e-05
0.4715430232 	2.709497924 	0.3229354881 	-1.215366844e-05
0.4745135296 	2.706998975 	0.3195210837 	-1.608713505e-05
0.4747263845 	2.706819255 	0.3192762047 	-8.551844881e-07
0.4779369786 	2.704104653 	0.3156224932 	-1.316932285e-05
0.4811902733 	2.701349523 	0.3119652753 	-2.480966514e-05
0.4845059799 	2.698549797 	0.3082986887 	-3.584983841e-05
0.487852787 	2.695713762 	0.3046365586 	-4.616192472e-05
0.4912311382 	2.692847669 	0.3009869729 	-5.577361007e-05
0.4946429456 	2.689942061 	0.2973396132 	-6.471195593e-05
0.498127308 	2.68698898 	0.2936828803 	-7.311282639e-05
0.5016444901 	2.683996008 	0.2900296294 	-8.0841837e-05
0.5051949766 	2.680971229 	0.2863898726 	-7.444097696e-05
0.508780257 	2.677905711 	0.282754433 	-6.369364047e-05
0.5124376631 	2.674791544 	0.2791126876 	-5.348252356e-05
0.5161297417 	2.671635859 	0.2754760331 	-4.392873289e-05
0.5198570229 	2.668444557 	0.2718518958 	-3.500675204e-05
0.523628147 	2.665209333 	0.2682317225 	-2.666580377e-05
0.527463351 	2.661925389 	0.2646100638 	-1.885069698e-05
0.5313352305 	2.658599454 	0.2609966144 	-1.161992837e-05
0.5352443644 	2.655232474 	0.2573935548 	-4.944761369e-06
0.5383963734 	2.652518799 	0.2545321921 	-4.780207756e-05
0.5392111012 	2.651816218 	0.2537918915 	-1.264718734e-06
0.5432275581 	2.648350182 	0.2501914694 	-7.067024012e-06
0.5472829419 	2.644841273 	0.2466021076 	-1.236784472e-05
0.5513827524 	2.64128485 	0.2430201562 	-1.720332019e-05
0.5555477881 	2.637675442 	0.2394402897 	-2.16159902e-05
0.5597534302 	2.634018439 	0.2358699847 	-2.558016675e-05
0.5640003478 	2.630313117 	0.23231001 	-2.912439289e-05
0.5683125441 	2.626552279 	0.2287536077 	-3.229684945e-05
0.5726708226 	2.622738947 	0.2252055359 	-3.508123415e-05
0.5770721925 	2.618874036 	0.2216683563 	-3.750078396e-05
0.5815342978 	2.614951535 	0.2181370763 	-3.959364706e-05
0.5860479421 	2.610972131 	0.2146138387 	-4.13585581e-05
0.5906065957 	2.606936604 	0.2111012319 	-4.281418497e-05
0.5952251617 	2.60283997 	0.2075956978 	-3.98909066e-05
0.5998973013 	2.598681945 	0.2040985737 	-3.609356407e-05
0.6046164761 	2.594462462 	0.2006118553 	-3.261918621e-05
0.6093972599 	2.590176695 	0.1971324924 	-2.943539775e-05
0.6142314654 	2.585824589 	0.1936621873 	-2.654149377e-05
0.6191148444 	2.581404972 	0.1902020624 	-2.391852733e-05
0.6240630691 	2.57691256 	0.1867490258 	-2.153966128e-05
0.6290633844 	2.572347608 	0.1833054065 	-1.940381669e-05
0.6341176252 	2.567708001 	0.1798714866 	-1.748826337e-05
0.6392357207 	2.563001545 	0.1764538364 	-1.577848404e-05
0.6443496457 	2.558268224 	0.1730828166 	-1.428060198e-05
0.6494093653 	2.553546349 	0.1697846608 	-1.29798484e-05
0.6544153788 	2.548847326 	0.1665647515 	-1.18595635e-05
0.6593628846 	2.54417122 	0.1634211953 	-1.089749016e-05
0.6642601772 	2.539515756 	0.1603500004 	-1.007087861e-05
0.6691026176 	2.534881193 	0.1573493849 	-9.368977129e-06
0.6738891066 	2.530267046 	0.1544172747 	-8.773621419e-06
0.6786277074 	2.525670733 	0.1515498791 	-8.270455421e-06
0.6833120008 	2.521093046 	0.1487460911 	-7.851760823e-06
0.6879431659 	2.516533428 	0.1460039271 	-7.503781502e-06
0.6925268012 	2.511989648 	0.1433202088 	-7.217956153e-06
0.697058177 	2.507462311 	0.1406939019 	-6.988147242e-06
0.701538554 	2.502950786 	0.1381231661 	-6.804502342e-06
0.7059722417 	2.4984532 	0.1356053629 	-6.661585217e-06
0.7103557504 	2.49397 	0.1331395109 	-6.555105118e-06
0.7146898764 	2.489500598 	0.1307240148 	-6.478059735e-06
0.7189786441 	2.485043248 	0.128356562 	-6.426506964e-06
0.72321917 	2.480598185 	0.1260361847 	-6.39804716e-06
0.7274121495 	2.476165055 	0.1237616205 	-6.387688815e-06
0.7315603692 	2.471742386 	0.1215309226 	-6.392225993e-06
0.7356626389 	2.467329945 	0.1193429791 	-6.410723779e-06
0.7397191247 	2.462927533 	0.1171967908 	-6.439749769e-06
0.7437314537 	2.458534065 	0.1150907943 	-6.47653312e-06
0.7477000423 	2.454148861 	0.1130237545 	-6.52089964e-06
0.7516245074 	2.449771833 	0.1109948504 	-6.570824002e-06
0.7555055586 	2.445402258 	0.1090028779 	-6.624076923e-06
0.7593448937 	2.44103911 	0.1070465371 	-6.680206173e-06
0.7631416759 	2.436682203 	0.1051250398 	-6.738705978e-06
0.7668964541 	2.432331196 	0.1032375433 	-6.798001867e-06
0.7706102984 	2.427985167 	0.1013829035 	-6.856978561e-06
0.7742836007 	2.423643461 	0.0995601956 	-6.916064434e-06
0.7779163576 	2.419305798 	0.09776872978 	-6.974435433e-06
0.7815090748 	2.414971589 	0.0960076508 	-7.031114947e-06
0.7850628227 	2.41063998 	0.09427600071 	-7.085794983e-06
0.7885775598 	2.406310509 	0.09257306216 	-7.138874051e-06
0.7920536207 	2.401982887 	0.09089821508 	-7.189714595e-06
0.7954914742 	2.397656527 	0.08925068407 	-7.237727505e-06
0.7988920361 	2.393330709 	0.08762967128 	-7.282993714e-06
0.8022552571 	2.389005039 	0.08603457659 	-7.325839635e-06
0.8055815523 	2.384679192 	0.08446484225 	-7.36587364e-06
0.8088713591 	2.380352573 	0.08291980319 	-7.402751445e-06
0.8121254 	2.376024471 	0.0813987826 	-7.436599991e-06
0.8153437808 	2.371694377 	0.07990123927 	-7.46779112e-06
0.818526883 	2.367361868 	0.07842667035 	-7.496099334e-06
0.8216751167 	2.363026399 	0.07697451837 	-7.521325553e-06
0.8247890302 	2.35868734 	0.07554420523 	-7.348172668e-06
0.8278689088 	2.354344168 	0.07413523116 	-6.990080582e-06
0.8309150649 	2.349996473 	0.07274715351 	-6.645968992e-06
0.8339278849 	2.345643806 	0.07137950908 	-6.315451212e-06
0.8369077818 	2.341285571 	0.07003180983 	-5.998121361e-06
0.8398551864 	2.336921087 	0.06870358844 	-5.693225541e-06
0.8427703435 	2.332549721 	0.06739444475 	-5.400247405e-06
0.8456536179 	2.328170821 	0.06610397345 	-5.118830567e-06
0.8485053691 	2.323783649 	0.06483176357 	-4.848615447e-06
0.8513259985 	2.319387404 	0.06357739265 	-4.589179796e-06
0.8541158245 	2.31498132 	0.0623404741 	-4.339877615e-06
0.8568751499 	2.310564743 	0.06112066248 	-4.100352776e-06
0.8596043157 	2.306137063 	0.05991760308 	-3.870293595e-06
0.8623036579 	2.301697626 	0.05873095057 	-3.64939477e-06
0.8649735387 	2.297245673 	0.05756035081 	-3.437294326e-06
0.8676142563 	2.292780362 	0.05640547568 	-3.233483152e-06
0.8702261138 	2.288300794 	0.05526602139 	-3.037669554e-06
0.8728094309 	2.283805983 	0.05414167196 	-2.84958543e-06
0.8753645232 	2.279294847 	0.05303212271 	-2.668968788e-06
0.8778917136 	2.274766211 	0.05193706146 	-2.495543816e-06
0.8803913039 	2.27021886 	0.0508561917 	-2.32890082e-06
0.8828635786 	2.265651604 	0.04978924367 	-2.168776059e-06
0.8853088386 	2.261063253 	0.04873594351 	-2.014949342e-06
0.8877273808 	2.256452545 	0.04769602566 	-1.867206853e-06
0.8901194985 	2.251818075 	0.04666922814 	-1.725340029e-06
0.8924854916 	2.24715825 	0.04565528582 	-1.589081277e-06
0.8948256282 	2.242471318 	0.04465395192 	-1.458143729e-06
0.8971401902 	2.237755418 	0.04366498826 	-1.332342899e-06
0.8994294574 	2.233008606 	0.04268815306 	-1.211500834e-06
0.9016937066 	2.228228891 	0.04172321582 	-1.095446096e-06
0.9039332112 	2.223414247 	0.04076994696 	-9.840136883e-07
0.9061482457 	2.218562584 	0.03982811669 	-8.76988856e-07
0.9083390664 	2.213671706 	0.03889750836 	-7.741689634e-07
0.9105059379 	2.208739184 	0.03797790582 	-6.754140294e-07
0.9126491213 	2.203762181 	0.03706908767 	-5.805891773e-07
0.9147688751 	2.1987373 	0.03617083625 	-4.895636238e-07
0.9168654547 	2.193660529 	0.03528293778 	-4.022096068e-07
0.9189391137 	2.188527323 	0.0344051784 	-3.183831549e-07
0.9209900976 	2.183332851 	0.03353736051 	-2.379101273e-07
0.9230186522 	2.178072327 	0.03267930379 	-1.606725013e-07
0.9250250218 	2.17274128 	0.03183083427 	-8.656080616e-08
0.9270094481 	2.167335647 	0.03099178846 	-1.547165719e-08
0.9274494615 	2.166106196 	0.03080575967 	-8.779946917e-06
0.9289721259 	2.161851936 	0.03016188757 	-4.750744176e-08
0.930913326 	2.156285949 	0.02934106139 	-1.065407822e-07
0.9328332949 	2.150632836 	0.02852916676 	-1.632642917e-07
0.9347322611 	2.144886409 	0.02772601628 	-2.177766244e-07
0.9366104529 	2.139038586 	0.02693140874 	-2.701474988e-07
0.9384680962 	2.133079196 	0.02614512745 	-3.204428056e-07
0.9403054147 	2.12699612 	0.02536694886 	-3.68724497e-07
0.9421226292 	2.120775656 	0.02459664408 	-4.1505104e-07
0.9439199583 	2.114402873 	0.02383397874 	-4.59479001e-07
0.9456976183 	2.107861633 	0.02307870346 	-5.020705786e-07
0.9474558218 	2.101134038 	0.0223305569 	-5.429063425e-07
0.9491947802 	2.094199168 	0.0215892285 	-5.820597656e-07
0.9509147027 	2.087647282 	0.02091619179 	-6.20254868e-07
0.9520351458 	2.082177396 	0.02037507943 	-6.434138734e-07
0.9531349824 	2.077238982 	0.01990319253 	-6.66333204e-07
0.9542145905 	2.072199054 	0.01943876354 	-6.883942667e-07
0.955274341 	2.067040528 	0.01898158064 	-7.096247429e-07
0.9563145981 	2.061750773 	0.01853148534 	-7.300475305e-07
0.9573357195 	2.056322013 	0.01808838974 	-7.49675232e-07
0.9583380563 	2.050750634 	0.01765224483 	-7.685125867e-07
0.9593219528 	2.045035865 	0.01722301183 	-7.865634499e-07
0.9602877474 	2.03917832 	0.01680064034 	-8.038298141e-07
0.9612357723 	2.033178772 	0.01638505381 	-8.203141377e-07
0.9621663535 	2.027037386 	0.01597614606 	-8.360236166e-07
0.9630798113 	2.020753395 	0.01557378536 	-8.509706687e-07
0.9639764599 	2.014325141 	0.01517782198 	-8.65172112e-07
0.9648566079 	2.007750317 	0.01478809676 	-8.786475013e-07
0.9657205583 	2.001026255 	0.01440444861 	-8.914171501e-07
0.9665686084 	1.994150178 	0.01402671985 	-9.035002846e-07
0.9674010502 	1.987119351 	0.01365475925 	-9.149136227e-07
0.9682181703 	1.979931138 	0.0132884231 	-9.256704945e-07
0.9690202501 	1.972582966 	0.01292757516 	-9.35780477e-07
0.9698075659 	1.965072246 	0.01257208586 	-9.452494299e-07
0.9705803887 	1.95739626 	0.01222183154 	-9.540797783e-07
0.9713389849 	1.949552055 	0.01187669384 	-9.622708992e-07
0.9720836157 	1.941536331 	0.01153655877 	-9.698196024e-07
0.9728145378 	1.933345353 	0.0112013172 	-9.767215504e-07
0.9735320029 	1.924974864 	0.01087086527 	-9.829691725e-07
0.9742362583 	1.916420013 	0.01054510385 	-9.885523423e-07
0.9749275468 	1.907675272 	0.01022393939 	-9.934587519e-07
0.9756061067 	1.89873436 	0.009907284371 	-9.97673805e-07
0.9762721718 	1.88959015 	0.009595057694 	-1.001180467e-06
0.9769259719 	1.880234577 	0.009287185135 	-1.00395911e-06
0.9775677324 	1.870658532 	0.008983599754 	-1.005987377e-06
0.9781976746 	1.860851749 	0.008684242314 	-1.007240089e-06
0.9788160158 	1.850802679 	0.008389061669 	-1.007689212e-06
0.9794229692 	1.84049837 	0.008098015154 	-1.00730386e-06
0.9800187442 	1.829924322 	0.007811068942 	-1.006050337e-06
0.9806035464 	1.819064354 	0.007528198394 	-1.003892158e-06
0.9811775775 	1.807900456 	0.007249388376 	-1.000790076e-06
0.9817410356 	1.796412641 	0.006974633544 	-9.967021723e-07
0.9822941152 	1.784578792 	0.006703938558 	-9.915842069e-07
0.982837007 	1.772374512 	0.006437318217 	-9.853905635e-07
0.9833698985 	1.759772968 	0.006174797442 	-9.780761017e-07
0.9838929737 	1.74674474 	0.005916411084 	-9.695989806e-07
0.984406413 	1.733257669 	0.005662203554 	-9.599237823e-07
0.9849103937 	1.71927671 	0.005412228372 	-9.490230625e-07
0.9854050899 	1.70476378 	0.005166547691 	-9.368735051e-07
0.9858906724 	1.689677585 	0.004925232364 	-9.234440423e-07
0.9863673087 	1.673973426 	0.004688362799 	-9.086813672e-07
0.9868351636 	1.657602992 	0.004456029101 	-8.925120015e-07
0.9872943985 	1.640514189 	0.004228331172 	-8.748672811e-07
0.9877451722 	1.622650992 	0.004005376679 	-8.557181047e-07
0.9881876403 	1.603953301 	0.003787276116 	-8.350853866e-07
0.9886219556 	1.584356739 	0.003574144101 	-8.130042677e-07
0.9890482682 	1.563792469 	0.003366102302 	-7.895113473e-07
0.9894667254 	1.542187154 	0.003163274499 	-7.646567683e-07
0.9898774718 	1.519463029 	0.002965783715 	-7.384921005e-07
0.9902806492 	1.495538048 	0.00277375798 	-7.110716509e-07
0.990676397 	1.470326138 	0.002587333467 	-6.824629153e-07
0.991064852 	1.443737589 	0.002406572029 	-6.527577683e-07
0.9914461484 	1.415679365 	0.002231225821 	-6.220946601e-07
0.991820418 	1.388649909 	0.002076024817 	-5.935604581e-07
0.9920613004 	1.365660681 	0.001954128832 	-5.693116542e-07
0.992302186 	1.344405267 	0.001848468261 	-5.477198132e-07
0.9925430745 	1.32208452 	0.001744013148 	-5.256502399e-07
0.9927839662 	1.298628348 	0.001641032703 	-5.031377234e-07
0.9930248609 	1.27394645 	0.001539627166 	-4.802866902e-07
0.9932657586 	1.247926462 	0.001439874907 	-4.571324098e-07
0.9935066594 	1.220460502 	0.001341920965 	-4.336325404e-07
0.9937475633 	1.191453821 	0.001245928274 	-4.098059117e-07
0.9939884702 	1.160811605 	0.001152037699 	-3.857047193e-07
0.9942293802 	1.128433317 	0.001060395157 	-3.613787827e-07
0.9944702932 	1.094211833 	0.0009711493595 	-3.368937168e-07
0.9947112093 	1.058034073 	0.0008844506706 	-3.12325152e-07
0.9949521284 	1.01978245 	0.0008004532694 	-2.877558995e-07
0.9951930506 	0.9793371132 	0.0007193222021 	-2.632763675e-07
0.9954339759 	0.9365790207 	0.0006412333905 	-2.390052552e-07
0.9956749042 	0.8913939583 	0.0005662416261 	-2.15062361e-07
0.9959158356 	0.8436775493 	0.0004943157024 	-1.914264878e-07
0.99615677 	0.7933411429 	0.0004263585192 	-1.663565815e-07
0.9963977075 	0.7403202744 	0.0003748852492 	-1.47216056e-07
0.996638648 	0.6845817714 	0.0003099277787 	-1.296457003e-07
0.9968795916 	0.6260798208 	0.0002237814441 	-1.015251471e-07
0.9971205383 	0.5647635303 	0.0001803734296 	-7.940118703e-08
0.997361488 	0.5007241356 	0.0001591509535 	-6.597442195e-08
0.9976024408 	0.4342323352 	0.0001241982908 	-5.117213046e-08
0.9978433966 	0.365641209 	9.013155347e-05 	-3.740115621e-08
0.9980843555 	0.295295867 	5.84082118e-05 	-2.480537242e-08
0.9983253174 	0.2234539427 	3.23431974e-05 	-1.417627174e-08
0.9985662824 	0.1502596033 	1.432782734e-05 	-6.357042082e-09
0.9988072505 	0.07576989073 	-1.936639612e-06 	-1.506016013e-09
0.9990482216 	0.03171648052 	-9.427948276e-06 	1.797189646e-10
0.9990482216 	0.03171648052 	-9.427948276e-06 	1.797189646e-10
