0.4709558481 	0.02350824739 	1.880050735e-08 	-1.572557303e-13
0.4709558481 	0.02350824739 	1.880050735e-08 	-1.572557303e-13
0.4711314108 	0.06464154278 	4.412202865e-08 	-9.318201295e-13
0.4713069734 	0.1292122069 	-1.303023865e-07 	-2.132676969e-12
0.471482536 	0.1936997421 	-1.079074992e-06 	-1.631327074e-12
0.4716580986 	0.2580558113 	-3.278093971e-06 	1.158214064e-12
0.4718336613 	0.3221626184 	-6.130010821e-06 	1.082629463e-12
0.4720092239 	0.3857984151 	-7.515716162e-06 	-9.847344484e-12
0.4721847865 	0.4486290036 	-5.455207086e-06 	-3.293054072e-11
0.4723603491 	0.5102449491 	-3.629871602e-07 	-6.337279052e-11
0.4725359118 	0.5702373873 	7.919131507e-06 	-2.108899247e-10
0.4727114744 	0.6282763109 	2.963699662e-05 	-1.35684456e-10
0.472887037 	0.684164769 	2.834812236e-05 	9.692884035e-11
0.4730625996 	0.7378859498 	-3.964748476e-06 	-7.131287666e-11
0.4732381623 	0.7895277226 	-4.613720417e-06 	-1.992742744e-10
0.4734137249 	0.839139529 	9.654752023e-06 	-1.386817821e-10
0.4735892875 	0.8867428721 	1.007059551e-05 	-1.557376274e-10
0.4737648501 	0.9323823551 	1.048152058e-05 	-1.779179374e-10
0.4739404128 	0.9761203136 	1.1419431e-05 	-2.000049921e-10
0.4741159754 	1.018029831 	1.257295264e-05 	-2.226068225e-10
0.474291538 	1.058190879 	1.379894619e-05 	-2.465273739e-10
0.4744671006 	1.096686859 	1.509772853e-05 	-2.717496164e-10
0.4746426632 	1.13360179 	1.646538355e-05 	-2.982481052e-10
0.4748182259 	1.16901807 	1.789350762e-05 	-3.260307902e-10
0.4749937885 	1.203014669 	1.937470913e-05 	-3.551055376e-10
0.4751693511 	1.235665819 	2.090258955e-05 	-3.854531375e-10
0.4753449137 	1.267040915 	2.2470692e-05 	-4.170501718e-10
0.4755204764 	1.297208949 	2.407451629e-05 	-4.500310121e-10
0.475696039 	1.326244415 	2.570952722e-05 	-4.844506355e-10
0.4758716016 	1.35422158 	2.741701777e-05 	-5.201833896e-10
0.4760471642 	1.381204289 	2.944874023e-05 	-5.575681356e-10
0.4762227269 	1.410789945 	3.181927802e-05 	-6.019170659e-10
0.4764955107 	1.446158022 	3.399336596e-05 	-6.5887318e-10
0.4767734216 	1.48359345 	3.640197305e-05 	-7.253592873e-10
0.4770565557 	1.519809776 	3.94660903e-05 	-7.973149145e-10
0.4773450114 	1.554873984 	4.2737309e-05 	-8.744427673e-10
0.4776388886 	1.588849737 	4.613303998e-05 	-9.568514251e-10
0.4779382892 	1.621797903 	4.967424511e-05 	-1.044797463e-09
0.4782433171 	1.653776723 	5.336402912e-05 	-1.138389987e-09
0.4785540779 	1.684841821 	5.720361581e-05 	-1.238047733e-09
0.4788706795 	1.715045826 	6.122191405e-05 	-1.344644796e-09
0.4791932316 	1.744437627 	6.543989776e-05 	-1.458365352e-09
0.4795218461 	1.773061966 	6.984439759e-05 	-1.579133054e-09
0.4798566368 	1.800959832 	7.443060356e-05 	-1.707542742e-09
0.48019772 	1.828169108 	7.921414397e-05 	-1.844214138e-09
0.4805452138 	1.854725026 	8.420843398e-05 	-1.9896041e-09
0.4808992388 	1.880660444 	8.942288808e-05 	-2.144251364e-09
0.4812599177 	1.906006081 	9.486775454e-05 	-2.308737491e-09
0.4816273755 	1.930790717 	0.0001005541273 	-2.483682119e-09
0.4820017397 	1.955041378 	0.0001064937926 	-2.669743895e-09
0.48238314 	1.978783502 	0.0001126992227 	-2.867622189e-09
0.4827717088 	2.002041098 	0.0001191836124 	-3.078058265e-09
0.4831675807 	2.024836884 	0.0001259609108 	-3.301836352e-09
0.4835708931 	2.047192416 	0.0001330458524 	-3.539784624e-09
0.4839817856 	2.069128207 	0.0001404539893 	-3.792776005e-09
0.4844004009 	2.090663829 	0.0001482017252 	-4.061728785e-09
0.4848268841 	2.111818008 	0.0001563063498 	-4.347606932e-09
0.485261383 	2.13260871 	0.0001647860726 	-4.651420074e-09
0.4857040484 	2.153053209 	0.000173660058 	-4.974223031e-09
0.4861550336 	2.173168164 	0.0001829484581 	-5.317114858e-09
0.4866144951 	2.192969664 	0.0001926724454 	-5.681237277e-09
0.4870825921 	2.212473292 	0.0002028542428 	-6.067772447e-09
0.487559487 	2.231694156 	0.0002135171514 	-6.47793996e-09
0.4880453452 	2.250646937 	0.0002246855751 	-6.912992971e-09
0.4885403351 	2.269345915 	0.0002363850401 	-7.374213291e-09
0.4890446283 	2.287804995 	0.0002486422103 	-7.862905443e-09
0.4895583997 	2.306037729 	0.0002614848953 	-8.380389543e-09
0.4900818274 	2.324057332 	0.0002749420521 	-8.927992927e-09
0.4906150929 	2.34187669 	0.0002890437766 	-9.507040403e-09
0.4911583811 	2.35950837 	0.0003038212865 	-1.011884321e-08
0.4917118805 	2.376964617 	0.0003193068914 	-1.076468658e-08
0.4922757829 	2.394257358 	0.0003355339509 	-1.144581594e-08
0.4928502838 	2.411398188 	0.0003525368173 	-1.216342146e-08
0.4934355824 	2.428398363 	0.0003703507618 	-1.291862116e-08
0.4940318817 	2.445268787 	0.0003890118836 	-1.371244254e-08
0.4946393885 	2.462019988 	0.0004085569987 	-1.454580258e-08
0.4952583133 	2.478662098 	0.0004290235077 	-1.541948665e-08
0.4958888709 	2.495204828 	0.0004504492418 	-1.633412696e-08
0.4965312797 	2.511657435 	0.0004728722856 	-1.729018171e-08
0.4971857627 	2.528028685 	0.0004963307782 	-1.828791647e-08
0.4978525466 	2.544326822 	0.0005208626907 	-1.932738885e-08
0.4985318627 	2.560559522 	0.0005465055849 	-2.040843719e-08
0.4992239466 	2.576733852 	0.0005732963519 	-2.153067279e-08
0.4999290382 	2.592856224 	0.0006012709346 	-2.269347348e-08
0.5006473819 	2.608932363 	0.0006304640422 	-2.389597768e-08
0.501379227 	2.624967269 	0.0006609088829 	-2.513708032e-08
0.502124827 	2.640965211 	0.0006926368672 	-2.641543407e-08
0.5028844406 	2.656929761 	0.0007256767464 	-2.772944838e-08
0.5036583311 	2.672863883 	0.0007600533755 	-2.907727221e-08
0.5044467669 	2.688770149 	0.0007957969026 	-3.04569446e-08
0.5052500214 	2.704651083 	0.0008329760787 	-3.186704926e-08
0.506068373 	2.722530026 	0.0008765794537 	-3.348925301e-08
0.507324668 	2.744252236 	0.0009319520527 	-3.549872576e-08
0.5085949819 	2.767557574 	0.0009944647288 	-3.769177153e-08
0.5098794711 	2.790429678 	0.001059126899 	-3.986888097e-08
0.5111782938 	2.812876185 	0.001125771008 	-4.201676323e-08
0.5124916099 	2.834901606 	0.001194164174 	-4.40921373e-08
0.5138195812 	2.856502282 	0.001264113846 	-4.613464923e-08
0.5151623712 	2.877654932 	0.001335689363 	-4.820126753e-08
0.5165201452 	2.898301871 	0.001408561155 	-5.002025257e-08
0.5178930705 	2.918346221 	0.001481869725 	-5.137378535e-08
0.5192813161 	2.937660746 	0.00155485114 	-5.236570996e-08
0.520685053 	2.95610006 	0.001626725399 	-5.299042152e-08
0.522104454 	2.973511465 	0.001696523011 	-5.309564137e-08
0.523539694 	2.989747134 	0.001763169612 	-5.252621894e-08
0.5249909497 	3.004682468 	0.001825374729 	-5.112990386e-08
0.5264583998 	3.018240238 	0.001890675519 	-5.452746336e-08
0.527942225 	3.030430874 	0.001945013004 	-4.776727692e-08
0.5294426081 	3.04142112 	0.001979286951 	-3.843848049e-08
0.5309597337 	3.051474641 	0.002024322195 	-4.918297184e-08
0.5324937889 	3.060772832 	0.002075464216 	-5.047684739e-08
0.5340449624 	3.069380378 	0.002115383599 	-4.384845222e-08
0.5356134452 	3.077321802 	0.002151679655 	-4.473954512e-08
0.5371994306 	3.084616103 	0.002186184843 	-4.420513357e-08
0.5388031139 	3.091281738 	0.00221797092 	-4.341624263e-08
0.5404246925 	3.097340102 	0.002246896931 	-4.246990652e-08
0.5420643661 	3.102816137 	0.002272904942 	-4.140621126e-08
0.5437223366 	3.107737561 	0.002296008167 	-4.028765071e-08
0.5453988083 	3.112133851 	0.002316236934 	-3.911148663e-08
0.5470939875 	3.116035167 	0.0023336462 	-3.796371525e-08
0.5488080831 	3.119471411 	0.002348404156 	-3.687321127e-08
0.5505413061 	3.122472549 	0.002360538574 	-3.56492498e-08
0.5522938699 	3.125072382 	0.002369981173 	-3.445282153e-08
0.5540659904 	3.127311403 	0.002377060619 	-3.351627598e-08
0.5558578859 	3.129232375 	0.002382154725 	-3.268169881e-08
0.5576697768 	3.130874031 	0.002385378391 	-3.189349274e-08
0.5595018865 	3.132269341 	0.002386881917 	-3.120762668e-08
0.5613544406 	3.133446258 	0.002386851934 	-3.060378893e-08
0.563227667 	3.134428526 	0.002385425709 	-3.006595659e-08
0.5651217966 	3.135236378 	0.002382720128 	-2.958586335e-08
0.5670370626 	3.135887113 	0.002378836123 	-2.915644291e-08
0.5689737009 	3.136395578 	0.002373861041 	-2.877135584e-08
0.5709319499 	3.136774558 	0.002367870489 	-2.842500931e-08
0.5729120508 	3.137035103 	0.002360930164 	-2.811273994e-08
0.5749142474 	3.137186793 	0.00235309613 	-2.782885821e-08
0.5769387863 	3.137237962 	0.002344420081 	-2.757290572e-08
0.5789859169 	3.137195903 	0.00233494375 	-2.734120397e-08
0.5810558911 	3.137066971 	0.002324704031 	-2.71287808e-08
0.583148964 	3.136856712 	0.002313735735 	-2.693483491e-08
0.5852653933 	3.136570027 	0.002302066056 	-2.675600356e-08
0.5874054395 	3.136211234 	0.002289720372 	-2.659073246e-08
0.5895693664 	3.135784139 	0.002276720408 	-2.643736882e-08
0.5917574402 	3.135292108 	0.002263085036 	-2.629444162e-08
0.5939699306 	3.134738114 	0.002248830578 	-2.616061773e-08
0.5962071099 	3.134124789 	0.002233971072 	-2.603468544e-08
0.5984692536 	3.133454463 	0.002218518502 	-2.59155357e-08
0.6007566404 	3.132729195 	0.002202482992 	-2.580215446e-08
0.6030695519 	3.131950805 	0.002185872971 	-2.569360797e-08
0.6054082729 	3.131120896 	0.002168695315 	-2.558901354e-08
0.6077730914 	3.13024088 	0.002150955469 	-2.548750148e-08
0.6101642987 	3.129311991 	0.002132657558 	-2.53882287e-08
0.6125821893 	3.128335304 	0.002113804469 	-2.529042032e-08
0.6150270608 	3.127311749 	0.002094397932 	-2.519336513e-08
0.6174992144 	3.126242122 	0.002074438582 	-2.509638627e-08
0.6199989545 	3.125127095 	0.002053926013 	-2.499883354e-08
0.622526589 	3.123967226 	0.002032858832 	-2.490008631e-08
0.625082429 	3.122762967 	0.002011234703 	-2.479954012e-08
0.6276667894 	3.121514671 	0.001989050385 	-2.469656499e-08
0.6302799884 	3.120222599 	0.001966301762 	-2.459048318e-08
0.6329223478 	3.118886921 	0.001942983875 	-2.448064384e-08
0.6355941931 	3.11750773 	0.001919090959 	-2.436648115e-08
0.6382958531 	3.116085036 	0.001894616471 	-2.424746386e-08
0.6410276607 	3.114618778 	0.001869553122 	-2.412304454e-08
0.6437899523 	3.113108824 	0.001843892903 	-2.399266525e-08
0.646583068 	3.111554975 	0.001817627112 	-2.385576542e-08
0.6494073518 	3.109956969 	0.001790746391 	-2.371178293e-08
0.6522631514 	3.108314484 	0.001763240749 	-2.356015645e-08
0.6551508186 	3.106627139 	0.001735099606 	-2.340032683e-08
0.658070709 	3.104894496 	0.001706311826 	-2.3231738e-08
0.6610231822 	3.103116069 	0.001676865757 	-2.305383759e-08
0.6640086017 	3.101291316 	0.001646749282 	-2.286607748e-08
0.6670273351 	3.099419651 	0.001615949864 	-2.266791455e-08
0.6700797543 	3.09750044 	0.001584454603 	-2.245881154e-08
0.6731662352 	3.095533003 	0.001552250296 	-2.223823807e-08
0.6762871577 	3.093516621 	0.001519323504 	-2.200567184e-08
0.6794429063 	3.091450531 	0.001485660624 	-2.176059987e-08
0.6826338695 	3.089333932 	0.001451247972 	-2.150251977e-08
0.6858604404 	3.087165984 	0.001416071868 	-2.123094099e-08
0.6891230163 	3.084945809 	0.001380118735 	-2.094538597e-08
0.6924219988 	3.082672492 	0.001343375203 	-2.064539103e-08
0.6957577944 	3.080345081 	0.00130582822 	-2.033050707e-08
0.6991308138 	3.077962586 	0.001267465178 	-2.000029977e-08
0.7025414724 	3.075523977 	0.001228274046 	-1.965434929e-08
0.7059901901 	3.073028183 	0.001188243508 	-1.929224925e-08
0.7094773917 	3.070474089 	0.001147363117 	-1.891360493e-08
0.7130035066 	3.067860531 	0.001105623456 	-1.851803036e-08
0.7165689691 	3.06518629 	0.001063016307 	-1.810514448e-08
0.7201742182 	3.062450088 	0.001019534837 	-1.767456589e-08
0.7238196978 	3.059650575 	0.0009751738097 	-1.722590618e-08
0.727505857 	3.056786321 	0.0009299298659 	-1.675875179e-08
0.7312331497 	3.053855803 	0.0008838011434 	-1.627266248e-08
0.7350020349 	3.050865407 	0.0008369129314 	-1.576855774e-08
0.7387709215 	3.047839647 	0.0007896760994 	-1.525056683e-08
0.7424982157 	3.044804129 	0.0007425147998 	-1.472322436e-08
0.7461843763 	3.041767291 	0.0006955813544 	-1.418822475e-08
0.7498298574 	3.038729491 	0.0006489024021 	-1.364585578e-08
0.7534351078 	3.035690981 	0.0006025045478 	-1.309636451e-08
0.7570005716 	3.032651913 	0.000556413991 	-1.253995172e-08
0.7605266877 	3.029612338 	0.0005106564153 	-1.197677083e-08
0.7640138905 	3.026572207 	0.0004652569362 	-1.140693294e-08
0.7674626093 	3.023531373 	0.0004202400644 	-1.083051157e-08
0.770873269 	3.02048959 	0.0003756296788 	-1.02475478e-08
0.7742462894 	3.01744652 	0.0003314490069 	-9.658055621e-09
0.777582086 	3.014401729 	0.0002877206121 	-9.062027373e-09
0.7808810695 	3.011354695 	0.0002444663881 	-8.459438938e-09
0.7841436462 	3.008304807 	0.0002017075599 	-7.850254671e-09
0.787370218 	3.005251366 	0.0001594646901 	-7.234431918e-09
0.7905611821 	3.002193593 	0.0001177576909 	-6.611924767e-09
0.7937169314 	2.999130626 	7.660584077e-05 	-5.982689317e-09
0.7968378547 	2.996061524 	3.602779365e-05 	-5.346685846e-09
0.7999243362 	2.992985269 	-3.958398074e-06 	-4.703878358e-09
0.8029767561 	2.989900769 	-4.333523616e-05 	-4.054242754e-09
0.8059954902 	2.986806858 	-8.20857735e-05 	-3.397769556e-09
0.8089809102 	2.983702301 	-0.0001201936085 	-2.734460738e-09
0.8119333839 	2.980585789 	-0.0001576428373 	-2.064335147e-09
0.8148532749 	2.977455948 	-0.0001944180315 	-1.38743256e-09
0.8177409426 	2.974311335 	-0.0002305042267 	-7.038153987e-10
0.8205967427 	2.97115044 	-0.0002658869032 	-1.35724884e-11
0.8234210268 	2.967971688 	-0.0003005519707 	6.831768659e-10
0.8262141429 	2.964773439 	-0.0003344857584 	1.386278165e-09
0.8289764348 	2.961553991 	-0.0003676750081 	2.095536231e-09
0.8317082427 	2.958311576 	-0.0004001068739 	2.810708832e-09
0.8344099031 	2.955044366 	-0.0004317689273 	3.531499259e-09
0.8370817486 	2.951750471 	-0.0004626491691 	4.257547692e-09
0.8397241082 	2.948427941 	-0.0004927360496 	4.988421145e-09
0.8423373074 	2.945074768 	-0.0005220184985 	5.723601677e-09
0.844921668 	2.941688887 	-0.0005504859645 	6.462472519e-09
0.8474775082 	2.938268179 	-0.0005781284689 	7.204301644e-09
0.8500051427 	2.934810474 	-0.0006049366724 	7.948222133e-09
0.8525048829 	2.931313555 	-0.0006309019606 	8.693208524e-09
0.8549770366 	2.927775163 	-0.0006560165493 	9.438048117e-09
0.8574219081 	2.924193005 	-0.000680273615 	1.018130596e-08
0.8598397987 	2.920564759 	-0.0007036674554 	1.092128205e-08
0.862231006 	2.916888088 	-0.0007261936856 	1.165595946e-08
0.8645958245 	2.913160649 	-0.0007478494791 	1.238294299e-08
0.8669345455 	2.909380116 	-0.000768633863 	1.309938992e-08
0.8692474569 	2.905544191 	-0.0007885480788 	1.380193814e-08
0.8715348435 	2.901650639 	-0.0008075960221 	1.44866394e-08
0.8737969871 	2.897697312 	-0.0008257847722 	1.514888459e-08
0.8760341663 	2.89368219 	-0.0008431252452 	1.578325164e-08
0.8782466565 	2.889603428 	-0.0008596329548 	1.63829733e-08
0.8804347301 	2.885459414 	-0.0008753291254 	1.69373974e-08
0.8825986568 	2.881248829 	-0.0008902440478 	1.742881593e-08
0.8847387028 	2.876970719 	-0.0009044159821 	1.782044492e-08
0.8868551318 	2.872624541 	-0.0009179101991 	1.799290759e-08
0.8889482045 	2.868209997 	-0.0009308923511 	1.81760766e-08
0.8910181784 	2.863726833 	-0.0009428341078 	1.832958701e-08
0.8930653087 	2.859173801 	-0.0009542452885 	1.751253737e-08
0.8950898473 	2.854543293 	-0.0009658951319 	1.692828977e-08
0.8970920436 	2.849817715 	-0.000976260244 	1.791779585e-08
0.8990721441 	2.844975566 	-0.0009850487751 	1.881355134e-08
0.9010303927 	2.839996331 	-0.0009927741867 	1.944445071e-08
0.9029670306 	2.834859417 	-0.0009989991371 	2.055281575e-08
0.9048822962 	2.829543603 	-0.001003547535 	2.178677552e-08
0.9067764254 	2.824027126 	-0.0010062903 	2.30953695e-08
0.9086496514 	2.818287815 	-0.001007106606 	2.445535187e-08
0.910502205 	2.812303383 	-0.001005888072 	2.584812633e-08
0.9123343142 	2.806051822 	-0.001002542553 	2.725451291e-08
0.9141462048 	2.799511871 	-0.0009969971903 	2.865586079e-08
0.9159380997 	2.79266351 	-0.0009892035204 	3.003326778e-08
0.9177102197 	2.785488418 	-0.0009791384192 	3.136490288e-08
0.9194627831 	2.777970386 	-0.0009668071243 	3.262812438e-08
0.9211960055 	2.770095622 	-0.0009522440589 	3.380069097e-08
0.9229101006 	2.761852961 	-0.0009355125729 	3.486196812e-08
0.9246052793 	2.753233951 	-0.000916703468 	3.579368513e-08
0.9262817504 	2.744232831 	-0.0008959326156 	3.658030158e-08
0.9279397204 	2.734846414 	-0.0008733379746 	3.720934323e-08
0.9295793934 	2.725073869 	-0.000849076071 	3.767198837e-08
0.9312009714 	2.714916428 	-0.0008233178944 	3.796377958e-08
0.9328046541 	2.704377029 	-0.0007962443758 	3.80849344e-08
0.9343906389 	2.693459929 	-0.000768041906 	3.803963126e-08
0.9359591211 	2.682170317 	-0.0007388984558 	3.783418352e-08
0.937510294 	2.670513979 	-0.0007090005292 	3.747544805e-08
0.9390443485 	2.65849699 	-0.0006785307935 	3.697050376e-08
0.9405614735 	2.64612547 	-0.000647666198 	3.632713814e-08
0.942061856 	2.63340537 	-0.0006165765135 	3.555454512e-08
0.9435456805 	2.620342301 	-0.0005854232343 	3.466384628e-08
0.9450131299 	2.606941382 	-0.0005543587526 	3.366815157e-08
0.946464385 	2.593207115 	-0.000523525754 	3.258198859e-08
0.9478996243 	2.579143267 	-0.0004930568277 	3.142022971e-08
0.9493190246 	2.564752762 	-0.0004630742806 	3.019690583e-08
0.9507227608 	2.550037569 	-0.0004336901277 	2.892436226e-08
0.9521110058 	2.53499858 	-0.0004050062029 	2.761306245e-08
0.9534839303 	2.519635473 	-0.000377114323 	2.627205557e-08
0.9548417036 	2.503946557 	-0.0003500964442 	2.490983904e-08
0.9561844929 	2.487928586 	-0.0003240247949 	2.353519721e-08
0.9575124634 	2.471576526 	-0.0002989619414 	2.215763904e-08
0.9588257788 	2.454883294 	-0.0002749603996 	2.078724569e-08
0.9601246008 	2.43783943 	-0.0002520620516 	1.94340052e-08
0.9614090893 	2.420432702 	-0.0002303065577 	1.810716813e-08
0.9626794024 	2.402647627 	-0.0002097543838 	1.681534072e-08
0.9639356968 	2.386019829 	-0.0001919646731 	1.566742545e-08
0.9647540487 	2.372288649 	-0.0001782378634 	1.476298172e-08
0.9655573034 	2.360048216 	-0.0001667433523 	1.399095586e-08
0.9663457395 	2.347741877 	-0.0001558918091 	1.324839075e-08
0.9671196303 	2.335362478 	-0.0001456407618 	1.253508041e-08
0.9678792442 	2.32290357 	-0.000135964405 	1.185117267e-08
0.9686248445 	2.310358957 	-0.0001268402797 	1.119675735e-08
0.9693566897 	2.297722413 	-0.0001182452566 	1.057168908e-08
0.9700750337 	2.28498753 	-0.0001101560939 	9.975599202e-09
0.9707801255 	2.272147642 	-0.0001025498432 	9.407941134e-09
0.9714722095 	2.259195798 	-9.540395955e-05 	8.868036892e-09
0.9721515258 	2.246124759 	-8.869636781e-05 	8.355114118e-09
0.9728183099 	2.232927009 	-8.240552373e-05 	7.868330606e-09
0.9734727929 	2.219594778 	-7.651046442e-05 	7.406789738e-09
0.9741152019 	2.206120051 	-7.099084905e-05 	6.969551896e-09
0.9747457596 	2.192494589 	-6.58269911e-05 	6.555644945e-09
0.9753646845 	2.178709942 	-6.099988356e-05 	6.164074644e-09
0.9759721914 	2.164757456 	-5.649121716e-05 	5.79383466e-09
0.9765684907 	2.150628279 	-5.228339233e-05 	5.443915814e-09
0.9771537895 	2.136313366 	-4.835952507e-05 	5.113314386e-09
0.9777282904 	2.121803481 	-4.470344736e-05 	4.80103948e-09
0.9782921928 	2.10708919 	-4.129970243e-05 	4.506119588e-09
0.9788456922 	2.092160861 	-3.813353554e-05 	4.227608435e-09
0.9793889805 	2.077008656 	-3.519088066e-05 	3.964590103e-09
0.979922246 	2.061622523 	-3.245834387e-05 	3.716183285e-09
0.9804456737 	2.045992184 	-2.992318375e-05 	3.481544671e-09
0.9809594451 	2.03010712 	-2.757328971e-05 	3.259871479e-09
0.9814637383 	2.01395656 	-2.539715845e-05 	3.050403247e-09
0.9819587281 	1.997529456 	-2.33838693e-05 	2.852422874e-09
0.9824445862 	1.980814464 	-2.152305886e-05 	2.665257031e-09
0.9829214811 	1.963799919 	-1.980489519e-05 	2.488275997e-09
0.9833895781 	1.946473805 	-1.822005219e-05 	2.320893006e-09
0.9838490396 	1.928823722 	-1.675968422e-05 	2.162563108e-09
0.9843000247 	1.910836849 	-1.541540136e-05 	2.012781662e-09
0.98474269 	1.892499904 	-1.417924562e-05 	1.871082471e-09
0.9851771888 	1.873799095 	-1.304366808e-05 	1.737035678e-09
0.9856036719 	1.854720065 	-1.200150734e-05 	1.610245433e-09
0.9860222871 	1.835247839 	-1.104596922e-05 	1.490347461e-09
0.9864331796 	1.815366753 	-1.017060797e-05 	1.377006527e-09
0.9868364919 	1.795060385 	-9.369309005e-06 	1.269913898e-09
0.9872323637 	1.77431147 	-8.636273437e-06 	1.16878482e-09
0.9876209323 	1.753101816 	-7.966004335e-06 	1.073356102e-09
0.9880023326 	1.731412204 	-7.353293134e-06 	9.833837846e-10
0.9883766967 	1.709222283 	-6.793202255e-06 	8.986409233e-10
0.9887441544 	1.686510449 	-6.281075799e-06 	8.189157835e-10
0.9891048331 	1.66325373 	-5.81266846e-06 	7.440104774e-10
0.9894588579 	1.639427635 	-5.384191378e-06 	6.737379308e-10
0.9898063516 	1.615006007 	-4.988944493e-06 	6.078977605e-10
0.9901474347 	1.589960815 	-4.616770133e-06 	5.463373568e-10
0.9904822253 	1.564261832 	-4.27270922e-06 	4.88972002e-10
0.9908108397 	1.537876116 	-3.972790834e-06 	4.355997262e-10
0.9911333916 	1.510767665 	-3.704933488e-06 	3.859883144e-10
0.9914499931 	1.482897712 	-3.445570661e-06 	3.400454643e-10
0.9917607538 	1.454225393 	-3.195139744e-06 	2.976675655e-10
0.9920657815 	1.424708125 	-2.959534874e-06 	2.587079943e-10
0.9923651819 	1.394301643 	-2.737705558e-06 	2.230392973e-10
0.992659059 	1.362959936 	-2.522676026e-06 	1.905291984e-10
0.9929475145 	1.33063522 	-2.298377702e-06 	1.610343933e-10
0.9932306485 	1.297277975 	-2.143259693e-06 	1.344511159e-10
0.9935085592 	1.262836661 	-2.457029285e-06 	1.108668932e-10
0.9937813429 	1.230339919 	-2.65120938e-06 	9.16116619e-11
0.9939569055 	1.20319021 	-2.186198737e-06 	7.726096264e-11
0.9941324681 	1.178452021 	-1.80723956e-06 	6.556658773e-11
0.9943080307 	1.152818478 	-1.699871444e-06 	5.485861497e-11
0.9944835934 	1.126237399 	-1.617706652e-06 	4.505745618e-11
0.994659156 	1.098661758 	-1.522324878e-06 	3.614146597e-11
0.9948347186 	1.070043441 	-1.42710786e-06 	2.81012912e-11
0.9950102812 	1.040331007 	-1.338137346e-06 	2.09230134e-11
0.9951858439 	1.009469833 	-1.25796886e-06 	1.458743873e-11
0.9953614065 	0.9774029198 	-1.190203209e-06 	9.071309992e-12
0.9955369691 	0.9440719415 	-1.13908404e-06 	4.34832829e-12
0.9957125317 	0.9094185146 	-1.104464544e-06 	3.912405763e-13
0.9958880943 	0.8733857496 	-1.081964648e-06 	-2.832585732e-12
0.996063657 	0.8359201817 	-1.183913215e-06 	-5.431697718e-12
0.9962392196 	0.7969740844 	-1.656682534e-06 	-7.492715357e-12
0.9964147822 	0.7565079067 	-2.058890826e-06 	-8.604725361e-12
0.9965903448 	0.7144949455 	8.852569904e-06 	-2.695756583e-12
0.9967659075 	0.6709244016 	7.568559919e-06 	-1.318450205e-11
0.9969414701 	0.6257588119 	-1.846038557e-05 	-2.552150882e-11
0.9971170327 	0.5789264587 	-1.91526255e-05 	-2.550238094e-12
0.9972925953 	0.530431548 	-3.495499693e-06 	4.638712693e-12
0.997468158 	0.4804032589 	6.812124261e-07 	-6.898897372e-12
0.9976437206 	0.4290600207 	3.760100185e-06 	-6.82506859e-12
0.9978192832 	0.3766834063 	5.664582873e-06 	-6.561264538e-12
0.9979948458 	0.3235744917 	5.453633201e-06 	-5.893690642e-12
0.9981704085 	0.2700030945 	3.733142237e-06 	-4.556785021e-12
0.9983459711 	0.2161721096 	1.846500396e-06 	-2.931912556e-12
0.9985215337 	0.1622086126 	6.249292976e-07 	-1.562815599e-12
0.9986970963 	0.1081776351 	1.135515083e-07 	-6.552914721e-13
0.998872659 	0.05410529235 	-4.510668246e-09 	-1.708904817e-13
0.9990482216 	0.02278454505 	-7.926539478e-09 	-1.951935856e-14
0.9990482216 	0.02278454505 	-7.926539478e-09 	-1.951935856e-14
