3.60871192e-38 	1.514833376 	-6.188288383e-14 	6.625039937e-20
0.0003187685652 	1.514853421 	-2.743771592e-05 	1.030626871e-09
0.0006375366988 	1.514899902 	-5.11101344e-05 	1.835513498e-09
0.0009563044003 	1.514958983 	-7.524084729e-05 	2.591885728e-09
0.001275071669 	1.515031022 	-9.996132369e-05 	3.301622462e-09
0.001593838505 	1.515116995 	-0.0001247249859 	3.940037143e-09
0.001912604907 	1.515217514 	-0.0001495241839 	4.508228848e-09
0.002231370875 	1.515332969 	-0.0001743465733 	5.005822494e-09
0.002550136408 	1.515463624 	-0.0001991867164 	5.432536556e-09
0.002868901507 	1.515609665 	-0.0002240405153 	5.78808252e-09
0.003187666171 	1.51577123 	-0.0002489060282 	6.072196216e-09
0.003506430399 	1.515948425 	-0.0002737823711 	6.284584045e-09
0.003825194192 	1.516141332 	-0.0002986692558 	6.424903851e-09
0.004143957549 	1.516350018 	-0.0003235667737 	6.492755605e-09
0.00446272047 	1.516574536 	-0.0003484752836 	6.487675992e-09
0.004781482955 	1.516814932 	-0.0003733953462 	6.409134873e-09
0.005100245004 	1.517071243 	-0.000398327683 	6.256532701e-09
0.005419006617 	1.517343501 	-0.0004232731524 	6.029198607e-09
0.005737767794 	1.517631734 	-0.0004482327354 	5.72638901e-09
0.006056528535 	1.517935964 	-0.0004732075277 	5.347286602e-09
0.006375288839 	1.518256211 	-0.0004981987377 	4.890999522e-09
0.006694048708 	1.518592493 	-0.0005232076826 	4.35656094e-09
0.007012808141 	1.518944823 	-0.0005482357663 	3.742928929e-09
0.007331567139 	1.519313213 	-0.0005732844468 	3.048984951e-09
0.007650325701 	1.519697672 	-0.000598355557 	2.273529712e-09
0.007969083828 	1.520098207 	-0.0006234526491 	1.415289988e-09
0.008287841521 	1.520514824 	-0.0006485803924 	4.729465865e-10
0.008437852995 	1.520718467 	-0.0006604081122 	-3.37349277e-09
0.008606598778 	1.520947484 	-0.0006737142755 	5.900223118e-10
0.008925355602 	1.521396199 	-0.0006987515302 	1.776149329e-09
0.009244111993 	1.521860939 	-0.0007238855125 	3.056434092e-09
0.00956286795 	1.522407917 	-0.0007529989765 	4.450128959e-09
0.0100581404 	1.523098512 	-0.000789288321 	6.750381215e-09
0.01056272042 	1.523863641 	-0.0008292565969 	9.372213964e-09
0.01107678291 	1.524639628 	-0.0008700900877 	1.230807514e-08
0.01160050605 	1.525427158 	-0.0009119418891 	1.557320113e-08
0.01213407137 	1.526226932 	-0.0009546980817 	1.919359679e-08
0.01267766381 	1.527039596 	-0.0009983551446 	2.319451921e-08
0.0132314718 	1.527865727 	-0.001042937325 	2.760120797e-08
0.01379568728 	1.52870585 	-0.001088467358 	3.244006346e-08
0.01437050582 	1.529560453 	-0.00113496711 	3.773878671e-08
0.01495612667 	1.530429986 	-0.001182458956 	4.352641094e-08
0.01555275281 	1.53131487 	-0.00123096603 	4.983331503e-08
0.01616059102 	1.532215498 	-0.001280512192 	5.669125357e-08
0.016779852 	1.533132243 	-0.001331122015 	6.413338918e-08
0.01741075039 	1.534065455 	-0.001382820806 	7.219432113e-08
0.01805350486 	1.535015471 	-0.001435634546 	8.091012963e-08
0.0187083382 	1.535982612 	-0.001489588656 	9.031847911e-08
0.01937547738 	1.536967188 	-0.001544711307 	1.004582955e-07
0.02005515364 	1.537970284 	-0.001601079312 	1.113747949e-07
0.02074973487 	1.538993485 	-0.001658796735 	1.231480099e-07
0.02145891096 	1.540036773 	-0.001717878762 	1.358317628e-07
0.02218141421 	1.541099074 	-0.001778284404 	1.494524946e-07
0.02291749506 	1.542180136 	-0.001840015653 	1.640586391e-07
0.02366740864 	1.543280266 	-0.001903103762 	1.797050793e-07
0.02443141485 	1.544399774 	-0.001967581127 	1.964492718e-07
0.02520977851 	1.545538975 	-0.002033480917 	2.143511414e-07
0.0260027694 	1.546698192 	-0.002100837209 	2.33473193e-07
0.02681066235 	1.547877759 	-0.002169684796 	2.538806195e-07
0.02763373738 	1.549078018 	-0.002240059184 	2.756413853e-07
0.02847227976 	1.550299326 	-0.002311996594 	2.988263064e-07
0.02932658012 	1.551542055 	-0.002385533957 	3.235091325e-07
0.03019693454 	1.552806595 	-0.002460708903 	3.497666326e-07
0.03108364468 	1.554093354 	-0.002537559755 	3.776786791e-07
0.03198701785 	1.555402762 	-0.002616125519 	4.073283339e-07
0.03290736715 	1.556735273 	-0.002696445866 	4.388019349e-07
0.03384501154 	1.558091367 	-0.002778561124 	4.721891844e-07
0.034800276 	1.559471549 	-0.002862512266 	5.07583237e-07
0.03577349159 	1.560876358 	-0.002948340902 	5.450807882e-07
0.0367649956 	1.562306362 	-0.003036089276 	5.847821877e-07
0.03777513166 	1.563762165 	-0.003125799585 	6.267916402e-07
0.03880424984 	1.565244407 	-0.003217514634 	6.712171234e-07
0.0398527068 	1.566754264 	-0.003311312684 	7.181803201e-07
0.0409222433 	1.568294325 	-0.003407356508 	7.567812609e-07
0.04201573524 	1.56986621 	-0.003505746127 	7.580790638e-07
0.04312977606 	1.571468842 	-0.0036064156 	7.579192329e-07
0.04426475185 	1.573101745 	-0.003709327942 	7.561661817e-07
0.04542105599 	1.574765848 	-0.003814528271 	7.52709742e-07
0.04659908922 	1.576462136 	-0.003922063677 	7.474357778e-07
0.04779925982 	1.578191649 	-0.00403198054 	7.402253859e-07
0.04902198374 	1.579955488 	-0.004144325859 	7.309549316e-07
0.05026768475 	1.581754814 	-0.004259146821 	7.194959931e-07
0.05153679457 	1.583590853 	-0.004376490735 	7.0571527e-07
0.05282975304 	1.5854649 	-0.004496404966 	6.894744833e-07
0.05414700825 	1.587378318 	-0.004618936886 	6.706302735e-07
0.05548901673 	1.589332544 	-0.00474413395 	6.490340752e-07
0.05685624356 	1.591329088 	-0.004872043638 	6.245319985e-07
0.05824916257 	1.593369539 	-0.005002712501 	5.969648804e-07
0.0596682565 	1.595455945 	-0.005136203544 	5.661748797e-07
0.0611150311 	1.597592461 	-0.005272680776 	5.319670404e-07
0.06259447225 	1.599782597 	-0.005412374343 	4.939132273e-07
0.0641017149 	1.602314944 	-0.005573740738 	4.538688854e-07
0.0664155543 	1.605485527 	-0.005775518366 	3.819081856e-07
0.0687552027 	1.608994109 	-0.005998267966 	3.03578947e-07
0.07112094796 	1.612560412 	-0.006224018915 	2.168570743e-07
0.07351308118 	1.616189665 	-0.006452739356 	1.21520497e-07
0.07593189667 	1.619887003 	-0.006684273171 	1.736646417e-08
0.076319773 	1.620484968 	-0.006721410519 	-1.132069779e-07
0.07837769205 	1.62365638 	-0.006918606486 	9.911790475e-08
0.08085076825 	1.627507095 	-0.007155812467 	2.25660919e-07
0.08336052852 	1.631448449 	-0.00739603242 	3.624907376e-07
0.0858992737 	1.635482118 	-0.0076389773 	5.091961266e-07
0.0884663388 	1.639609079 	-0.007884316406 	6.658561453e-07
0.09106203972 	1.643833713 	-0.008131920246 	8.326159521e-07
0.0936866959 	1.648160748 	-0.008381685327 	1.009613035e-06
0.09634063034 	1.652594888 	-0.008633499715 	1.196974827e-06
0.09902416965 	1.657141548 	-0.008887292577 	1.394827411e-06
0.1017393693 	1.66180976 	-0.009143174476 	1.603475606e-06
0.1044931515 	1.666607489 	-0.009401175834 	1.823544196e-06
0.1072776549 	1.671535138 	-0.009660922947 	2.05435931e-06
0.1100932221 	1.676593949 	-0.00992208793 	2.295930169e-06
0.1129401996 	1.681788591 	-0.01018452004 	2.548297784e-06
0.115818938 	1.687123721 	-0.01044806727 	2.811491422e-06
0.1187297916 	1.692604392 	-0.01071259303 	2.755623501e-06
0.1216740008 	1.698239936 	-0.01097814382 	2.623294989e-06
0.1246600133 	1.704039484 	-0.01124472767 	2.479504047e-06
0.1276793401 	1.710002916 	-0.01151192858 	2.325098685e-06
0.130732353 	1.716130698 	-0.01177936048 	2.159971006e-06
0.1338194279 	1.722427382 	-0.01204681521 	1.984088179e-06
0.1369409448 	1.728897488 	-0.0123140889 	1.79743331e-06
0.1400972879 	1.735548232 	-0.01258106929 	1.600020382e-06
0.1432941265 	1.742389557 	-0.01284772359 	1.391332247e-06
0.1465309181 	1.749425728 	-0.01311378453 	1.171664259e-06
0.1498038247 	1.756656114 	-0.01337879829 	9.415370226e-07
0.1531132491 	1.76408286 	-0.01364241348 	7.010231194e-07
0.1564595988 	1.771710261 	-0.01390436048 	4.502248432e-07
0.1598432858 	1.779545079 	-0.01416443749 	1.892627408e-07
0.1622451615 	1.785190233 	-0.01434535028 	6.62035666e-07
0.1632691727 	1.787596925 	-0.01442256706 	8.447633809e-08
0.166738053 	1.795870157 	-0.01467850853 	3.738335067e-07
0.1702456402 	1.804364441 	-0.0149316325 	6.727376603e-07
0.1737923664 	1.813081236 	-0.01518150699 	9.80946981e-07
0.1773786681 	1.822024645 	-0.01542777738 	1.298192131e-06
0.1810049869 	1.831203169 	-0.01567017943 	1.624183336e-06
0.1846789635 	1.840627341 	-0.01590845972 	1.959300957e-06
0.1883955412 	1.850297703 	-0.01614209282 	2.302215836e-06
0.1921535922 	1.860213 	-0.01637049864 	2.652221464e-06
0.1959535793 	1.87037646 	-0.01659319401 	3.008759766e-06
0.1997959703 	1.880795101 	-0.01680975652 	3.371253729e-06
0.2036854422 	1.891479481 	-0.01701978676 	3.739559966e-06
0.207622447 	1.902434504 	-0.01722273462 	4.112768392e-06
0.211603387 	1.913659083 	-0.01741790171 	4.489884867e-06
0.2156287526 	1.925155345 	-0.01760461112 	4.870642734e-06
0.2196990393 	1.936930892 	-0.0177822018 	4.78576679e-06
0.2238186833 	1.948996836 	-0.0179499287 	4.490751841e-06
0.2279881991 	1.961358397 	-0.01810677503 	4.18926631e-06
0.232204247 	1.974013598 	-0.01825079615 	3.877746606e-06
0.236467346 	1.986959062 	-0.01838100421 	3.573817016e-06
0.2407780212 	2.000186074 	-0.01850256174 	3.264686117e-06
0.2451424756 	2.013670295 	-0.0186134245 	2.928281915e-06
0.2495572744 	2.027370906 	-0.01870617778 	2.59715823e-06
0.2540213442 	2.041263105 	-0.01878576692 	2.271910008e-06
0.2585352349 	2.055344884 	-0.01885459763 	1.93914454e-06
0.2631015014 	2.069621699 	-0.01890914871 	1.603898442e-06
0.2677235003 	2.084096241 	-0.01894856808 	1.26692298e-06
0.2723970843 	2.098761867 	-0.01897197762 	9.295505961e-07
0.2771228288 	2.113614223 	-0.01897841396 	5.925654818e-07
0.2819015435 	2.12865647 	-0.01896685755 	2.568154286e-07
0.2856242117 	2.140379385 	-0.0189432886 	3.601005662e-06
0.2867395923 	2.143892294 	-0.01893627218 	7.891706936e-08
0.2916316387 	2.1593133 	-0.01888564574 	4.172440293e-07
0.2965782851 	2.174912601 	-0.01881367915 	7.504100053e-07
0.3015801405 	2.190690539 	-0.0187191434 	1.07723195e-06
0.3066433776 	2.206648144 	-0.01860073021 	1.396516686e-06
0.3117632607 	2.222774514 	-0.01845715687 	1.705904675e-06
0.3169402875 	2.239058957 	-0.01828711402 	2.003804056e-06
0.322175596 	2.255496725 	-0.01808917528 	2.288490088e-06
0.3274740002 	2.272081769 	-0.01786188826 	2.557846377e-06
0.3328315415 	2.288796811 	-0.01760375334 	2.809065065e-06
0.3382488795 	2.305624946 	-0.0173135158 	3.039360064e-06
0.3437284601 	2.322617856 	-0.01699020048 	3.24710652e-06
0.3492720762 	2.339926203 	-0.01663290946 	3.433200379e-06
0.3548775666 	2.357654401 	-0.0162427013 	3.601972916e-06
0.3605456212 	2.375759611 	-0.01582331429 	3.757572169e-06
0.3662803549 	2.394096014 	-0.01537940082 	3.89992631e-06
0.3720798471 	2.412474011 	-0.01491520267 	4.026433151e-06
0.3779440693 	2.430713331 	-0.01443368959 	4.134497248e-06
0.3838752086 	2.448668889 	-0.01393622754 	4.128576414e-06
0.3898747874 	2.466232884 	-0.01342243117 	3.803139291e-06
0.3959413294 	2.483342717 	-0.01289043207 	3.468518848e-06
0.4020759105 	2.500016244 	-0.01233393516 	3.112468666e-06
0.4082819033 	2.516305312 	-0.01174550182 	2.744406049e-06
0.4145571631 	2.532162545 	-0.01112401131 	2.398341809e-06
0.4209024622 	2.547437232 	-0.0104787355 	2.097395085e-06
0.4273212302 	2.561940738 	-0.009804385134 	1.822255639e-06
0.4338118585 	2.575454921 	-0.009132064934 	1.618332332e-06
0.4403749295 	2.58758651 	-0.008510656301 	1.481726503e-06
0.4470133871 	2.597793686 	-0.007901899804 	1.332291174e-06
0.4537262956 	2.605827298 	-0.007315764807 	1.22562097e-06
0.460514127 	2.611850878 	-0.006804984995 	1.164523857e-06
0.4673796373 	2.616159101 	-0.006359654836 	1.095322364e-06
0.4743220061 	2.61902543 	-0.005966052351 	1.024208425e-06
0.4813419013 	2.620686587 	-0.005617046514 	9.490936124e-07
0.4884419439 	2.621347201 	-0.005306370382 	8.704100177e-07
0.4956212291 	2.621180381 	-0.005028063963 	7.88559453e-07
0.5028008937 	2.620340151 	-0.004777777717 	7.054004889e-07
0.5099024955 	2.618970064 	-0.004551595817 	6.238463234e-07
0.5169257377 	2.61718757 	-0.004344591329 	5.449424061e-07
0.5238719808 	2.61508047 	-0.00415252591 	4.694850899e-07
0.5307422839 	2.612714991 	-0.003972191585 	3.983251445e-07
0.5375367778 	2.610141444 	-0.003801209129 	3.317288772e-07
0.5442567658 	2.607397732 	-0.003637787967 	2.697073148e-07
0.5509030776 	2.604512345 	-0.003480616105 	2.124155875e-07
0.5574760505 	2.601506714 	-0.003328733455 	1.596324797e-07
0.5639768449 	2.598396792 	-0.003181430636 	1.110653541e-07
0.5704062841 	2.595194588 	-0.003038180097 	6.663240916e-08
0.5767647764 	2.59190924 	-0.002898576884 	2.601593599e-08
0.5811455924 	2.589567366 	-0.002803644965 	2.210847518e-06
0.5830533074 	2.588547556 	-0.002762310687 	1.15793537e-08
0.5892728019 	2.585114663 	-0.00262913299 	4.675162194e-08
0.5954236652 	2.581614496 	-0.002498801434 	7.871474935e-08
0.6015067106 	2.578049894 	-0.002371125503 	1.077852203e-07
0.6075229967 	2.574422841 	-0.002245936365 	1.340934376e-07
0.6134728931 	2.57073482 	-0.002123083712 	1.578165834e-07
0.6193571321 	2.566986716 	-0.002002426811 	1.792144259e-07
0.6251766857 	2.563178893 	-0.001883835685 	1.98456878e-07
0.630932088 	2.559311436 	-0.001767191988 	2.156175377e-07
0.6366239785 	2.555384112 	-0.00165238267 	2.309007152e-07
0.6422531291 	2.551396338 	-0.001539302856 	2.444891623e-07
0.6478203216 	2.547347293 	-0.001427856356 	2.564290285e-07
0.6533260787 	2.543236021 	-0.001317954572 	2.668434555e-07
0.6587710783 	2.539061351 	-0.001209515796 	2.758858482e-07
0.6641561061 	2.534821926 	-0.001102468301 	2.83660052e-07
0.6694817605 	2.530516358 	-0.0009967519682 	2.901890911e-07
0.6747486444 	2.526143258 	-0.0008923179836 	2.955858391e-07
0.6799574061 	2.521701274 	-0.0007891336439 	2.999563808e-07
0.6851087964 	2.51718926 	-0.0006871888225 	3.033426274e-07
0.6902033484 	2.512606589 	-0.0005865072313 	3.057565603e-07
0.6952416799 	2.507953413 	-0.0004871535395 	3.072723842e-07
0.7002244109 	2.503231034 	-0.0003892441235 	3.079665059e-07
0.7051522365 	2.498442119 	-0.0002931378101 	3.07749306e-07
0.7100256822 	2.493590838 	-0.0001982446781 	3.074568302e-07
0.714845347 	2.488681826 	-0.0001053497583 	3.058844425e-07
0.7196118242 	2.483712888 	-1.567848048e-05 	3.030341076e-07
0.7243257496 	2.478667828 	7.303856738e-05 	3.016944199e-07
0.7289876612 	2.473526543 	0.0001616032659 	2.998643901e-07
0.733598126 	2.468275584 	0.0002492424375 	2.969285031e-07
0.7381577117 	2.462905224 	0.0003364913881 	2.942547621e-07
0.7426670004 	2.457406458 	0.0004236984256 	2.912875091e-07
0.7471265425 	2.451770173 	0.0005110015243 	2.880545455e-07
0.7515368708 	2.445986766 	0.0005985267057 	2.845918338e-07
0.7558985284 	2.440045966 	0.0006863909521 	2.809333099e-07
0.7602120532 	2.433936873 	0.0007747024829 	2.771061338e-07
0.7644779982 	2.427648125 	0.0008635622978 	2.731123274e-07
0.7686968657 	2.421168116 	0.0009530654089 	2.689585372e-07
0.7728691753 	2.414485175 	0.001043301525 	2.646755609e-07
0.7769954407 	2.407587745 	0.001134356269 	2.602959143e-07
0.781076174 	2.400464544 	0.001226309639 	2.558465775e-07
0.7851118841 	2.393104705 	0.001319233414 	2.513256609e-07
0.7891030575 	2.385497835 	0.001413187758 	2.467356046e-07
0.7930501855 	2.377633943 	0.001508218114 	2.420798604e-07
0.7969537543 	2.369503244 	0.001604357594 	2.37362425e-07
0.8008142465 	2.361095876 	0.001701631993 	2.32595053e-07
0.804632142 	2.352401647 	0.001800065866 	2.277861027e-07
0.8084079044 	2.343409903 	0.001899685572 	2.229607457e-07
0.8121419985 	2.334109536 	0.002000517868 	2.181490624e-07
0.8158348843 	2.324489129 	0.002102587216 	2.133705636e-07
0.8194870164 	2.314537199 	0.002205911369 	2.086297721e-07
0.823098849 	2.30424249 	0.00231049729 	2.039127676e-07
0.8266708229 	2.293594273 	0.002416339697 	1.992011627e-07
0.8302033774 	2.282582623 	0.002523421005 	1.944938505e-07
0.8336969477 	2.271198642 	0.002631712993 	1.898039573e-07
0.8371519639 	2.259434631 	0.002741179635 	1.851569592e-07
0.8405688521 	2.247284186 	0.002851778013 	1.805817427e-07
0.8439480343 	2.234742219 	0.002963458908 	1.760935369e-07
0.8472899247 	2.221804908 	0.003076166477 	1.71698791e-07
0.8505949349 	2.208469549 	0.003189837302 	1.673938646e-07
0.853863472 	2.194734345 	0.003304401122 	1.631684459e-07
0.8570959383 	2.180598149 	0.003419782325 	1.590133875e-07
0.8602927321 	2.16606018 	0.00353590076 	1.549248352e-07
0.863454248 	2.151119748 	0.003652671827 	1.50898302e-07
0.8665808742 	2.135775996 	0.00377000426 	1.469294964e-07
0.8696729957 	2.120027678 	0.00388779496 	1.430069443e-07
0.8727309934 	2.103872959 	0.004005923271 	1.391059129e-07
0.8757552438 	2.087309286 	0.004124246671 	1.351892552e-07
0.8787461193 	2.070333379 	0.004242599788 	1.312119724e-07
0.8817039887 	2.052941458 	0.004360794136 	1.271246281e-07
0.8846292159 	2.035129703 	0.004478614785 	1.228737596e-07
0.887522161 	2.016894865 	0.004595813323 	1.184044835e-07
0.8903831803 	1.998234883 	0.00471209979 	1.136558378e-07
0.8932126262 	1.979149416 	0.004827134188 	1.085598356e-07
0.8960108469 	1.95964034 	0.004940516279 	1.030419358e-07
0.8987781872 	1.939712241 	0.00505177504 	9.702328643e-08
0.901514988 	1.919372958 	0.005160359503 	9.042398234e-08
0.9042215861 	1.898634176 	0.005265632533 	8.316771013e-08
0.9068983149 	1.877512049 	0.005366867273 	7.518867006e-08
0.909545504 	1.856027819 	0.005463246978 	6.643345379e-08
0.9121634793 	1.834208377 	0.005553869021 	5.68628934e-08
0.9147525634 	1.812086706 	0.005637752717 	4.645488516e-08
0.9173130749 	1.789702104 	0.005713851566 	3.521119307e-08
0.9198453292 	1.767100056 	0.005781070012 	2.316665371e-08
0.9223496383 	1.744331574 	0.005838286567 	1.039121745e-08
0.9248263104 	1.721451761 	0.005884381434 	-3.02263186e-09
0.9272756506 	1.698517297 	0.005918215193 	-1.698004328e-08
0.9296979604 	1.6755824 	0.005938543241 	-3.136998017e-08
0.9320935383 	1.654606842 	0.005944707415 	-4.483243912e-08
0.9336540211 	1.637697548 	0.005940632127 	-5.566614353e-08
0.9351857158 	1.622908133 	0.005929987937 	-6.520095017e-08
0.9366891533 	1.608345075 	0.005912693871 	-7.466758452e-08
0.938164855 	1.594016218 	0.005888971018 	-8.383440022e-08
0.9396133326 	1.579927338 	0.005858949723 	-9.277167201e-08
0.9410350883 	1.566082466 	0.005822778381 	-1.013980597e-07
0.942430615 	1.552484094 	0.005780632505 	-1.096750763e-07
0.9438003967 	1.53913337 	0.005732711211 	-1.175736389e-07
0.9451449083 	1.526030328 	0.005679231259 	-1.250704715e-07
0.9464646159 	1.51317416 	0.005620420982 	-1.321506182e-07
0.9477599773 	1.50056354 	0.00555651296 	-1.388112646e-07
0.9490314414 	1.488196956 	0.005487736183 	-1.450627366e-07
0.9502794492 	1.476072969 	0.00541430971 	-1.509251734e-07
0.9515044335 	1.464190285 	0.005336440412 	-1.564208117e-07
0.9527068189 	1.452547523 	0.005254326995 	-1.615628723e-07
0.9538870224 	1.441142637 	0.005168171383 	-1.663433112e-07
0.9550454531 	1.429972015 	0.005078196423 	-1.707228774e-07
0.9561825128 	1.419029423 	0.00498466619 	-1.746276638e-07
0.9572985957 	1.408305124 	0.004887902505 	-1.779563773e-07
0.9583940889 	1.397785563 	0.004788289736 	-1.806015638e-07
0.959469372 	1.387454073 	0.004686260407 	-1.824850284e-07
0.9605248181 	1.377292876 	0.004582256882 	-1.836045816e-07
0.961560793 	1.367286478 	0.00447666936 	-1.840833782e-07
0.9625776559 	1.357426149 	0.004369757876 	-1.84201417e-07
0.9635757595 	1.34771458 	0.004261575681 	-1.843828509e-07
0.9645554498 	1.338169225 	0.004151918994 	-1.851187828e-07
0.9655170665 	1.328822321 	0.004040318787 	-1.868607378e-07
0.966460943 	1.319715556 	0.003926122155 	-1.897665013e-07
0.9673874067 	1.310888601 	0.003808800469 	-1.932036149e-07
0.9682967787 	1.302363685 	0.003689522584 	-1.920819558e-07
0.9691893743 	1.294127891 	0.00356629413 	-2.003113738e-07
0.9700655031 	1.286113991 	0.003436974731 	-2.070662786e-07
0.9709254688 	1.278210755 	0.003309225239 	-1.920791056e-07
0.9717695697 	1.270322063 	0.003186149121 	-1.87029609e-07
0.9725980983 	1.262400488 	0.003062484242 	-1.892609114e-07
0.9734113421 	1.25442369 	0.002938834823 	-1.832344777e-07
0.9742095829 	1.246373942 	0.002817389394 	-1.782799784e-07
0.9749930975 	1.238235207 	0.00269778819 	-1.736000594e-07
0.9757621576 	1.229991902 	0.002580025576 	-1.689212635e-07
0.9765170299 	1.221628008 	0.002464168068 	-1.642460006e-07
0.9772579761 	1.21312687 	0.002350280739 	-1.595434659e-07
0.9779852532 	1.204471084 	0.00223843078 	-1.548034849e-07
0.9786991132 	1.195642372 	0.002128680883 	-1.500207074e-07
0.9793998037 	1.186621446 	0.002021089276 	-1.451919655e-07
0.9800875677 	1.17738786 	0.001915710504 	-1.403168195e-07
0.9807626437 	1.167919841 	0.001812595948 	-1.353973203e-07
0.9814252657 	1.158194108 	0.00171179433 	-1.304374582e-07
0.9820756634 	1.148185667 	0.001613351605 	-1.254433337e-07
0.9827140624 	1.137867597 	0.001517306542 	-1.204269388e-07
0.9833406841 	1.12721081 	0.001423694394 	-1.153918454e-07
0.9839557457 	1.116183742 	0.001332498872 	-1.104065014e-07
0.9845594604 	1.104751559 	0.00124346753 	-1.056995515e-07
0.9851520377 	1.092875364 	0.001158370668 	-9.866185079e-08
0.9857336829 	1.080510422 	0.001076902791 	-9.420506401e-08
0.9863045978 	1.067591862 	0.0009944285308 	-9.304526992e-08
0.9868649803 	1.054016661 	0.0009138622653 	-8.554033829e-08
0.9874150247 	1.039660013 	0.0008400104557 	-7.849033089e-08
0.9879549217 	1.024407154 	0.0007697718141 	-7.496813174e-08
0.9884848586 	1.008155588 	0.0007015969121 	-6.992615159e-08
0.9890050191 	0.9923307877 	0.0006423449958 	-6.528108729e-08
0.9893397925 	0.9787315075 	0.0005966823353 	-6.157143914e-08
0.9896745659 	0.9660333889 	0.0005577146986 	-5.832418778e-08
0.9900093393 	0.9525697612 	0.000519753848 	-5.50875763e-08
0.9903441127 	0.9382841852 	0.0004829230007 	-5.186836616e-08
0.9906788861 	0.9231168091 	0.0004472753016 	-4.867568659e-08
0.9910136596 	0.9070027519 	0.0004128421722 	-4.5518355e-08
0.991348433 	0.8898708474 	0.0003796562496 	-4.240487221e-08
0.9916832064 	0.8716425584 	0.0003477503702 	-3.934357974e-08
0.9920179798 	0.8522309565 	0.0003171558347 	-3.634266416e-08
0.9923527532 	0.8315397221 	0.000287902024 	-3.341007473e-08
0.9926875266 	0.8094621349 	0.0002600145418 	-3.055387903e-08
0.9930223001 	0.7858798599 	0.000233513075 	-2.778242419e-08
0.9933570735 	0.7606623235 	0.0002084125057 	-2.510403344e-08
0.9936918469 	0.7336673735 	0.0001847267639 	-2.252701465e-08
0.9940266203 	0.7047422013 	0.000162461149 	-2.004846513e-08
0.9943613937 	0.673725117 	0.0001414154734 	-1.766211655e-08
0.9946961672 	0.6404495674 	0.0001211428393 	-1.543823094e-08
0.9950309406 	0.6047504492 	0.0001024398941 	-1.455867164e-08
0.995365714 	0.5664789293 	0.0001041448415 	-1.120597114e-08
0.9957004874 	0.5255157914 	8.310733852e-05 	-6.882070999e-09
0.9960352608 	0.4817013203 	1.889004548e-05 	-8.254116407e-09
0.9963700342 	0.4348392578 	7.329093061e-06 	-7.990653541e-09
0.9967048077 	0.3849712837 	3.215609592e-05 	-4.922505872e-09
0.9970395811 	0.3325319067 	3.920838501e-05 	-3.720231598e-09
0.9973743545 	0.2782394084 	3.935967815e-05 	-2.617774187e-09
0.9977091279 	0.2228931191 	2.81455261e-05 	-1.651145397e-09
0.9980439013 	0.1671300518 	1.382424752e-05 	-9.189867286e-10
0.9983786747 	0.1113143561 	4.497669684e-06 	-4.163033815e-10
0.9987134482 	0.05559136473 	7.76210638e-07 	-1.158710374e-10
0.9990482216 	0.0234249578 	-1.348144365e-08 	-1.39802594e-11
0.9990482216 	0.0234249578 	-1.348144365e-08 	-1.39802594e-11
