0.4709558481 	5.677366126e-07 	-2.268719834e-09 	4.584376085e-14 	5.666171216e-07 	-8.021002647e-12 	1.080129717e-09
0.4709558481 	5.677366126e-07 	-2.268719834e-09 	4.584376085e-14 	5.666171216e-07 	-8.021002647e-12 	1.080129717e-09
0.4711314108 	6.377425675e-06 	-9.946828442e-08 	2.008645681e-12 	6.358322141e-06 	-8.996826795e-11 	1.212072921e-08
0.4713069734 	3.563047649e-05 	-1.292986279e-06 	2.603591768e-11 	3.53457362e-05 	-4.989229072e-10 	6.737879703e-08
0.471482536 	0.0001193935068 	-7.973870988e-06 	1.592515877e-10 	0.0001166861404 	-1.634630343e-09 	2.224362149e-07
0.4716580986 	0.0002989442324 	-3.154575927e-05 	6.189620308e-10 	0.0002825963649 	-3.889792205e-09 	5.387072151e-07
0.4718336613 	0.0006255077092 	-9.23015727e-05 	1.75503283e-09 	0.0005568250449 	-7.416545981e-09 	1.061463297e-06
0.4720092239 	0.001159800502 	-0.0002158871957 	3.912782359e-09 	0.0009427521299 	-1.19231746e-08 	1.797147584e-06
0.4721847865 	0.001962846094 	-0.0004234466274 	7.193993488e-09 	0.001417135278 	-1.669775249e-08 	2.701453713e-06
0.4723603491 	0.003075809244 	-0.0007206554503 	1.13113884e-08 	0.001936582744 	-2.093020353e-08 	3.691664956e-06
0.4725359118 	0.004499316866 	-0.001094082355 	1.572745997e-08 	0.002455156146 	-2.419148244e-08 	4.680209989e-06
0.4727114744 	0.006188636803 	-0.001517852426 	1.993247893e-08 	0.002940573842 	-2.645564795e-08 	5.605551033e-06
0.472887037 	0.007976602724 	-0.001949946262 	2.26263818e-08 	0.003455223724 	-3.383786769e-08 	6.586616747e-06
0.4730625996 	0.009685862507 	-0.00236159547 	2.489439871e-08 	0.004084260667 	-4.304747293e-08 	7.785735993e-06
0.4732381623 	0.01133194532 	-0.00276222581 	2.793193634e-08 	0.004776530955 	-4.834060126e-08 	9.105395568e-06
0.4734137249 	0.01296091768 	-0.003159417772 	3.067990288e-08 	0.005463658985 	-5.312254958e-08 	1.041525257e-05
0.4735892875 	0.01455104412 	-0.003547167833 	3.31018549e-08 	0.006134535615 	-5.730941394e-08 	1.169412989e-05
0.4737648501 	0.01608657018 	-0.003921342293 	3.524159356e-08 	0.006781709873 	-6.102272141e-08 	1.29278239e-05
0.4739404128 	0.01755685884 	-0.004279587346 	3.70996029e-08 	0.007401352843 	-6.425077542e-08 	1.410903562e-05
0.4741159754 	0.01895549642 	-0.004620360295 	3.869329355e-08 	0.007990794157 	-6.702079162e-08 	1.523267459e-05
0.474291538 	0.02027930884 	-0.004942909132 	4.004610745e-08 	0.008548672261 	-6.936885419e-08 	1.629614531e-05
0.4744671006 	0.02152751624 	-0.005247124576 	4.118604412e-08 	0.009074650423 	-7.133249311e-08 	1.729880587e-05
0.4746426632 	0.02270103354 	-0.005533420112 	4.214647523e-08 	0.009569116672 	-7.294704463e-08 	1.824139598e-05
0.4748182259 	0.02380191279 	-0.005802658184 	4.29679105e-08 	0.01003293749 	-7.424474543e-08 	1.912556737e-05
0.4749937885 	0.02483291416 	-0.006056109023 	4.369884577e-08 	0.01046727735 	-7.525421567e-08 	1.995353985e-05
0.4751693511 	0.02579719888 	-0.006295417143 	4.439555321e-08 	0.01087346958 	-7.600103526e-08 	2.072785515e-05
0.4753449137 	0.02669816072 	-0.006522218399 	4.462989871e-08 	0.01125294224 	-7.651284201e-08 	2.145123551e-05
0.4755204764 	0.02753947581 	-0.006729934482 	4.456918955e-08 	0.01160725204 	-7.682498757e-08 	2.212664846e-05
0.475696039 	0.02832530445 	-0.006918238071 	4.462367832e-08 	0.01193814927 	-7.696157194e-08 	2.275743055e-05
0.4758716016 	0.02905966125 	-0.00709444876 	4.458233739e-08 	0.0122472318 	-7.693343908e-08 	2.334662774e-05
0.4760471642 	0.02974594891 	-0.007259319016 	4.445406248e-08 	0.01253601913 	-7.675580905e-08 	2.389713667e-05
0.4762227269 	0.0304730793 	-0.007434281909 	4.421299054e-08 	0.01284226561 	-7.639236951e-08 	2.448092757e-05
0.4764955107 	0.03130578749 	-0.007634844385 	4.378125966e-08 	0.01319294152 	-7.571401002e-08 	2.514941332e-05
0.4767734216 	0.03214246977 	-0.007836392908 	4.314746112e-08 	0.01354482713 	-7.469297898e-08 	2.582020509e-05
0.4770565557 	0.0329063889 	-0.008020461976 	4.235027335e-08 	0.01386592033 	-7.339061928e-08 	2.643229799e-05
0.4773450114 	0.03360169004 	-0.008188066104 	4.139214107e-08 	0.01415818413 	-7.181009885e-08 	2.698943402e-05
0.4776388886 	0.03423203526 	-0.00834000172 	4.027113207e-08 	0.01442303876 	-6.994619396e-08 	2.749432055e-05
0.4779382892 	0.03480061648 	-0.008477003519 	3.898460922e-08 	0.01466180823 	-6.779283539e-08 	2.794948152e-05
0.4782433171 	0.03531028975 	-0.008599744556 	3.753183085e-08 	0.01487570122 	-6.53472685e-08 	2.835722102e-05
0.4785540779 	0.03576378731 	-0.00870886629 	3.591716797e-08 	0.01506585133 	-6.261569622e-08 	2.871969997e-05
0.4788706795 	0.03616474884 	-0.008805233185 	3.415728393e-08 	0.01523379608 	-5.962819224e-08 	2.903984934e-05
0.4791932316 	0.0365176175 	-0.008889905695 	3.226476875e-08 	0.01538144155 	-5.640974718e-08 	2.932130264e-05
0.4795218461 	0.03682588465 	-0.008963710995 	3.02329833e-08 	0.01551025854 	-5.294928906e-08 	2.956686363e-05
0.4798566368 	0.03709207169 	-0.009027247299 	2.80560309e-08 	0.01562128918 	-4.923588639e-08 	2.97785189e-05
0.48019772 	0.03731845905 	-0.009081064731 	2.573503738e-08 	0.01571549633 	-4.527192102e-08 	2.99581039e-05
0.4805452138 	0.03750709819 	-0.009125661195 	2.327053469e-08 	0.01579375123 	-4.105835392e-08 	3.010727949e-05
0.4808992388 	0.03765982337 	-0.009161480902 	2.066249376e-08 	0.01585682791 	-3.659493651e-08 	3.022752117e-05
0.4812599177 	0.03777826467 	-0.009188919305 	1.791053097e-08 	0.01590541433 	-3.188082633e-08 	3.032014039e-05
0.4816273755 	0.03786386245 	-0.009208326525 	1.501383848e-08 	0.01594011884 	-2.691440311e-08 	3.038629684e-05
0.4820017397 	0.03791788224 	-0.009220010771 	1.19711993e-08 	0.01596147628 	-2.16932988e-08 	3.042701006e-05
0.48238314 	0.0379414293 	-0.009224241782 	8.781018567e-09 	0.01596995409 	-1.621445877e-08 	3.044317111e-05
0.4827717088 	0.03793546248 	-0.00922125415 	5.441359436e-09 	0.01596595816 	-1.047420571e-08 	3.043555377e-05
0.4831675807 	0.03790080728 	-0.009211250468 	1.949982166e-09 	0.01594983842 	-4.468304731e-09 	3.040482506e-05
0.4835708931 	0.03783816794 	-0.009194404244 	-1.695612865e-09 	0.01592189388 	1.807966868e-09 	3.035155499e-05
0.4839817856 	0.03774813851 	-0.009170862609 	-5.498137597e-09 	0.01588237736 	8.359742717e-09 	3.027622552e-05
0.4844004009 	0.03763121316 	-0.009140748808 	-9.460463221e-09 	0.01583149982 	1.519248118e-08 	3.017923879e-05
0.4848268841 	0.0374877955 	-0.009104164494 	-1.35855603e-08 	0.01576943434 	2.23118671e-08 	3.006092474e-05
0.485261383 	0.03731820727 	-0.009061191857 	-1.78764306e-08 	0.01569631978 	2.972369859e-08 	2.992154807e-05
0.4857040484 	0.03712269647 	-0.009011895605 	-2.233602891e-08 	0.01561226421 	3.743375578e-08 	2.976131479e-05
0.4861550336 	0.03690144486 	-0.008956324828 	-2.696717316e-08 	0.0155173481 	4.544764827e-08 	2.958037831e-05
0.4866144951 	0.03665457518 	-0.008894514769 	-3.177244099e-08 	0.01541162738 	5.377063785e-08 	2.937884522e-05
0.4870825921 	0.03638215814 	-0.008826488535 	-3.675405152e-08 	0.01529513635 	6.24074334e-08 	2.915678095e-05
0.487559487 	0.03608421911 	-0.008752258766 	-4.191373055e-08 	0.01516789061 	7.136195465e-08 	2.89142152e-05
0.4880453452 	0.03576074497 	-0.008671829292 	-4.725255869e-08 	0.01502988984 	8.063706243e-08 	2.865114738e-05
0.4885403351 	0.03541169087 	-0.0085851968 	-5.277080231e-08 	0.01488112074 	9.023425441e-08 	2.836755212e-05
0.4890446283 	0.0350369872 	-0.00849235253 	-5.846772924e-08 	0.01472155993 	1.001533278e-07 	2.806338488e-05
0.4895583997 	0.03463654686 	-0.008393284012 	-6.434141442e-08 	0.01455117706 	1.103920158e-07 	2.773858777e-05
0.4900818274 	0.03421027269 	-0.008287976851 	-7.038854579e-08 	0.01436993789 	1.209456105e-07 	2.739309554e-05
0.4906150929 	0.03375806534 	-0.008176416552 	-7.660424868e-08 	0.01417780763 	1.318065996e-07 	2.702684185e-05
0.4911583811 	0.03327983123 	-0.008058590367 	-8.298195641e-08 	0.01397475428 	1.429643518e-07 	2.663976574e-05
0.4917118805 	0.0327754907 	-0.007934489114 	-8.951336417e-08 	0.01376075207 	1.544049051e-07 	2.623181804e-05
0.4922757829 	0.03224498595 	-0.007804108883 	-9.61885085e-08 	0.01353578474 	1.661109181e-07 	2.58029678e-05
0.4928502838 	0.03168828827 	-0.007667452505 	-1.029960104e-07 	0.01329984863 	1.780618448e-07 	2.535320799e-05
0.4934355824 	0.0311054038 	-0.007524530593 	-1.099235023e-07 	0.01305295505 	1.902343795e-07 	2.48825602e-05
0.4940318817 	0.03049637678 	-0.007375361862 	-1.169582321e-07 	0.01279513172 	2.026031944e-07 	2.439107728e-05
0.4946393885 	0.0298612887 	-0.007219972379 	-1.24087827e-07 	0.01252642252 	2.151419944e-07 	2.387884285e-05
0.4952583133 	0.0292002518 	-0.007058393208 	-1.313013296e-07 	0.01224688472 	2.278252464e-07 	2.334596613e-05
0.4958888709 	0.02851339521 	-0.006890655953 	-1.38590568e-07 	0.01195658285 	2.406306627e-07 	2.279257006e-05
0.4965312797 	0.02780084417 	-0.006716786383 	-1.459510622e-07 	0.01165557969 	2.535400408e-07 	2.22187744e-05
0.4971857627 	0.02706269611 	-0.006536802356 	-1.53372778e-07 	0.01134394063 	2.665118847e-07 	2.162470373e-05
0.4978525466 	0.02629900956 	-0.006350706493 	-1.608692195e-07 	0.01102172082 	2.795608963e-07 	2.101046322e-05
0.4985318627 	0.02550984675 	-0.006158468338 	-1.684786198e-07 	0.01068890979 	2.927669975e-07 	2.03760329e-05
0.4992239466 	0.02469716542 	-0.005960535626 	-1.751505819e-07 	0.01034627751 	3.043589215e-07 	1.972288053e-05
0.4999290382 	0.02386732057 	-0.005758538122 	-1.797652258e-07 	0.009996574868 	3.124400203e-07 	1.90562501e-05
0.5006473819 	0.02302776648 	-0.005554373465 	-1.831122853e-07 	0.009643023747 	3.183308714e-07 	1.83822834e-05
0.501379227 	0.02218298249 	-0.005349090482 	-1.857971147e-07 	0.009287456783 	3.23006935e-07 	1.770447394e-05
0.502124827 	0.0213364998 	-0.00514347094 	-1.875167214e-07 	0.008931309341 	3.258874936e-07 	1.702555793e-05
0.5028844406 	0.02049280947 	-0.004938545545 	-1.880818538e-07 	0.008576476947 	3.266296598e-07 	1.634914877e-05
0.5036583311 	0.01965735612 	-0.004735579022 	-1.87176013e-07 	0.008225269671 	3.247100199e-07 	1.567965009e-05
0.5044467669 	0.01883690055 	-0.004536228313 	-1.843962487e-07 	0.007880727183 	3.194649091e-07 	1.502285635e-05
0.5052500214 	0.01803966719 	-0.004342492608 	-1.793691661e-07 	0.007546425215 	3.102803652e-07 	1.438558388e-05
0.506068373 	0.01718027853 	-0.004131922482 	-1.721507081e-07 	0.007182166377 	2.985159908e-07 	1.369120529e-05
0.507324668 	0.01621146402 	-0.003895114166 	-1.577366048e-07 	0.00677395009 	2.720956056e-07 	1.291303159e-05
0.5085949819 	0.01527817332 	-0.003671278072 	-1.375215542e-07 	0.006392783863 	2.334544795e-07 	1.218642283e-05
0.5098794711 	0.01429624742 	-0.003442776174 	-1.538348191e-07 	0.006197816976 	9.284334891e-08 	1.181476175e-05
0.5111782938 	0.0132332555 	-0.003194604886 	-1.703713284e-07 	0.006182986433 	-1.297590685e-08 	1.178649061e-05
0.5124916099 	0.0122772224 	-0.002962001195 	-1.557151565e-07 	0.006197543942 	-4.718352243e-09 	1.181424127e-05
0.5138195812 	0.01144878716 	-0.002746155759 	-1.498823345e-07 	0.006214571384 	-1.387251657e-08 	1.184670031e-05
0.5151623712 	0.01072704142 	-0.002540565771 	-1.461933204e-07 	0.006239184733 	-2.258485423e-08 	1.189362019e-05
0.5165201452 	0.01010328704 	-0.002345628089 	-1.408720379e-07 	0.006277666533 	-3.696089927e-08 	1.19669772e-05
0.5178930705 	0.009570123685 	-0.002160880002 	-1.357403236e-07 	0.006329883046 	-4.907277872e-08 	1.206651639e-05
0.5192813161 	0.009120988368 	-0.00198614609 	-1.293271996e-07 	0.006392710223 	-5.818420896e-08 	1.218628245e-05
0.520685053 	0.008751302251 	-0.001823210919 	-1.210380938e-07 	0.006462393042 	-6.534605256e-08 	1.231911727e-05
0.522104454 	0.0084534234 	-0.001671617832 	-1.14642809e-07 	0.006539424384 	-7.51528547e-08 	1.246596041e-05
0.523539694 	0.008214647538 	-0.001526632137 	-1.115335983e-07 	0.006627583492 	-8.655359473e-08 	1.263401618e-05
0.5249909497 	0.008025979718 	-0.001386446284 	-1.084579807e-07 	0.00672487957 	-9.472893537e-08 	1.281948954e-05
0.5264583998 	0.007881415769 	-0.001251806466 	-1.049810934e-07 	0.006826604754 	-9.96382386e-08 	1.301340602e-05
0.527942225 	0.007774318776 	-0.001122267696 	-1.019404177e-07 	0.006929927182 	-1.025754592e-07 	1.321036728e-05
0.5294426081 	0.007698869463 	-0.0009972065577 	-9.928978566e-08 	0.007033094609 	-1.042032576e-07 	1.340703307e-05
0.5309597337 	0.007650239212 	-0.0008760875309 	-9.69815864e-08 	0.007135064115 	-1.049114722e-07 	1.360141529e-05
0.5324937889 	0.007624453158 	-0.0007584394581 	-9.497780079e-08 	0.007235094337 	-1.049025341e-07 	1.37921007e-05
0.5340449624 	0.007618244284 	-0.0006438579411 	-9.324151281e-08 	0.007332670019 	-1.043468634e-07 	1.397810707e-05
0.5356134452 	0.007628922473 	-0.0005319953879 	-9.174148536e-08 	0.007427443163 	-1.033714146e-07 	1.415877102e-05
0.5371994306 	0.007654266869 	-0.0004225523081 	-9.045023295e-08 	0.007519184734 	-1.020693719e-07 	1.433365595e-05
0.5388031139 	0.007692437996 	-0.0003152700519 	-8.934342285e-08 	0.007607749465 	-1.005090137e-07 	1.450248495e-05
0.5404246925 	0.007741906512 	-0.0002099246939 	-8.839950278e-08 	0.00769305218 	-9.874274045e-08 	1.466509563e-05
0.5420643661 	0.00780139573 	-0.0001063224072 	-8.759463162e-08 	0.007775046599 	-9.680424485e-08 	1.482139978e-05
0.5437223366 	0.007869835302 	-4.312558281e-06 	-8.692346322e-08 	0.00785371793 	-9.472060991e-08 	1.49713692e-05
0.5453988083 	0.007946321121 	9.625528081e-05 	-8.638769821e-08 	0.007929075003 	-9.251900818e-08 	1.511502073e-05
0.5470939875 	0.008030092021 	0.0001955507132 	-8.595758792e-08 	0.008001130618 	-9.021159888e-08 	1.525237876e-05
0.5488080831 	0.008120503905 	0.0002936846141 	-8.561233169e-08 	0.008069908361 	-8.780858678e-08 	1.538348825e-05
0.5505413061 	0.008217004098 	0.0003907345652 	-8.535001618e-08 	0.008135440144 	-8.532006921e-08 	1.550841004e-05
0.5522938699 	0.00831911998 	0.0004867884163 	-8.516285311e-08 	0.008197756627 	-8.275071005e-08 	1.562720258e-05
0.5540659904 	0.008426445467 	0.0005819236288 	-8.504402386e-08 	0.008256890568 	-8.010506602e-08 	1.573992831e-05
0.5558578859 	0.008538630403 	0.000676208422 	-8.498738889e-08 	0.008312873057 	-7.738593109e-08 	1.584664649e-05
0.5576697768 	0.008655371788 	0.0007697027084 	-8.498714847e-08 	0.008365733519 	-7.459503821e-08 	1.594741322e-05
0.5595018865 	0.008776406624 	0.0008624590384 	-8.503807976e-08 	0.008415498918 	-7.173323997e-08 	1.60422799e-05
0.5613544406 	0.008901506151 	0.0009545237123 	-8.513577777e-08 	0.008462192692 	-6.880073058e-08 	1.613129122e-05
0.563227667 	0.009030470832 	0.001045937264 	-8.52759275e-08 	0.008505835454 	-6.579712025e-08 	1.621448645e-05
0.5651217966 	0.009163125988 	0.001136734537 	-8.545435481e-08 	0.008546444774 	-6.272161756e-08 	1.62918991e-05
0.5670370626 	0.009299318329 	0.001226945228 	-8.566729892e-08 	0.008584034789 	-5.95731811e-08 	1.636355612e-05
0.5689737009 	0.009438913057 	0.001316594441 	-8.591116068e-08 	0.008618616642 	-5.635050809e-08 	1.642947874e-05
0.5709319499 	0.009581791312 	0.001405702952 	-8.618247129e-08 	0.008650198487 	-5.305209104e-08 	1.648968251e-05
0.5729120508 	0.009727847984 	0.001494287443 	-8.647787336e-08 	0.008678785662 	-4.967629236e-08 	1.654417762e-05
0.5749142474 	0.009876989808 	0.001582360707 	-8.679409247e-08 	0.008704380906 	-4.622137761e-08 	1.659296926e-05
0.5769387863 	0.01002913369 	0.001669931807 	-8.712790775e-08 	0.008726984597 	-4.268555106e-08 	1.663605818e-05
0.5789859169 	0.01018420524 	0.001757006211 	-8.747612206e-08 	0.008746595004 	-3.90669912e-08 	1.667344107e-05
0.5810558911 	0.01034213742 	0.001843585895 	-8.783553296e-08 	0.008763208566 	-3.536388588e-08 	1.670511113e-05
0.583148964 	0.01050286937 	0.001929669411 	-8.820290492e-08 	0.00877682018 	-3.157446815e-08 	1.673105865e-05
0.5852653933 	0.01066634527 	0.002015251951 	-8.857494305e-08 	0.00878742352 	-2.769705351e-08 	1.675127157e-05
0.5874054395 	0.01083251331 	0.002100325367 	-8.894826877e-08 	0.008795011365 	-2.373007961e-08 	1.676573611e-05
0.5895693664 	0.01100132468 	0.00218487819 	-8.93193974e-08 	0.008799575959 	-1.967214881e-08 	1.677443749e-05
0.5917574402 	0.01117273262 	0.002268895623 	-8.968471793e-08 	0.008801109401 	-1.552207435e-08 	1.677736066e-05
0.5939699306 	0.01134669146 	0.002352359519 	-9.004047492e-08 	0.008799604058 	-1.127893081e-08 	1.677449106e-05
0.5962071099 	0.01152315566 	0.002435248345 	-9.038275257e-08 	0.008795053027 	-6.942109743e-09 	1.676581553e-05
0.5984692536 	0.01170207885 	0.002517537136 	-9.070746133e-08 	0.008787450642 	-2.511380819e-09 	1.675132327e-05
0.6007566404 	0.01188341278 	0.002599197429 	-9.101032703e-08 	0.008776793033 	2.013040462e-09 	1.673100691e-05
0.6030695519 	0.01206710629 	0.00268019719 	-9.128688297e-08 	0.008763078757 	6.630417726e-09 	1.670486368e-05
0.6054082729 	0.01225310412 	0.002760500732 	-9.153246546e-08 	0.008746309504 	1.133941022e-08 	1.667289683e-05
0.6077730914 	0.01244134571 	0.002840068622 	-9.17422132e-08 	0.0087264909 	1.613797979e-08 	1.663511706e-05
0.6101642987 	0.01263176379 	0.002918857573 	-9.191107146e-08 	0.008703633423 	2.10232869e-08 	1.659154435e-05
0.6125821893 	0.01282428287 	0.002996820341 	-9.20338018e-08 	0.008677753453 	2.599157352e-08 	1.654220994e-05
0.6150270608 	0.01301881757 	0.003073905603 	-9.210499847e-08 	0.008648874479 	3.103803017e-08 	1.648715859e-05
0.6174992144 	0.01321527065 	0.003150057838 	-9.211911275e-08 	0.008617028501 	3.615664311e-08 	1.64264513e-05
0.6199989545 	0.01341353085 	0.003225217202 	-9.20704868e-08 	0.008582257655 	4.134001588e-08 	1.636016841e-05
0.622526589 	0.01361347034 	0.003299319402 	-9.195339862e-08 	0.00854461612 	4.657915545e-08 	1.628841318e-05
0.625082429 	0.01381494186 	0.003372295572 	-9.176211993e-08 	0.00850417234 	5.186320811e-08 	1.621131609e-05
0.6276667894 	0.01401777526 	0.003444072147 	-9.149098877e-08 	0.008461011649 	5.717912099e-08 	1.612903982e-05
0.6302799884 	0.01422177363 	0.003514570755 	-9.113449805e-08 	0.008415239352 	6.251118924e-08 	1.60417851e-05
0.6329223478 	0.01442670865 	0.003583708104 	-9.068740036e-08 	0.008366984378 	6.784042282e-08 	1.594979771e-05
0.6355941931 	0.01463231516 	0.0036513959 	-9.01448262e-08 	0.008316403579 	7.314362186e-08 	1.585337665e-05
0.6382958531 	0.01483828486 	0.003717540772 	-8.950240714e-08 	0.008263686803 	7.839197467e-08 	1.575288382e-05
0.6410276607 	0.01504425887 	0.003782044234 	-8.875638027e-08 	0.008209062846 	8.354886739e-08 	1.564875538e-05
0.6437899523 	0.01524981917 	0.003844802671 	-8.790361375e-08 	0.008152806363 	8.856636691e-08 	1.554151488e-05
0.646583068 	0.01545447883 	0.003905707375 	-8.694144744e-08 	0.008095245783 	9.337933066e-08 	1.543178842e-05
0.6494073518 	0.01565767111 	0.003964644619 	-8.586694988e-08 	0.008036772171 	9.789537557e-08 	1.532032146e-05
0.6522631514 	0.01585873793 	0.004021495763 	-8.467505408e-08 	0.007977848738 	1.019757213e-07 	1.520799702e-05
0.6551508186 	0.01605691958 	0.004076138076 	-8.33576163e-08 	0.007919020712 	1.053967016e-07 	1.509585445e-05
0.658070709 	0.01625135246 	0.00412844586 	-8.188616452e-08 	0.007860916418 	1.078225682e-07 	1.498509152e-05
0.6610231822 	0.01644109181 	0.004178294957 	-8.022398697e-08 	0.007804226599 	1.086902128e-07 	1.487702497e-05
0.6640086017 	0.01662526581 	0.004225614712 	-7.848715965e-08 	0.007749644603 	1.073400239e-07 	1.477297652e-05
0.6670273351 	0.01680333786 	0.004270273052 	-7.532084368e-08 	0.007697169574 	1.06625957e-07 	1.467294453e-05
0.6700797543 	0.01697512247 	0.004312099321 	-7.238805042e-08 	0.007646186501 	1.011053668e-07 	1.457575662e-05
0.6731662352 	0.01714238013 	0.004352343559 	-7.296262279e-08 	0.007597751793 	9.902921514e-08 	1.44834266e-05
0.6762871577 	0.01729529286 	0.00438980237 	-5.2451527e-08 	0.007560202043 	3.528388296e-08 	1.441184634e-05
0.6794429063 	0.01739741002 	0.004416143127 	-3.149724755e-08 	0.007558351193 	-4.016105014e-08 	1.440831811e-05
0.6826338695 	0.01746122782 	0.004433754994 	-3.465159416e-08 	0.007584030918 	-5.342750932e-08 	1.44572708e-05
0.6858604404 	0.01752353438 	0.004450847144 	-3.587395606e-08 	0.007611032696 	-5.660168767e-08 	1.45087437e-05
0.6891230163 	0.0175833492 	0.004467099885 	-3.345184846e-08 	0.007637224836 	-5.289808886e-08 	1.455867319e-05
0.6924219988 	0.01763949792 	0.004483029209 	-3.041368604e-08 	0.007662108872 	-5.034902778e-08 	1.460610908e-05
0.6957577944 	0.01769078557 	0.004499521541 	-2.571505832e-08 	0.007686552835 	-4.561677796e-08 	1.465270607e-05
0.6991308138 	0.01773659947 	0.004517235288 	-2.107541347e-08 	0.007712172073 	-3.990506217e-08 	1.470154346e-05
0.7025414724 	0.0177773044 	0.004535157208 	-2.762542435e-08 	0.007739339488 	-1.701651816e-08 	1.47533321e-05
0.7059901901 	0.01778423872 	0.004543330578 	-3.90730338e-08 	0.007787440027 	4.437557174e-09 	1.48450251e-05
0.7094773917 	0.01777018493 	0.004543997077 	-4.004729156e-08 	0.007847507614 	-2.365031328e-09 	1.495953061e-05
0.7130035066 	0.01776911947 	0.004546910256 	-3.829568658e-08 	0.007895860236 	-1.100738572e-08 	1.505170415e-05
0.7165689691 	0.01777051279 	0.00454990064 	-3.916419873e-08 	0.007938643112 	-1.303759814e-08 	1.51332602e-05
0.7201742182 	0.01777107922 	0.004551995773 	-3.938343077e-08 	0.007977507014 	-1.441688527e-08 	1.52073456e-05
0.7238196978 	0.01776954398 	0.004553416509 	-3.891497166e-08 	0.0080147323 	-1.552580893e-08 	1.527830734e-05
0.727505857 	0.01776534128 	0.004553996202 	-3.839493197e-08 	0.008050622103 	-1.707063062e-08 	1.534672328e-05
0.7312331497 	0.01775833497 	0.004553695828 	-3.795632638e-08 	0.008085222851 	-1.852273331e-08 	1.541268193e-05
0.7350020349 	0.01774844647 	0.004552503318 	-3.767538077e-08 	0.00811850039 	-1.977681975e-08 	1.547611816e-05
0.7387709215 	0.01773569728 	0.004550420656 	-3.750969535e-08 	0.008150250798 	-2.092791626e-08 	1.553664327e-05
0.7424982157 	0.01772023014 	0.004547481482 	-3.738954836e-08 	0.008180298507 	-2.208011417e-08 	1.559392255e-05
0.7461843763 	0.01770217274 	0.004543721598 	-3.727466328e-08 	0.008208664986 	-2.328431073e-08 	1.564799694e-05
0.7498298574 	0.01768161386 	0.004539168294 	-3.715689847e-08 	0.008235447557 	-2.45391588e-08 	1.569905197e-05
0.7534351078 	0.01765864702 	0.004533850055 	-3.704259711e-08 	0.008260727893 	-2.582342764e-08 	1.574724331e-05
0.7570005716 	0.01763337049 	0.004527796606 	-3.693769785e-08 	0.00828457355 	-2.712039533e-08 	1.579269976e-05
0.7605266877 	0.01760588559 	0.00452103783 	-3.684270528e-08 	0.008307039556 	-2.842382281e-08 	1.583552622e-05
0.7640138905 	0.01757629549 	0.004513603462 	-3.675419269e-08 	0.008328170885 	-2.973365549e-08 	1.58758084e-05
0.7674626093 	0.01754470461 	0.004505523078 	-3.666787745e-08 	0.008348004072 	-3.105043954e-08 	1.591361597e-05
0.770873269 	0.01751121837 	0.004496826252 	-3.658053312e-08 	0.008366568406 	-3.237254382e-08 	1.594900475e-05
0.7742462894 	0.01747594283 	0.004487542673 	-3.649035703e-08 	0.008383887075 	-3.369612914e-08 	1.598201895e-05
0.777582086 	0.01743898418 	0.004477702143 	-3.639650055e-08 	0.00839997832 	-3.501629797e-08 	1.601269333e-05
0.7808810695 	0.01740044816 	0.004467334503 	-3.629848949e-08 	0.008414856547 	-3.632816155e-08 	1.604105537e-05
0.7841436462 	0.0173604396 	0.004456469532 	-3.619587657e-08 	0.008428533301 	-3.762736533e-08 	1.606712706e-05
0.787370218 	0.01731906199 	0.004445136864 	-3.608813995e-08 	0.008441018075 	-3.891016689e-08 	1.609092651e-05
0.7905611821 	0.01727641733 	0.004433365929 	-3.597470978e-08 	0.00845231894 	-4.017332252e-08 	1.61124691e-05
0.7937169314 	0.01723260599 	0.004421185917 	-3.585501536e-08 	0.008462443049 	-4.141396949e-08 	1.613176847e-05
0.7968378547 	0.01718772665 	0.004408625762 	-3.572850368e-08 	0.008471397023 	-4.262957025e-08 	1.614883723e-05
0.7999243362 	0.01714187635 	0.004395714139 	-3.55946277e-08 	0.008479187262 	-4.381790822e-08 	1.616368759e-05
0.8029767561 	0.0170951506 	0.00438247946 	-3.545281992e-08 	0.008485820196 	-4.497709944e-08 	1.61763318e-05
0.8059954902 	0.01704764336 	0.004368949875 	-3.530246463e-08 	0.008491302497 	-4.610559917e-08 	1.618678259e-05
0.8089809102 	0.01699944727 	0.004355153276 	-3.514288703e-08 	0.008495641201 	-4.720217709e-08 	1.619505337e-05
0.8119333839 	0.01695065405 	0.004341117405 	-3.497334674e-08 	0.008498843616 	-4.826588824e-08 	1.620115806e-05
0.8148532749 	0.01690135483 	0.00432686993 	-3.479302186e-08 	0.008500917299 	-4.929606769e-08 	1.620511108e-05
0.8177409426 	0.01685164014 	0.004312438405 	-3.4601009e-08 	0.008501870264 	-5.029229587e-08 	1.62069277e-05
0.8205967427 	0.01680160004 	0.004297850287 	-3.439632916e-08 	0.00850171107 	-5.125435507e-08 	1.620662423e-05
0.8234210268 	0.01675132451 	0.004283133029 	-3.417792546e-08 	0.008500448757 	-5.218220196e-08 	1.620421791e-05
0.8262141429 	0.01670090369 	0.004268314134 	-3.39446634e-08 	0.008498092816 	-5.307593843e-08 	1.619972683e-05
0.8289764348 	0.0166504282 	0.00425342122 	-3.369533241e-08 	0.00849465316 	-5.393578426e-08 	1.619316989e-05
0.8317082427 	0.0165999894 	0.004238482071 	-3.342864802e-08 	0.008490140104 	-5.476204917e-08 	1.618456675e-05
0.8344099031 	0.01654967965 	0.004223524704 	-3.314325501e-08 	0.008484564358 	-5.555510538e-08 	1.617393783e-05
0.8370817486 	0.0164995926 	0.004208577424 	-3.283773129e-08 	0.008477937008 	-5.631536097e-08 	1.616130426e-05
0.8397241082 	0.01644982346 	0.004193668883 	-3.251059234e-08 	0.008470269517 	-5.704323425e-08 	1.614668789e-05
0.8423373074 	0.01640046926 	0.004178828142 	-3.216029618e-08 	0.008461573725 	-5.773912919e-08 	1.613011129e-05
0.844921668 	0.01635162914 	0.004164084719 	-3.17852485e-08 	0.008451861859 	-5.840341198e-08 	1.611159778e-05
0.8474775082 	0.01630340462 	0.004149468651 	-3.138380813e-08 	0.00844114655 	-5.903638881e-08 	1.609117142e-05
0.8500051427 	0.01625589987 	0.004135010542 	-3.095429268e-08 	0.008429440862 	-5.963828494e-08 	1.606885713e-05
0.8525048829 	0.01620922199 	0.004120741616 	-3.049498417e-08 	0.008416758328 	-6.020922484e-08 	1.604468069e-05
0.8549770366 	0.01616348133 	0.004106693764 	-3.000413484e-08 	0.008403112993 	-6.074921325e-08 	1.601866889e-05
0.8574219081 	0.01611879171 	0.004092899593 	-2.947997293e-08 	0.008388519472 	-6.125811741e-08 	1.599084958e-05
0.8598397987 	0.0160752708 	0.004079392465 	-2.892070842e-08 	0.008372993015 	-6.173565015e-08 	1.596125184e-05
0.862231006 	0.01603304036 	0.004066206546 	-2.832453881e-08 	0.008356549579 	-6.218135359e-08 	1.592990608e-05
0.8645958245 	0.01599222662 	0.00405337684 	-2.768965481e-08 	0.008339205916 	-6.259458329e-08 	1.589684424e-05
0.8669345455 	0.01595296056 	0.00404093923 	-2.701424611e-08 	0.008320979667 	-6.297449296e-08 	1.586209994e-05
0.8692474569 	0.01591537824 	0.004028930513 	-2.629650699e-08 	0.008301889469 	-6.332001928e-08 	1.582570872e-05
0.8715348435 	0.01587962123 	0.004017388435 	-2.553464211e-08 	0.008281955075 	-6.362986621e-08 	1.578770822e-05
0.8737969871 	0.0158458369 	0.004006351721 	-2.472687231e-08 	0.008261197482 	-6.390248897e-08 	1.574813848e-05
0.8760341663 	0.01581417882 	0.003995860105 	-2.387144055e-08 	0.008239639082 	-6.413607696e-08 	1.570704218e-05
0.8782466565 	0.0157848072 	0.003985954357 	-2.296661813e-08 	0.008217303818 	-6.432853534e-08 	1.566446496e-05
0.8804347301 	0.01575788921 	0.003976676309 	-2.201071111e-08 	0.008194217367 	-6.447746434e-08 	1.562045577e-05
0.8825986568 	0.01573359948 	0.003968068875 	-2.100206731e-08 	0.008170407342 	-6.458013572e-08 	1.557506724e-05
0.8847387028 	0.01571212051 	0.003960176075 	-1.99390837e-08 	0.008145903514 	-6.463346566e-08 	1.552835614e-05
0.8868551318 	0.01569364305 	0.003953043042 	-1.882021475e-08 	0.008120738071 	-6.463398283e-08 	1.548038381e-05
0.8889482045 	0.0156783666 	0.003946716042 	-1.764398149e-08 	0.008094945905 	-6.457779005e-08 	1.543121677e-05
0.8910181784 	0.01566649982 	0.003941242479 	-1.640898181e-08 	0.008068564942 	-6.446051828e-08 	1.538092732e-05
0.8930653087 	0.01565826091 	0.003936670891 	-1.511390208e-08 	0.00804163653 	-6.427727063e-08 	1.532959428e-05
0.8950898473 	0.01565387809 	0.003933050952 	-1.375753048e-08 	0.008014205876 	-6.402255408e-08 	1.527730383e-05
0.8970920436 	0.01565358985 	0.003930433454 	-1.233877219e-08 	0.007986322569 	-6.36901956e-08 	1.52241505e-05
0.8990721441 	0.01565764533 	0.003928870285 	-1.085666679e-08 	0.007958041194 	-6.327323899e-08 	1.517023834e-05
0.9010303927 	0.01566630453 	0.003928414396 	-9.310408222e-09 	0.007929422055 	-6.276381777e-08 	1.51156823e-05
0.9029670306 	0.01567983841 	0.003929119751 	-7.69936763e-09 	0.007900532043 	-6.215299804e-08 	1.506060991e-05
0.9048822962 	0.01569852888 	0.003931041262 	-6.023119355e-09 	0.007871445687 	-6.14305832e-08 	1.500516323e-05
0.9067764254 	0.01572266855 	0.003934234706 	-4.281470779e-09 	0.007842246416 	-6.058486934e-08 	1.494950131e-05
0.9086496514 	0.01575256033 	0.003938756615 	-2.474496894e-09 	0.007813028103 	-5.96023352e-08 	1.489380308e-05
0.910502205 	0.01578851657 	0.003944664144 	-6.025815696e-10 	0.007783896957 	-5.846724223e-08 	1.483827102e-05
0.9123343142 	0.01583085785 	0.003952014896 	1.333531049e-09 	0.007754973853 	-5.716110823e-08 	1.478313555e-05
0.9141462048 	0.01587991122 	0.003960866722 	3.332668738e-09 	0.007726397224 	-5.566199924e-08 	1.472866055e-05
0.9159380997 	0.01593600767 	0.003971277456 	5.393136793e-09 	0.007698326659 	-5.394356207e-08 	1.467515025e-05
0.9177102197 	0.01599947869 	0.00398330461 	7.512582098e-09 	0.007670947425 	-5.197369757e-08 	1.462295782e-05
0.9194627831 	0.01607065162 	0.003997004985 	9.687797647e-09 	0.007644476159 	-4.97127682e-08 	1.457249623e-05
0.9211960055 	0.01614984332 	0.004012434198 	1.191445094e-08 	0.007619168097 	-4.71112782e-08 	1.452425203e-05
0.9229101006 	0.01623735182 	0.004029646085 	1.418673492e-08 	0.0075953263 	-4.410710678e-08 	1.447880294e-05
0.9246052793 	0.01633344519 	0.004048691948 	1.649701758e-08 	0.007573313521 	-4.062264766e-08 	1.443684046e-05
0.9262817504 	0.01643834669 	0.004069619566 	1.883554613e-08 	0.007553567535 	-3.656304319e-08 	1.439919913e-05
0.9279397204 	0.01655221535 	0.004092471949 	2.119078815e-08 	0.007536621175 	-3.181663469e-08 	1.436689466e-05