0.4709558481 	0.0264796397 	6.427710413e-08 	-3.513640947e-12
0.4711314108 	0.07280965552 	4.18036792e-07 	-2.68375527e-11
0.4713069734 	0.145533751 	1.068365047e-06 	-8.122761168e-11
0.471482536 	0.2181535473 	1.165643741e-06 	-1.408697148e-10
0.4716580986 	0.2905985268 	1.910931593e-07 	-2.078466497e-10
0.4718336613 	0.3627000248 	-4.231448807e-07 	-3.673079167e-10
0.4720092239 	0.4341501661 	2.578225208e-06 	-7.192698174e-10
0.4721847865 	0.5045059207 	1.113667651e-05 	-1.236088196e-09
0.4723603491 	0.5732587686 	2.390632703e-05 	-1.812014103e-09
0.4725359118 	0.6399433968 	5.596302039e-05 	-3.723944234e-09
0.4727114744 	0.7042294167 	7.195918541e-05 	-3.069979891e-09
0.472887037 	0.7660106468 	4.409667603e-05 	-7.074011558e-10
0.4730625996 	0.8253582751 	3.959518618e-05 	-3.084593756e-09
0.4732381623 	0.8823384521 	6.162862486e-05 	-4.922800954e-09
0.4734137249 	0.9369787738 	7.339581183e-05 	-4.55772905e-09
0.4735892875 	0.9893263314 	8.205814701e-05 	-5.148405433e-09
0.4737648501 	1.039453018 	9.161845748e-05 	-5.812361348e-09
0.4739404128 	1.087446435 	0.0001018864356 	-6.48721256e-09
0.4741159754 	1.133403728 	0.0001126121916 	-7.17984492e-09
0.474291538 	1.177426797 	0.0001237404148 	-7.898635261e-09
0.4744671006 	1.219618282 	0.0001352501922 	-8.642178569e-09
0.4746426632 	1.260078239 	0.0001471168989 	-9.409049993e-09
0.4748182259 	1.298901348 	0.0001593169544 	-1.019819705e-08
0.4749937885 	1.3361749 	0.0001718280365 	-1.100841957e-08
0.4751693511 	1.371979285 	0.000184626466 	-1.183799033e-08
0.4753449137 	1.406398517 	0.0001977034005 	-1.268833058e-08
0.4755204764 	1.439529455 	0.0002110614966 	-1.356001281e-08
0.475696039 	1.471467487 	0.0002246765661 	-1.444913416e-08
0.4758716016 	1.502290669 	0.00023857429 	-1.535607476e-08
0.4760471642 	1.532064 	0.0002530462261 	-1.628511307e-08
0.4762227269 	1.564764897 	0.0002698423754 	-1.73655596e-08
0.4764955107 	1.603939123 	0.000290301876 	-1.87395128e-08
0.4767734216 	1.645506521 	0.0003135030352 	-2.03073947e-08
0.4770565557 	1.685832358 	0.0003383029962 	-2.195252718e-08
0.4773450114 	1.724993162 	0.0003642079523 	-2.367218452e-08
0.4776388886 	1.763062862 	0.0003911401611 	-2.546749678e-08
0.4779382892 	1.800113239 	0.0004191377201 	-2.734012876e-08
0.4782433171 	1.83621382 	0.0004482301784 	-2.929473416e-08
0.4785540779 	1.87143116 	0.000478474137 	-3.133733107e-08
0.4788706795 	1.905827589 	0.000509929701 	-3.346645352e-08
0.4791932316 	1.939460301 	0.0005426059438 	-3.568190665e-08
0.4795218461 	1.972381562 	0.0005765102708 	-3.799032814e-08
0.4798566368 	2.00463948 	0.0006116879871 	-4.039596652e-08
0.48019772 	2.03627855 	0.0006481867406 	-4.290124236e-08
0.4805452138 	2.067339942 	0.0006860463259 	-4.550977137e-08
0.4808992388 	2.097861738 	0.0007253084682 	-4.822532885e-08
0.4812599177 	2.12787913 	0.0007660168484 	-5.105175067e-08
0.4816273755 	2.157424614 	0.0008082166624 	-5.399291335e-08
0.4820017397 	2.18652816 	0.0008519544054 	-5.705269908e-08
0.48238314 	2.21521737 	0.0008972777206 	-6.023493994e-08
0.4827717088 	2.243517612 	0.000944235206 	-6.354335137e-08
0.4831675807 	2.271452144 	0.0009928761787 	-6.698145385e-08
0.4835708931 	2.299042214 	0.001043250396 	-7.055248064e-08
0.4839817856 	2.32630714 	0.001095407721 	-7.425927024e-08
0.4844004009 	2.353264376 	0.001149397736 	-7.810414205e-08
0.4848268841 	2.379929553 	0.001205269276 	-8.208875391e-08
0.485261383 	2.406316509 	0.001263069891 	-8.621394037e-08
0.4857040484 	2.432437296 	0.001322845222 	-9.047953068e-08
0.4861550336 	2.458302172 	0.001384638276 	-9.488414645e-08
0.4866144951 	2.483919583 	0.001448488605 	-9.942498053e-08
0.4870825921 	2.50929612 	0.001514431371 	-1.040975623e-07
0.487559487 	2.534436475 	0.00158249631 	-1.088955211e-07
0.4880453452 	2.559343385 	0.001652706585 	-1.138103685e-07
0.4885403351 	2.584017569 	0.001725077544 	-1.188313321e-07
0.4890446283 	2.608457677 	0.001799615408 	-1.239452807e-07
0.4895583997 	2.632660239 	0.001876315885 	-1.291367762e-07
0.4900818274 	2.65661965 	0.001955162775 	-1.343882369e-07
0.4906150929 	2.680328187 	0.002036126552 	-1.396800643e-07
0.4911583811 	2.703776075 	0.002119162948 	-1.449904417e-07
0.4917118805 	2.726951613 	0.002204211831 	-1.502953407e-07
0.4922757829 	2.749841314 	0.002291197164 	-1.555681219e-07
0.4928502838 	2.772429972 	0.002380026598 	-1.6077086e-07
0.4934355824 	2.794700389 	0.002470558459 	-1.657429843e-07
0.4940318817 	2.816632217 	0.002562596138 	-1.705076547e-07
0.4946393885 	2.8381986 	0.002656036937 	-1.752761091e-07
0.4952583133 	2.859360057 	0.002750768362 	-1.796341131e-07
0.4958888709 	2.880060285 	0.002846317462 	-1.83199227e-07
0.4965312797 	2.900229219 	0.00294206241 	-1.861784233e-07
0.4971857627 	2.919789513 	0.003037513352 	-1.885006423e-07
0.4978525466 	2.938659947 	0.003132127505 	-1.899526494e-07
0.4985318627 	2.956755551 	0.003225262967 	-1.904906673e-07
0.4992239466 	2.973986654 	0.00331624449 	-1.900627543e-07
0.4999290382 	2.990258985 	0.003404257534 	-1.885655153e-07
0.5006473819 	3.005477936 	0.003488274457 	-1.859276964e-07
0.501379227 	3.019560273 	0.003567794183 	-1.856373228e-07
0.502124827 	3.032451342 	0.00365030861 	-1.841758963e-07
0.5028844406 	3.044161194 	0.003717674498 	-1.666591573e-07
0.5036583311 	3.054826155 	0.003765784439 	-1.581131544e-07
0.5044467669 	3.064637132 	0.003829303953 	-1.728553395e-07
0.5052500214 	3.073696801 	0.003894704704 	-1.717684091e-07
0.506068373 	3.083056241 	0.003953338693 	-1.610955975e-07
0.507324668 	3.0932652 	0.004019455658 	-1.574066806e-07
0.5085949819 	3.102870253 	0.004083728367 	-1.516033549e-07
0.5098794711 	3.111012383 	0.004139384008 	-1.458781848e-07
0.5111782938 	3.117848876 	0.004186543934 	-1.408684134e-07
0.5124916099 	3.12352383 	0.004226321089 	-1.347581694e-07
0.5138195812 	3.128179953 	0.004257938583 	-1.283321942e-07
0.5151623712 	3.131975094 	0.004282801128 	-1.237909634e-07
0.5165201452 	3.135068103 	0.00430301937 	-1.200516114e-07
0.5178930705 	3.13759362 	0.004318981462 	-1.163986608e-07
0.5192813161 	3.139657044 	0.004331117091 	-1.132780049e-07
0.520685053 	3.141340502 	0.004340151616 	-1.106135938e-07
0.522104454 	3.142708301 	0.004346554307 	-1.082791749e-07
0.523539694 	3.143811138 	0.004350690699 	-1.062185146e-07
0.5249909497 	3.144689291 	0.004352856667 	-1.043877003e-07
0.5264583998 	3.145375015 	0.004353293993 	-1.027499074e-07
0.527942225 	3.145894331 	0.004352200963 	-1.012745947e-07
0.5294426081 	3.14626839 	0.004349741188 	-9.993678579e-08
0.5309597337 	3.146514498 	0.004346050628 	-9.871588054e-08
0.5324937889 	3.146646911 	0.004341241561 	-9.75949244e-08
0.5340449624 	3.146677457 	0.004335411951 	-9.656050788e-08
0.5356134452 	3.146615993 	0.004328641004 	-9.56016455e-08
0.5371994306 	3.146470734 	0.004320995154 	-9.470787493e-08
0.5388031139 	3.146248579 	0.004312533756 	-9.38706007e-08
0.5404246925 	3.145955372 	0.004303304377 	-9.308314291e-08
0.5420643661 	3.145596066 	0.004293349165 	-9.233928835e-08
0.5437223366 	3.145174862 	0.004282703616 	-9.16336604e-08
0.5453988083 	3.144695332 	0.004271397888 	-9.096141064e-08
0.5470939875 	3.144160519 	0.004259457498 	-9.031813004e-08
0.5488080831 	3.143573015 	0.004246903913 	-8.969974964e-08
0.5505413061 	3.142935023 	0.004233755 	-8.91024801e-08
0.5522938699 	3.142248416 	0.004220025441 	-8.852271994e-08
0.5540659904 	3.14151478 	0.004205727075 	-8.795717706e-08
0.5558578859 	3.140735448 	0.004190869091 	-8.740278728e-08
0.5576697768 	3.139911537 	0.004175458257 	-8.685653925e-08
0.5595018865 	3.139043968 	0.004159499132 	-8.631550398e-08
0.5613544406 	3.138133492 	0.004142994169 	-8.577675703e-08
0.563227667 	3.137180706 	0.004125943835 	-8.523737194e-08
0.5651217966 	3.136186071 	0.004108346692 	-8.469440973e-08
0.5670370626 	3.135149923 	0.004090199467 	-8.41449087e-08
0.5689737009 	3.134072482 	0.004071497101 	-8.358587522e-08
0.5709319499 	3.132953868 	0.004052232787 	-8.301427601e-08
0.5729120508 	3.131794104 	0.004032397987 	-8.242703248e-08
0.5749142474 	3.130593122 	0.004011982452 	-8.18210175e-08
0.5769387863 	3.129350775 	0.00399097422 	-8.119305498e-08
0.5789859169 	3.128066834 	0.003969359622 	-8.053992303e-08
0.5810558911 	3.126741001 	0.003947123267 	-7.985836119e-08
0.583148964 	3.125372906 	0.003924248037 	-7.914508261e-08
0.5852653933 	3.123962114 	0.003900715069 	-7.839679232e-08
0.5874054395 	3.122508126 	0.003876503743 	-7.761021282e-08
0.5895693664 	3.121010386 	0.003851591664 	-7.678211859e-08
0.5917574402 	3.119468279 	0.003825954652 	-7.590938149e-08
0.5939699306 	3.117881138 	0.003799566733 	-7.498902887e-08
0.5962071099 	3.116248243 	0.003772400131 	-7.401831594e-08
0.5984692536 	3.114568827 	0.003744425277 	-7.299481281e-08
0.6007566404 	3.112842078 	0.003715610819 	-7.191650301e-08
0.6030695519 	3.111067143 	0.003685923649 	-7.078188344e-08
0.6054082729 	3.109243133 	0.00365532894 	-6.95900409e-08
0.6077730914 	3.107369126 	0.003623790208 	-6.83406552e-08
0.6101642987 	3.105444177 	0.003591269384 	-6.703383362e-08
0.6125821893 	3.103467323 	0.003557726911 	-6.566953774e-08
0.6150270608 	3.101437593 	0.003523121872 	-6.424649495e-08
0.6174992144 	3.099354021 	0.003487411971 	-6.275921358e-08
0.6199989545 	3.097215662 	0.003450551216 	-6.11854799e-08
0.622526589 	3.095021614 	0.003412493417 	-5.949763655e-08
0.625082429 	3.092771014 	0.003373178061 	-5.75501851e-08
0.6276667894 	3.090462861 	0.003332437606 	-5.47760044e-08
0.6302799884 	3.088095923 	0.003291010244 	-5.413684058e-08
0.6329223478 	3.085668477 	0.003248481326 	-4.893499372e-08
0.6355941931 	3.083174308 	0.003202641992 	-3.930489906e-08
0.6382958531 	3.080603254 	0.00315476408 	-3.800991361e-08
0.6410276607 	3.077950307 	0.003106122966 	-3.58112951e-08
0.6437899523 	3.075221777 	0.003055067553 	-3.012251112e-08
0.646583068 	3.072431339 	0.003001744055 	-2.77698366e-08
0.6494073518 	3.06959266 	0.002947253199 	-2.623827249e-08
0.6522631514 	3.066716449 	0.002891980729 	-2.524123344e-08
0.6551508186 	3.063809555 	0.002836174416 	-2.453694036e-08
0.658070709 	3.060875221 	0.002779956571 	-2.39344497e-08
0.6610231822 	3.057914051 	0.002723355453 	-2.330249382e-08
0.6640086017 	3.054925089 	0.002666345148 	-2.257912746e-08
0.6670273351 	3.05190667 	0.002608881507 	-2.174969887e-08
0.6700797543 	3.048857001 	0.002550923977 	-2.082720987e-08
0.6731662352 	3.045774502 	0.002492444315 	-1.983843502e-08
0.6762871577 	3.042658003 	0.002433425345 	-1.881578093e-08
0.6794429063 	3.039506864 	0.002373853954 	-1.779270839e-08
0.6826338695 	3.036321004 	0.00231371294 	-1.67990819e-08
0.6858604404 	3.03310081 	0.002252976382 	-1.585355031e-08
0.6891230163 	3.029846843 	0.002191612257 	-1.495425842e-08
0.6924219988 	3.026559337 	0.002129593561 	-1.407469968e-08
0.6957577944 	3.023237567 	0.002066915008 	-1.317234389e-08
0.6991308138 	3.019879317 	0.002003607925 	-1.220873045e-08
0.7025414724 	3.016480769 	0.001939743911 	-1.116580305e-08
0.7059901901 	3.013037104 	0.001875420272 	-1.004152655e-08
0.7094773917 	3.009543971 	0.001810726337 	-8.83358182e-09
0.7130035066 	3.005999618 	0.001745695596 	-7.561715493e-09
0.7165689691 	3.002407048 	0.001680247845 	-6.351076636e-09
0.7201742182 	2.998775117 	0.001614148486 	-5.479064097e-09
0.7238196978 	2.995117257 	0.00154704282 	-4.603211345e-09
0.727505857 	2.991447033 	0.001478897011 	-5.858083675e-09
0.7312331497 	2.987769912 	0.001408319995 	-7.095063204e-09
0.7350020349 	2.984084415 	0.001335753326 	-4.731515379e-09
0.7387709215 	2.980401964 	0.001264356797 	-3.693869728e-09
0.7424982157 	2.976742388 	0.001193654863 	-3.919536712e-09
0.7461843763 	2.973112149 	0.001123079878 	-3.002720958e-09
0.7498298574 	2.969509423 	0.001053521254 	-2.189886098e-09
0.7534351078 	2.965932964 	0.0009847687078 	-1.344399433e-09
0.7570005716 	2.962381919 	0.000916785882 	-4.694784278e-10
0.7605266877 	2.958855529 	0.0008495590473 	3.972951169e-10
0.7640138905 	2.955353072 	0.0007830740745 	1.247175908e-09
0.7674626093 	2.951873843 	0.0007173203618 	2.082165645e-09
0.770873269 	2.948417146 	0.0006522875707 	2.90776901e-09
0.7742462894 	2.944982293 	0.0005879658139 	3.728336073e-09
0.777582086 	2.9415686 	0.0005243459586 	4.545792265e-09
0.7808810695 	2.938175393 	0.0004614197218 	5.360391951e-09
0.7841436462 	2.934801995 	0.0003991796335 	6.171719174e-09
0.787370218 	2.931447734 	0.0003376189169 	6.979310603e-09
0.7905611821 	2.928111935 	0.0002767313532 	7.782884874e-09
0.7937169314 	2.924793919 	0.0002165111631 	8.582351451e-09
0.7968378547 	2.921493006 	0.0001569529174 	9.377746524e-09
0.7999243362 	2.918208509 	9.805147223e-05 	1.016917043e-08
0.8029767561 	2.914939738 	3.980191959e-05 	1.09567419e-08
0.8059954902 	2.911685998 	-1.780043598e-05 	1.17405701e-08
0.8089809102 	2.908446588 	-7.476009037e-05 	1.252075266e-08
0.8119333839 	2.905220802 	-0.0001310813713 	1.329737686e-08
0.8148532749 	2.902007927 	-0.0001867684538 	1.407051942e-08
0.8177409426 	2.898807243 	-0.000241825353 	1.484025859e-08
0.8205967427 	2.895618025 	-0.0002962559284 	1.560668349e-08
0.8234210268 	2.892439539 	-0.0003500638869 	1.636989831e-08
0.8262141429 	2.889271041 	-0.0004032527767 	1.713002654e-08
0.8289764348 	2.886111781 	-0.0004558259788 	1.788721362e-08
0.8317082427 	2.882960995 	-0.0005077866957 	1.864162888e-08
0.8344099031 	2.879817912 	-0.0005591379379 	1.939346734e-08
0.8370817486 	2.876681745 	-0.0006098825075 	2.01429516e-08
0.8397241082 	2.873551697 	-0.0006600229813 	2.089033384e-08
0.8423373074 	2.870426952 	-0.0007095616911 	2.163589786e-08
0.844921668 	2.867306682 	-0.0007585007042 	2.237996094e-08
0.8474775082 	2.864190038 	-0.0008068418016 	2.312287557e-08
0.8500051427 	2.861076152 	-0.000854586456 	2.38650308e-08
0.8525048829 	2.857964136 	-0.0009017358095 	2.460685339e-08
0.8549770366 	2.854853078 	-0.0009482906495 	2.534880852e-08
0.8574219081 	2.851742039 	-0.0009942513854 	2.609140032e-08
0.8598397987 	2.848630053 	-0.001039618024 	2.683517209e-08
0.862231006 	2.845516126 	-0.001084390146 	2.758070622e-08
0.8645958245 	2.842399226 	-0.001128566877 	2.832862396e-08
0.8669345455 	2.839278291 	-0.00117214687 	2.907958488e-08
0.8692474569 	2.836152217 	-0.001215128272 	2.983428621e-08
0.8715348435 	2.833019859 	-0.001257508703 	3.0593462e-08
0.8737969871 	2.829880027 	-0.001299285227 	3.135788203e-08
0.8760341663 	2.826731482 	-0.00134045433 	3.212835071e-08
0.8782466565 	2.823572932 	-0.001381011887 	3.290570577e-08
0.8804347301 	2.820403027 	-0.00142095314 	3.369081687e-08
0.8825986568 	2.817220358 	-0.001460272669 	3.448458413e-08
0.8847387028 	2.814023447 	-0.001498964361 	3.528793653e-08
0.8868551318 	2.810810744 	-0.001537021385 	3.610183031e-08
0.8889482045 	2.807580624 	-0.001574436158 	3.692724722e-08
0.8910181784 	2.804331377 	-0.001611200316 	3.776519268e-08
0.8930653087 	2.801061202 	-0.001647304684 	3.86166939e-08
0.8950898473 	2.7977682 	-0.001682739239 	3.948279784e-08
0.8970920436 	2.79445037 	-0.001717493079 	4.036456903e-08
0.8990721441 	2.791105593 	-0.001751554385 	4.126308716e-08
0.9010303927 	2.787731631 	-0.001784910386 	4.21794445e-08
0.9029670306 	2.78432611 	-0.001817547319 	4.311474292e-08
0.9048822962 	2.780886515 	-0.001849450389 	4.407009054e-08
0.9067764254 	2.777410174 	-0.001880603728 	4.504659788e-08
0.9086496514 	2.773894248 	-0.001910990352 	4.604537323e-08
0.910502205 	2.770335715 	-0.001940592115 	4.706751733e-08
0.9123343142 	2.766731355 	-0.001969389665 	4.811411685e-08
0.9141462048 	2.763077739 	-0.001997362397 	4.91862366e-08
0.9159380997 	2.759371201 	-0.002024488404 	5.028491012e-08
0.9177102197 	2.755607827 	-0.002050744432 	5.141112823e-08
0.9194627831 	2.751783432 	-0.002076105834 	5.256582521e-08
0.9211960055 	2.747893535 	-0.002100546524 	5.374986176e-08
0.9229101006 	2.743933335 	-0.002124038941 	5.496400394e-08
0.9246052793 	2.739897687 	-0.002146554007 	5.620889605e-08
0.9262817504 	2.73578107 	-0.00216806111 	5.748502443e-08
0.9279397204 	2.731577557 	-0.002188528082 	5.879266626e-08
0.9295793934 	2.727280784 	-0.002207921207 	6.013181342e-08
0.9312009714 	2.722883916 	-0.002226205247 	6.150205604e-08
0.9328046541 	2.718379612 	-0.002243343501 	6.290240283e-08
0.9343906389 	2.713759987 	-0.002259297926 	6.433101572e-08
0.9359591211 	2.709016581 	-0.002274029316 	6.57848455e-08
0.937510294 	2.70414033 	-0.002287497621 	6.725911426e-08
0.9390443485 	2.699121535 	-0.002299662473 	6.874702192e-08
0.9405614735 	2.693949858 	-0.002310484223 	7.023900136e-08
0.942061856 	2.68861432 	-0.002319928448 	7.171577342e-08
0.9435456805 	2.683103326 	-0.00232797105 	7.317716989e-08
0.9450131299 	2.677404677 	-0.002334612144 	7.456078765e-08
0.946464385 	2.67150527 	-0.002340029646 	7.549378494e-08
0.9478996243 	2.665390238 	-0.002343710717 	7.953230548e-08
0.9493190246 	2.659041393 	-0.002344218125 	8.097514155e-08
0.9507227608 	2.652427871 	-0.002344445763 	7.857448157e-08
0.9521110058 	2.645485151 	-0.002344984334 	8.395382888e-08
0.9534839303 	2.638115107 	-0.002340086545 	8.951530172e-08
0.9548417036 	2.630214596 	-0.002330312568 	9.167087487e-08
0.9561844929 	2.621687641 	-0.002317404739 	9.597001879e-08
0.9575124634 	2.612440111 	-0.002299585963 	1.005227766e-07
0.9588257788 	2.602378902 	-0.002276407307 	1.051867468e-07
0.9601246008 	2.591412786 	-0.002247547862 	1.099035539e-07
0.9614090893 	2.579452871 	-0.002212729404 	1.145864232e-07
0.9626794024 	2.566413407 	-0.002171657052 	1.191053779e-07
0.9639356968 	2.553464519 	-0.002128674585 	1.22978679e-07
0.9647540487 	2.542215198 	-0.002090191698 	1.258665929e-07
0.9655573034 	2.531774536 	-0.002053694723 	1.281753497e-07
0.9663457395 	2.520892119 	-0.002015034549 	1.302187223e-07
0.9671196303 	2.509566444 	-0.001974440437 	1.319769085e-07
0.9678792442 	2.497798196 	-0.001932082358 	1.334348435e-07
0.9686248445 	2.485589783 	-0.001888125675 	1.345807975e-07
0.9693566897 	2.472945003 	-0.001842743313 	1.354073096e-07
0.9700750337 	2.459868797 	-0.001796111842 	1.35909953e-07
0.9707801255 	2.446367063 	-0.001748409352 	1.360865891e-07
0.9714722095 	2.432446514 	-0.00169981394 	1.359381152e-07
0.9721515258 	2.41811455 	-0.001650502084 	1.354684136e-07
0.9728183099 	2.403379143 	-0.001600647252 	1.346834926e-07
0.9734727929 	2.388248724 	-0.001550418698 	1.335916031e-07
0.9741152019 	2.372732081 	-0.001499980402 	1.322037905e-07
0.9747457596 	2.356838252 	-0.001449490012 	1.305337116e-07
0.9753646845 	2.340576417 	-0.00139909786 	1.285973779e-07
0.9759721914 	2.323955778 	-0.001348946092 	1.26412861e-07
0.9765684907 	2.306985442 	-0.001299167921 	1.239999504e-07
0.9771537895 	2.289674306 	-0.001249887037 	1.213797501e-07
0.9777282904 	2.27203093 	-0.001201217158 	1.185742251e-07
0.9782921928 	2.254063427 	-0.00115326175 	1.156057326e-07
0.9788456922 	2.235779347 	-0.001106113893 	1.124965744e-07
0.9793889805 	2.217185576 	-0.001059856301 	1.092686052e-07
0.979922246 	2.198288231 	-0.001014561475 	1.059429163e-07
0.9804456737 	2.179092579 	-0.0009702919659 	1.025396032e-07
0.9809594451 	2.159602947 	-0.0009271007411 	9.907761094e-08
0.9814637383 	2.139822658 	-0.0008850316277 	9.557464875e-08
0.9819587281 	2.119753957 	-0.0008441198137 	9.204715548e-08
0.9824445862 	2.099397964 	-0.000804392394 	8.851030225e-08
0.9829214811 	2.078754612 	-0.0007658689438 	8.497801741e-08
0.9833895781 	2.05782261 	-0.0007285621093 	8.146302349e-08
0.9838490396 	2.036599393 	-0.000692478204 	7.797687898e-08
0.9843000247 	2.015081083 	-0.0006576178033 	7.453002116e-08
0.98474269 	1.993262452 	-0.0006239763297 	7.113180857e-08
0.9851771888 	1.971136879 	-0.0005915446223 	6.779056359e-08
0.9856036719 	1.948696306 	-0.0005603094878 	6.451361595e-08
0.9860222871 	1.925931198 	-0.0005302542266 	6.130734866e-08
0.9864331796 	1.902830488 	-0.0005013591341 	5.817724701e-08
0.9868364919 	1.879381528 	-0.0004736019719 	5.512795121e-08
0.9872323637 	1.855570026 	-0.0004469584103 	5.216331228e-08
0.9876209323 	1.83137998 	-0.0004214024394 	4.928645077e-08
0.9880023326 	1.806793607 	-0.0003969067456 	4.649981704e-08
0.9883766967 	1.781791263 	-0.0003734430466 	4.380525202e-08
0.9887441544 	1.756351364 	-0.0003509824799 	4.120405007e-08
0.9891048331 	1.73045029 	-0.0003294961575 	3.869702446e-08
0.9894588579 	1.704062295 	-0.0003089552446 	3.628455588e-08
0.9898063516 	1.677159385 	-0.0002893223323 	3.396639264e-08
0.9901474347 	1.649711151 	-0.0002705629706 	3.174219548e-08
0.9904822253 	1.62168437 	-0.0002526738215 	2.961204912e-08
0.9908108397 	1.593042446 	-0.0002356421616 	2.757493096e-08
0.9911333916 	1.563745374 	-0.0002194142602 	2.562904338e-08
0.9914499931 	1.533750576 	-0.0002039472357 	2.377325016e-08
0.9917607538 	1.503013866 	-0.0001892227777 	2.200601243e-08
0.9920657815 	1.47148994 	-0.0001752210287 	2.03253164e-08
0.9923651819 	1.439132438 	-0.000161918985 	1.87293053e-08
0.992659059 	1.405893798 	-0.0001492881172 	1.721603542e-08
0.9929475145 	1.371725068 	-0.000137290291 	1.578339897e-08
0.9932306485 	1.336575743 	-0.000125989119 	1.442992931e-08
0.9935085592 	1.300393367 	-0.0001157902476 	1.315629805e-08
0.9937813429 	1.266347984 	-0.0001068626455 	1.205448754e-08
0.9939569055 	1.237970394 	-9.929075827e-05 	1.119879394e-08
0.9941324681 	1.212158084 	-9.284993951e-05 	1.047053538e-08
0.9943080307 	1.185447876 	-8.686339653e-05 	9.766119201e-09
0.9944835934 	1.157785137 	-8.10672997e-05 	9.083762055e-09
0.994659156 	1.129124261 	-7.542581829e-05 	8.423736455e-09
0.9948347186 	1.099418416 	-6.995652329e-05 	7.786647569e-09
0.9950102812 	1.068616651 	-6.466835595e-05 	7.172913415e-09
0.9951858439 	1.036664087 	-5.956632704e-05 	6.582828518e-09
0.9953614065 	1.003502899 	-5.465645044e-05 	6.016630463e-09
0.9955369691 	0.9690735447 	-4.994566233e-05 	5.474555249e-09
0.9957125317 	0.933316155 	-4.543763808e-05 	4.95696e-09
0.9958880943 	0.8961721762 	-4.113183463e-05 	4.464158425e-09
0.996063657 	0.8575863482 	-3.712046322e-05 	3.993009669e-09
0.9962392196 	0.8175090677 	-3.363084924e-05 	3.540687115e-09
0.9964147822 	0.7758989408 	-3.036854891e-05 	3.128040561e-09
0.9965903448 	0.7327271417 	-1.82446903e-05 	3.059134199e-09
0.9967659075 	0.6879810243 	-1.338825836e-05 	2.271764609e-09
0.9969414701 	0.6416319715 	-3.179889743e-05 	1.289208234e-09
0.9971170327 	0.593617991 	-3.576017122e-05 	1.878335757e-09
0.9972925953 	0.5439289666 	-1.98806286e-05 	1.935365831e-09
0.997468158 	0.4926757044 	-9.996451377e-06 	1.185724809e-09
0.9976437206 	0.4400712091 	-4.596371292e-06 	9.152998735e-10
0.9978192832 	0.3863961867 	-6.421871051e-07 	6.757946187e-10
0.9979948458 	0.3319553639 	9.35010492e-07 	4.718195399e-10
0.9981704085 	0.2770251056 	6.482313966e-07 	3.175897379e-10
0.9983459711 	0.2218151329 	-1.381903348e-07 	2.05689045e-10
0.9985215337 	0.1664577019 	-5.141245371e-07 	1.203150778e-10
0.9986970963 	0.1110208446 	-4.046915183e-07 	5.581459221e-11
0.998872659 	0.05553199338 	-1.463748716e-07 	1.552252617e-11
0.9990482216 	0.02338730422 	-2.422720782e-08 	1.836089768e-12
0.9990482216 	0.02338730422 	-2.422720782e-08 	1.836089768e-12
