2.89032272e-36 	0.008162244654 	-3.334467653e-16 	-1.919970111e-23 	1.362207946e-29 	7.843526505e-37 	4.516264069e-44
0.0002557009779 	0.008217017504 	0.0008681184229 	-3.7747176e-08 	0.004209689718 	2.089858959e-08 	8.024838624e-06
0.0005113919582 	0.00828987282 	0.0006996335 	-1.159849254e-07 	0.004070554788 	5.135056689e-08 	7.759608777e-06
0.0007670729285 	0.008318324005 	0.0006087575905 	-1.985084335e-07 	0.004047229937 	7.759238763e-08 	7.715145129e-06
0.001022743877 	0.008334556863 	0.0005495037656 	-2.758808252e-07 	0.004031714376 	1.01181546e-07 	7.685568157e-06
0.001278404793 	0.008344754306 	0.0005085509939 	-3.469493041e-07 	0.004025276053 	1.25213682e-07 	7.673294925e-06
0.001534055664 	0.008352782079 	0.0004739750974 	-4.110934628e-07 	0.004020500868 	1.504832332e-07 	7.664192095e-06
0.001789696482 	0.008360727457 	0.0004372304699 	-4.649069057e-07 	0.004016158578 	1.775575386e-07 	7.655914483e-06
0.002045327237 	0.008369804351 	0.0003911281697 	-4.987760368e-07 	0.004011548882 	2.077176058e-07 	7.647127122e-06
0.002300947919 	0.00838032322 	0.0003297759451 	-4.957625198e-07 	0.004006406481 	2.423556042e-07 	7.637324275e-06
0.00255655852 	0.008391414554 	0.0002494846471 	-4.344193787e-07 	0.004001065111 	2.814894019e-07 	7.627142141e-06
0.002812159033 	0.008400972114 	0.0001504032168 	-2.978042733e-07 	0.00399651928 	3.219824424e-07 	7.618476522e-06
0.003067749449 	0.008406366843 	3.789985115e-05 	-8.688119054e-08 	0.003994085489 	3.573767024e-07 	7.61383704e-06
0.003323329763 	0.00840593926 	-7.785415571e-05 	1.710422477e-07 	0.003994628381 	3.813407051e-07 	7.614871943e-06
0.003578899969 	0.00840024233 	-0.0001847447094 	4.291588598e-07 	0.003997888252 	3.927611979e-07 	7.621086165e-06
0.00383446006 	0.00839187651 	-0.000272514299 	6.406037276e-07 	0.004002561021 	3.972033016e-07 	7.629993761e-06
0.004090010031 	0.00838409677 	-0.000335050036 	7.745793935e-07 	0.00400703194 	4.032330607e-07 	7.638516575e-06
0.004345549879 	0.008379439455 	-0.0003702455497 	8.180042207e-07 	0.004010071409 	4.178424164e-07 	7.644310648e-06
0.004601079599 	0.008379146639 	-0.0003785242732 	7.667357887e-07 	0.004011096168 	4.445431516e-07 	7.646264123e-06
0.004856599189 	0.008383209248 	-0.0003615487998 	6.17345726e-07 	0.004010129845 	4.834180485e-07 	7.644422042e-06
0.005112108645 	0.008390590589 	-0.0003218846276 	3.670482537e-07 	0.004007700565 	5.311583744e-07 	7.639791159e-06
0.005367607965 	0.00839950561 	-0.0002635179012 	2.234725472e-08 	0.00400471481 	5.810181439e-07 	7.634099481e-06
0.005623097148 	0.008407905507 	-0.0001925150025 	-3.900047396e-07 	0.004002211487 	6.242845438e-07 	7.62932745e-06
0.005878576193 	0.008414196139 	-0.0001169860088 	-8.189317223e-07 	0.004000978817 	6.542363022e-07 	7.626977639e-06
0.006134045099 	0.008417854061 	-4.599589647e-05 	-1.198126527e-06 	0.004001220567 	6.704633212e-07 	7.627438482e-06
0.006389503867 	0.008419498182 	1.216804253e-05 	-1.465559797e-06 	0.004002524576 	6.795197524e-07 	7.629924286e-06
0.006644952497 	0.008420354305 	5.149924541e-05 	-1.581477235e-06 	0.00400416901 	6.90836342e-07 	7.633059034e-06
0.006900390991 	0.008421511081 	6.892074244e-05 	-1.535535321e-06 	0.004005526694 	7.113068493e-07 	7.635647158e-06
0.00715581935 	0.008423418773 	6.418920303e-05 	-1.345329996e-06 	0.004006329496 	7.415798415e-07 	7.637177522e-06
0.007411237578 	0.008425807297 	3.958781336e-05 	-1.053675398e-06 	0.004006777446 	7.745440623e-07 	7.638031439e-06
0.007666645676 	0.008428123293 	-6.903787422e-06 	-6.801376032e-07 	0.004007439963 	8.006717889e-07 	7.63929438e-06
0.008063470924 	0.008429334138 	-7.471086835e-05 	-2.548457876e-07 	0.004008849177 	8.300174825e-07 	7.641980734e-06
0.008467729379 	0.008428574252 	-0.0001481036552 	9.436462478e-08 	0.004011329892 	8.520673733e-07 	7.646709665e-06
0.008879559814 	0.00842656362 	-0.00021140761 	2.36180651e-07 	0.004014714683 	8.348558857e-07 	7.653162018e-06
0.009299103586 	0.008424930208 	-0.000257996157 	1.566347034e-07 	0.004018291543 	7.823932167e-07 	7.659980508e-06
0.009726504672 	0.008424990809 	-0.0002853583192 	-6.133246891e-08 	0.004021434981 	7.396856294e-07 	7.665972774e-06
0.01016190973 	0.008427245617 	-0.0002947063718 	-3.325600223e-07 	0.004023914684 	7.020713643e-07 	7.670699777e-06
0.01060546813 	0.008431409675 	-0.0002899391258 	-5.848846957e-07 	0.004025850775 	6.632161937e-07 	7.674390504e-06
0.01105733204 	0.008436761443 	-0.0002764893992 	-7.682201329e-07 	0.004027537408 	6.193219264e-07 	7.677605695e-06
0.01151765644 	0.008442528634 	-0.0002601889963 	-8.596908817e-07 	0.004029265582 	5.701441706e-07 	7.680900076e-06
0.01198659919 	0.008448133778 	-0.0002461830165 	-8.627225777e-07 	0.004031225698 	5.17683365e-07 	7.684636602e-06
0.01246432108 	0.008453257789 	-0.0002380853893 	-7.987625955e-07 	0.004033499526 	4.642831016e-07 	7.68897115e-06
0.01295098591 	0.00845778308 	-0.0002375977939 	-6.967511914e-07 	0.004036104464 	4.11386636e-07 	7.693936886e-06
0.0134467605 	0.008461712819 	-0.0002446450132 	-5.836799539e-07 	0.004039037659 	3.595438842e-07 	7.69952837e-06
0.0139518148 	0.008465124642 	-0.0002578610234 	-4.786585926e-07 	0.004042288493 	3.088745154e-07 	7.705725363e-06
0.01446632189 	0.008468161195 	-0.0002751568492 	-3.9063172e-07 	0.004045834688 	2.593787022e-07 	7.712485397e-06
0.0149904581 	0.008471023425 	-0.0002942694985 	-3.189214669e-07 	0.004049634656 	2.110178418e-07 	7.719729192e-06
0.01552440303 	0.008473937573 	-0.000313252163 	-2.565687659e-07 	0.004053628819 	1.636337124e-07 	7.727343178e-06
0.01606833962 	0.008477104005 	-0.000330791681 	-1.947684659e-07 	0.004057756632 	1.169652e-07 	7.735211936e-06
0.01662245423 	0.008480653295 	-0.0003463057864 	-1.263893217e-07 	0.004061974703 	7.077561343e-08 	7.743252751e-06
0.01718693669 	0.008484627366 	-0.0003598562492 	-4.773135954e-08 	0.004066267336 	2.496263996e-08 	7.751435702e-06
0.01750134298 	0.008487023857 	-0.00036644422 	3.881267982e-08 	0.004068665734 	-2.541552752e-06 	7.756007717e-06
0.01776198037 	0.00848960019 	-0.0003706862459 	1.366678599e-08 	0.004071157136 	4.266315514e-08 	7.760757021e-06
0.01834778225 	0.008495625071 	-0.0003791891206 	4.015793988e-08 	0.004076851426 	1.398388744e-07 	7.77161192e-06
0.01894454299 	0.008501851707 	-0.0003876125238 	6.242839841e-08 	0.004082704907 	2.40847797e-07 	7.782770283e-06
0.01955246699 	0.00850817749 	-0.0003965654614 	8.173457123e-08 	0.004088988257 	3.46239987e-07 	7.794748093e-06
0.02017340567 	0.008514693947 	-0.00040582519 	9.857536054e-08 	0.004095651741 	4.574596811e-07 	7.807450546e-06
0.02082217767 	0.008521392105 	-0.0004157439016 	1.120650134e-07 	0.004102519513 	5.759588152e-07 	7.820542428e-06
0.02148308776 	0.008528121926 	-0.0004267857369 	1.229421287e-07 	0.00410990311 	6.980627479e-07 	7.834617617e-06
0.02215636213 	0.008534954374 	-0.0004382574506 	1.286071349e-07 	0.004117749616 	8.241263949e-07 	7.849575237e-06
0.02284223114 	0.008541921651 	-0.0004499829825 	1.279466721e-07 	0.004125884782 	9.551808926e-07 	7.865083124e-06
0.0235409294 	0.008549050062 	-0.0004618295801 	1.20592489e-07 	0.00413436648 	1.091548558e-06 	7.881251599e-06
0.02425269589 	0.008556357175 	-0.0004737278251 	1.058020332e-07 	0.004143205896 	1.233735381e-06 	7.898101983e-06
0.02497777398 	0.008563843894 	-0.0004857136661 	8.021514735e-08 	0.004152413369 	1.382444151e-06 	7.915653985e-06
0.02571641155 	0.008571490878 	-0.0004979362467 	3.733347699e-08 	0.004161995024 	1.537746793e-06 	7.933919282e-06
0.02646886107 	0.008579272954 	-0.0005105511852 	-2.713884996e-08 	0.004171927137 	1.697738534e-06 	7.952852651e-06
0.02723537965 	0.008587182843 	-0.0005235725856 	-9.40778213e-08 	0.004182161455 	1.613030412e-06 	7.972362106e-06
0.02801622918 	0.00859522813 	-0.0005368987699 	-1.42533407e-07 	0.004192679327 	1.475524468e-06 	7.992412092e-06
0.02881167637 	0.008603410657 	-0.0005504490398 	-1.692819935e-07 	0.004203510379 	1.330716177e-06 	8.013059087e-06
0.02962199284 	0.008611719648 	-0.000564223319 	-1.771143679e-07 	0.004214695837 	1.180786989e-06 	8.03438168e-06
0.03044745527 	0.008620136759 	-0.0005782831701 	-1.71559163e-07 	0.004226264588 	1.026912821e-06 	8.056434933e-06
0.03128834539 	0.008628644674 	-0.0005927030676 	-1.575415815e-07 	0.004238231822 	8.695127112e-07 	8.079247809e-06
0.03214495017 	0.008637233657 	-0.0006075306922 	-1.379548638e-07 	0.004250602908 	7.085982748e-07 	8.102830537e-06
0.03301756185 	0.00864590341 	-0.0006227724178 	-1.137242386e-07 	0.0042633769 	5.440118958e-07 	8.127181315e-06
0.03390647809 	0.008654660625 	-0.0006384012313 	-8.448849685e-08 	0.004276549724 	3.755638143e-07 	8.15229238e-06
0.03481200199 	0.008663514457 	-0.0006543753931 	-4.927697361e-08 	0.004290116871 	2.030929858e-07 	8.178155133e-06
0.03573444229 	0.008672472998 	-0.000670654314 	-6.938947624e-09 	0.004304074358 	2.648283173e-08 	8.204761983e-06
0.03587252477 	0.008673817653 	-0.000673074009 	1.446668571e-08 	0.004306179644 	-6.608132046e-07 	8.208775243e-06
0.03667411338 	0.008680484862 	-0.0006919412366 	-2.507510482e-07 	0.00431638844 	6.584622615e-08 	8.228236045e-06
0.03763133546 	0.008688402612 	-0.000714066018 	-5.457323455e-07 	0.004328688671 	1.45811058e-07 	8.251683703e-06
0.03860643463 	0.008696439629 	-0.0007360484985 	-8.421096107e-07 	0.004341448985 	2.289495448e-07 	8.276008408e-06
0.03959974299 	0.008704704601 	-0.0007576704188 	-1.14082424e-06 	0.004354666759 	3.13396476e-07 	8.30120516e-06
0.04062400445 	0.008713179989 	-0.0007793795951 	-1.444146251e-06 	0.004368164344 	4.016027539e-07 	8.326935307e-06
0.04168283404 	0.008721689977 	-0.000801808494 	-1.751076937e-06 	0.004382205747 	4.997040133e-07 	8.353702126e-06
0.04276144599 	0.008730185442 	-0.0008247767192 	-2.059863113e-06 	0.004396957106 	6.074883687e-07 	8.381822315e-06
0.04386020817 	0.008738644034 	-0.0008481157767 	-2.368862205e-06 	0.004412201945 	7.248941475e-07 	8.410883215e-06
0.04497949521 	0.008746996954 	-0.0008719516592 	-2.677579064e-06 	0.004427966608 	8.519475643e-07 	8.440935045e-06
0.04611968868 	0.008755200142 	-0.0008963491214 	-2.565533405e-06 	0.004444363773 	8.503764326e-07 	8.472192598e-06
0.04728117716 	0.008763235921 	-0.0009212988796 	-2.217386589e-06 	0.004461421025 	7.668841129e-07 	8.504708461e-06
0.04846435643 	0.008771136029 	-0.000946702389 	-1.872166921e-06 	0.004479133596 	6.770936381e-07 	8.538473545e-06
0.04966962954 	0.008778984888 	-0.0009722686031 	-1.528450574e-06 	0.004497784742 	5.773884211e-07 	8.574027813e-06
0.05089740698 	0.008786966225 	-0.0009967295737 	-1.175781519e-06 	0.004516461595 	4.355115067e-07 	8.609631085e-06
0.05214810683 	0.008795695716 	-0.001023810004 	-8.351192213e-07 	0.004534906156 	2.486044798e-07 	8.644791545e-06
0.05406782255 	0.008807507144 	-0.001054873874 	-2.826491502e-07 	0.004561651065 	9.315330912e-08 	8.695774776e-06
0.05513332125 	0.008814370842 	-0.001075358695 	2.39054987e-07 	0.004578809144 	-2.593677632e-06 	8.728482843e-06
0.05600859301 	0.008822035426 	-0.001090385619 	-1.535641092e-07 	0.00459431218 	1.37968466e-07 	8.758035939e-06
0.05797064766 	0.00883893595 	-0.001124086289 	-4.926020243e-07 	0.004628063052 	3.986841226e-07 	8.822374482e-06
0.05995421845 	0.008855410086 	-0.001157410094 	-8.229831801e-07 	0.00466041341 	6.10457317e-07 	8.884043255e-06
0.06200681858 	0.00887163792 	-0.001190722421 	-1.157231707e-06 	0.004692430052 	7.763399598e-07 	8.945075873e-06
0.06408691716 	0.008887451144 	-0.00122417288 	-1.47578342e-06 	0.004724340001 	8.965951312e-07 	9.005905105e-06
0.06618987704 	0.00890298821 	-0.001257086664 	-1.447092827e-06 	0.004755753426 	7.946118927e-07 	9.065787824e-06
0.0683159485 	0.008918281377 	-0.001289403401 	-1.089335412e-06 	0.004786574373 	5.400832657e-07 	9.124541115e-06
0.07046538455 	0.008933334296 	-0.001321185331 	-7.439934345e-07 	0.004817062596 	3.323032015e-07 	9.182660141e-06
0.07263844095 	0.008948153831 	-0.001352507289 	-4.094081297e-07 	0.004847330819 	1.642591066e-07 	9.240359786e-06
0.07483537623 	0.008962740163 	-0.001383447547 	-8.364348021e-08 	0.004877470124 	3.005279593e-08 	9.297813679e-06
0.07541285244 	0.008966525636 	-0.001391404309 	2.029933307e-07 	0.004885387659 	-1.327890156e-06 	9.312906702e-06
0.07705645173 	0.008964746305 	-0.001424971745 	-7.148761826e-07 	0.004926682809 	9.045503999e-07 	9.391626735e-06
0.07930193161 	0.008961238192 	-0.001470217298 	-1.692201861e-06 	0.004983647723 	2.153149903e-06 	9.500217694e-06
0.08160880498 	0.008956249112 	-0.001515924452 	-2.687849217e-06 	0.005042169033 	3.444997809e-06 	9.611775576e-06
0.08396062899 	0.008949810511 	-0.001561957919 	-3.692694759e-06 	0.005102567917 	4.777685744e-06 	9.726912636e-06
0.08633835627 	0.008942124112 	-0.001607843091 	-4.404568339e-06 	0.005164389204 	5.757218112e-06 	9.844761191e-06
0.08874227161 	0.008933370698 	-0.001653437267 	-3.381879269e-06 	0.00522717043 	4.466376014e-06 	9.964439656e-06
0.09117266288 	0.008923637725 	-0.001698760481 	-2.356560502e-06 	0.005290899207 	3.144934062e-06 	1.008592442e-05
0.09362982109 	0.008912990694 	-0.001743819503 	-1.332580435e-06 	0.005355601869 	1.797435987e-06 	1.020926568e-05
0.0961140404 	0.008901564701 	-0.001788557809 	-3.131002258e-07 	0.005421211191 	4.266153822e-07 	1.033433528e-05
0.09688760698 	0.008898042765 	-0.001802242474 	3.466372404e-07 	0.005441576185 	-1.445917461e-06 	1.037315662e-05
0.09862561817 	0.00890314507 	-0.001827295388 	-4.54868313e-07 	0.005485114636 	8.616228008e-07 	1.0456153e-05
0.10119209 	0.008911420534 	-0.001862577789 	-1.08700679e-06 	0.005548906316 	2.135057246e-06 	1.057775768e-05
0.1038191759 	0.0089201377 	-0.001897074046 	-1.690046574e-06 	0.005614602916 	3.441578518e-06 	1.070299366e-05
0.1064752671 	0.008929075851 	-0.001930719684 	-2.25543001e-06 	0.005681974982 	4.762131663e-06 	1.083142354e-05
0.1091606836 	0.008938621105 	-0.001963312003 	-2.332455868e-06 	0.005750140553 	5.101127311e-06 	1.096136606e-05
0.111875749 	0.008948855667 	-0.001994936012 	-1.675819975e-06 	0.005818951163 	3.793705558e-06 	1.109253821e-05
0.1146207903 	0.008959721136 	-0.00202570781 	-1.055024426e-06 	0.005888540861 	2.471055002e-06 	1.122519552e-05
0.1173961382 	0.00897140952 	-0.002055625045 	-4.696656486e-07 	0.005958590325 	1.137344725e-06 	1.135872926e-05
0.1197759294 	0.008982291302 	-0.002080281448 	2.171998726e-07 	0.006018128218 	-6.815621099e-07 	1.147222504e-05
0.1207961827 	0.008987155103 	-0.002087709223 	2.303125965e-07 	0.006032184733 	-9.370811969e-07 	1.149902066e-05
0.1275401903 	0.009020329848 	-0.002136187596 	1.692885137e-06 	0.006124849419 	-6.923998671e-06 	1.167566531e-05
0.1342390155 	0.009054901379 	-0.002183833869 	2.075531122e-06 	0.006217193307 	-8.537803394e-06 	1.185169842e-05
0.1408933723 	0.009091006324 	-0.002230605921 	8.048189478e-07 	0.006308510537 	-3.332363787e-06 	1.202577444e-05
0.1453219 	0.009116079015 	-0.002261460599 	4.292480194e-07 	0.006369226891 	-1.247782771e-06 	1.214151669e-05
0.1473336285 	0.009112721333 	-0.002284664401 	-8.144136812e-08 	0.006418713753 	-4.239233672e-07 	1.22358524e-05
0.1534016459 	0.009103973285 	-0.002353694192 	-3.36917728e-07 	0.006568612695 	-1.556718392e-06 	1.252160145e-05
0.1594490221 	0.009097045752 	-0.002421111396 	-5.745448643e-07 	0.006718813206 	-2.340471209e-06 	1.280792537e-05
0.1655334216 	0.00909175543 	-0.002487608558 	-3.492667616e-07 	0.006870864868 	-1.249500671e-06 	1.30977781e-05
0.1716618299 	0.009088195195 	-0.002553207474 	-1.080976857e-07 	0.007024998411 	-3.38512349e-07 	1.339159947e-05
0.1743275034 	0.009087415529 	-0.002581290583 	6.147025212e-07 	0.007092466464 	-1.473424215e-06 	1.352021233e-05
0.177417951 	0.009096753984 	-0.002599809856 	3.930909276e-07 	0.007168153672 	-2.76396421e-07 	1.366449318e-05
0.18289823 	0.009115323961 	-0.002631955462 	1.077859913e-06 	0.00730304265 	-6.762030191e-07 	1.392162907e-05
0.1883761782 	0.009136138729 	-0.002663214703 	1.749325471e-06 	0.007438650121 	-9.653006262e-07 	1.41801346e-05
0.1938521216 	0.009159301279 	-0.002693582072 	1.579337365e-06 	0.007575044467 	-7.528350071e-07 	1.444014013e-05
0.1993672192 	0.009184838246 	-0.002723273137 	9.534969188e-07 	0.007713304692 	-3.824527771e-07 	1.470370254e-05
0.2049439151 	0.009212629639 	-0.002752391498 	3.303884707e-07 	0.00785407911 	-1.070098586e-07 	1.497205771e-05
0.2079444388 	0.009228656848 	-0.002767677456 	6.403026741e-07 	0.007930451048 	-1.334701028e-06 	1.511764385e-05
0.2102620035 	0.009237069333 	-0.002780837295 	1.247591471e-07 	0.007992160603 	1.84866961e-07 	1.523527942e-05
0.2152872245 	0.009256887637 	-0.002808892782 	3.852634369e-07 	0.008126847067 	6.290722577e-07 	1.549202925e-05
0.2203176127 	0.009278452501 	-0.002836352942 	6.344726522e-07 	0.008262665106 	1.133927738e-06 	1.575093618e-05
0.2253537002 	0.009301946303 	-0.00286320292 	5.866607837e-07 	0.008399815351 	1.141604192e-06 	1.601238267e-05
0.2304675697 	0.009327070185 	-0.002889722935 	3.431655736e-07 	0.008540072495 	7.214087475e-07 	1.627975177e-05
0.2356043485 	0.009353924665 	-0.002915600432 	1.075119836e-07 	0.008682402246 	2.427954093e-07 	1.655107183e-05
0.2380122946 	0.009367178684 	-0.002927407147 	6.769187364e-07 	0.008749755575 	-1.178895822e-06 	1.667946599e-05
0.2406777469 	0.009385971963 	-0.002937094547 	2.408933527e-07 	0.008820884958 	1.640333069e-07 	1.681505837e-05
0.2457008445 	0.009422272948 	-0.002954911899 	6.776068222e-07 	0.008956421257 	5.094451795e-07 	1.707342822e-05
0.250735156 	0.009459722191 	-0.002972240752 	1.095255766e-06 	0.009093979545 	9.04101588e-07 	1.733565255e-05
0.2558325572 	0.009498182831 	-0.002989141239 	1.331967817e-06 	0.009234843753 	1.202089523e-06 	1.760417889e-05
0.2609721718 	0.009537516622 	-0.003005474606 	9.140364204e-07 	0.009378792294 	8.981962252e-07 	1.787858481e-05
0.2661223867 	0.009577550319 	-0.003021081302 	5.134377664e-07 	0.009525129753 	5.467962509e-07 	1.815754468e-05
0.271283911 	0.009618080611 	-0.003035900006 	1.29447874e-07 	0.00967384602 	1.484807276e-07 	1.844103922e-05
0.273085448 	0.009632469061 	-0.003040802462 	5.358838292e-07 	0.009726446214 	-6.577542571e-07 	1.854130981e-05
0.2763941239 	0.009655425621 	-0.003047992535 	2.915786328e-07 	0.009826142135 	4.387788219e-07 	1.873135794e-05
0.2815469872 	0.009691244699 	-0.00305810359 	7.391712574e-07 	0.00998304406 	1.148492052e-06 	1.903045662e-05
0.2867304373 	0.00972759439 	-0.003066991203 	1.184450857e-06 	0.01014326402 	1.894380607e-06 	1.93358804e-05
0.2919293987 	0.009764339553 	-0.003074463856 	1.628281961e-06 	0.01030631067 	2.67277731e-06 	1.964669262e-05
0.2971446783 	0.009801379664 	-0.003080352542 	1.315837611e-06 	0.01047236275 	2.210299793e-06 	1.996323405e-05
0.3023972021 	0.009838757662 	-0.003084500805 	9.038225347e-07 	0.01064212562 	1.549462233e-06 	2.028684927e-05
0.3077176101 	0.00987624404 	-0.003086712344 	4.884132296e-07 	0.01081635533 	8.525191446e-07 	2.061897951e-05
0.313054455 	0.009913785953 	-0.003086764404 	7.235413548e-08 	0.01099401745 	1.283018606e-07 	2.095765289e-05
0.3139886584 	0.009920335343 	-0.003086408081 	3.451651733e-07 	0.01102555383 	-1.841987968e-07 	2.101777e-05
0.3183414675 	0.009951606158 	-0.003081428014 	4.493990872e-07 	0.01117278848 	6.281072066e-07 	2.129844016e-05
0.3236377024 	0.009989476486 	-0.00307299859 	9.93342426e-07 	0.01135470942 	1.399481716e-06 	2.164523203e-05
0.3290180949 	0.0100269848 	-0.00306179575 	1.54450771e-06 	0.01154155883 	2.189564278e-06 	2.200141894e-05
0.3344194035 	0.01006411316 	-0.003047607884 	2.096730162e-06 	0.01173216315 	2.985236327e-06 	2.236476375e-05
0.3398426614 	0.01010065963 	-0.003030170317 	2.093212145e-06 	0.01192624286 	2.987444742e-06 	2.273473361e-05
0.3452904742 	0.01013658919 	-0.00300910328 	1.59868254e-06 	0.01212432982 	2.282873575e-06 	2.311234242e-05
0.3508197691 	0.01017155801 	-0.002983857791 	1.097888705e-06 	0.0123277166 	1.565509312e-06 	2.350005415e-05
0.3563719332 	0.01020552083 	-0.002954072603 	5.95822005e-07 	0.01253536804 	8.465701289e-07 	2.389589552e-05
0.3619481526 	0.01023833651 	-0.002919302304 	9.072816439e-08 	0.01274706306 	1.282141342e-07 	2.429944506e-05
0.3629570058 	0.01024403269 	-0.00291209962 	5.787610406e-07 	0.01278595663 	1.829719938e-08 	2.4373587e-05
0.3675345772 	0.01027014549 	-0.002877383101 	4.757004277e-07 	0.01296078994 	5.092665117e-07 	2.470686789e-05
0.3731844475 	0.01030042297 	-0.002828898978 	1.057233372e-06 	0.01317931099 	1.118815146e-06 	2.512342974e-05
0.3788622067 	0.01032898269 	-0.002773803559 	1.633262061e-06 	0.01340230768 	1.705389213e-06 	2.554852341e-05
0.3845691096 	0.01035567032 	-0.002711589335 	2.199737552e-06 	0.01362960921 	2.262314607e-06 	2.598182331e-05
0.3903361571 	0.01038005409 	-0.002641484972 	2.755120665e-06 	0.01386192126 	2.78547887e-06 	2.642467464e-05
0.3961520378 	0.01040197263 	-0.00256291775 	2.948291847e-06 	0.01409881843 	2.924257809e-06 	2.687626649e-05
0.4019987059 	0.01042138807 	-0.002475441814 	2.42255088e-06 	0.01433943656 	2.351956567e-06 	2.733495152e-05
0.4078847518 	0.01043796541 	-0.002378206258 	1.902972418e-06 	0.01458389024 	1.803406202e-06 	2.780094818e-05
0.4138401192 	0.01045074201 	-0.002269988202 	1.387149764e-06 	0.01483285173 	1.270300913e-06 	2.827553798e-05
0.4198282563 	0.01045770805 	-0.002146771672 	7.637932546e-07 	0.01508053882 	1.015104785e-06 	2.874769841e-05
0.4258507121 	0.01045897897 	-0.00199377838 	2.454356136e-07 	0.01529378836 	7.404104363e-07 	2.91542113e-05
0.4319424031 	0.01046134584 	-0.001803958874 	7.749370724e-09 	0.01544039172 	4.815499318e-08 	2.943367804e-05
0.4322943136 	0.0104619905 	-0.001791865058 	5.844408719e-07 	0.01544564894 	-3.678933461e-07 	2.944369978e-05
0.4380348569 	0.01047266789 	-0.001591233628 	1.870166136e-07 	0.01552985442 	7.7166774e-07 	2.960421882e-05
0.4441641957 	0.0104931066 	-0.001378252575 	3.228280799e-07 	0.01560597313 	1.66324571e-06 	2.974932224e-05
0.4503583492 	0.01052034434 	-0.001167863586 	4.632461776e-07 	0.01567885493 	2.414581052e-06 	2.988825521e-05
0.4566034394 	0.01055239499 	-0.0009599784503 	5.819018179e-07 	0.01575145553 	3.079202217e-06 	3.002665213e-05
0.4628906231 	0.01058866487 	-0.0007543670997 	6.817279669e-07 	0.01582394966 	3.661646801e-06 	3.01648461e-05
0.4692413887 	0.01062865511 	-0.0005510641335 	7.642294666e-07 	0.01589713375 	4.177543339e-06 	3.03043553e-05
0.4756460929 	0.01067236491 	-0.0003500609469 	8.312168005e-07 	0.01597071022 	4.628376662e-06 	3.04446125e-05
0.4820960035 	0.01071982774 	-0.0001513145553 	8.844236644e-07 	0.01604430282 	5.015550569e-06 	3.058490045e-05
0.4886119779 	0.01077080263 	4.514639558e-05 	7.602871962e-07 	0.01611844209 	4.384687891e-06 	3.072623052e-05
0.4951819604 	0.01082527269 	0.0002393516808 	6.408394324e-07 	0.01619276027 	3.752826738e-06 	3.086790162e-05
0.5018006331 	0.01088319606 	0.0004313962483 	5.352192188e-07 	0.01626700739 	3.180370497e-06 	3.100943727e-05
0.5084900918 	0.01094433277 	0.0006213049863 	4.423077338e-07 	0.01634165841 	2.662474121e-06 	3.115174286e-05
0.5152322177 	0.0110086741 	0.0008091361366 	3.606810863e-07 	0.01641619497 	2.197788467e-06 	3.129383026e-05
0.5220303514 	0.01107610216 	0.0009949014665 	2.890750914e-07 	0.0164905608 	1.7815016e-06 	3.14355922e-05
0.5288981248 	0.01114619226 	0.001178131517 	2.268184853e-07 	0.01656491945 	1.410932303e-06 	3.157734046e-05
0.5357442139 	0.01121824484 	0.001357377848 	1.730886624e-07 	0.01663813186 	1.08738818e-06 	3.171690365e-05
0.5425033843 	0.0112914207 	0.001531238883 	1.273027261e-07 	0.01670971929 	8.081497267e-07 	3.185336919e-05
0.5491769355 	0.01136540836 	0.001699536166 	8.870804986e-08 	0.0167795273 	5.691272741e-07 	3.198644266e-05
0.5557596557 	0.01144007286 	0.001862518919 	5.62718443e-08 	0.01684731286 	3.654227135e-07 	3.211566078e-05
0.5622641271 	0.01151508682 	0.00202031525 	2.927116724e-08 	0.01691333864 	1.923895057e-07 	3.224152427e-05
0.5686844885 	0.01159028469 	0.002173166123 	7.117287965e-09 	0.01697734822 	4.736915963e-08 	3.236354433e-05
0.5711042508 	0.01161899008 	0.00222972457 	2.058520934e-06 	0.01700103287 	-2.167495703e-06 	3.240869384e-05
0.5750136979 	0.01166531629 	0.002321298841 	1.284014314e-08 	0.01703923327 	8.130659861e-08 	3.248151443e-05
0.5812674994 	0.01174007232 	0.002464855727 	3.024023376e-08 	0.01709922331 	1.921992418e-07 	3.259587211e-05
0.5874418623 	0.01181457376 	0.002604043201 	4.428202961e-08 	0.01715706937 	2.823970848e-07 	3.270614278e-05
0.5935393208 	0.01188867258 	0.002739002207 	5.548063571e-08 	0.01721280214 	3.54984793e-07 	3.281238493e-05
0.5995679114 	0.01196223669 	0.002869881845 	6.426198268e-08 	0.01726653712 	4.120180584e-07 	3.291481874e-05
0.6055216298 	0.01203520435 	0.002996876191 	7.082649938e-08 	0.01731806599 	4.550529641e-07 	3.301304708e-05
0.6114029402 	0.01210745297 	0.003120089429 	7.555113705e-08 	0.01736745634 	4.863645247e-07 	3.310719881e-05
0.617217998 	0.0121788977 	0.003239662269 	7.874168087e-08 	0.0174147666 	5.073366942e-07 	3.319738532e-05
0.6229624141 	0.01224948766 	0.003355762346 	8.047112848e-08 	0.01745984754 	5.190545048e-07 	3.328332212e-05
0.6286378764 	0.01231912788 	0.003468483677 	8.099606374e-08 	0.01750275599 	5.23178215e-07 	3.336511757e-05
0.6342501096 	0.0123877533 	0.003577945711 	8.057839888e-08 	0.01754355005 	5.207764069e-07 	3.344288238e-05
0.6397954305 	0.01245532381 	0.003684297206 	7.923456505e-08 	0.01758211971 	5.125209751e-07 	3.351640686e-05
0.6452752703 	0.01252177056 	0.003787635122 	7.710681706e-08 	0.01761849052 	4.996101707e-07 	3.358573975e-05
0.6506936869 	0.01258703161 	0.00388804149 	7.44548604e-08 	0.01765274122 	4.829447321e-07 	3.365103109e-05
0.6560491642 	0.01265108374 	0.003985656323 	7.127301716e-08 	0.01768478863 	4.628687876e-07 	3.371212237e-05
0.6613423103 	0.01271388014 	0.004080582348 	6.758946878e-08 	0.01771462727 	4.402065285e-07 	3.376900309e-05
0.666575629 	0.01277535537 	0.004172869399 	6.364520313e-08 	0.01774235548 	4.157356654e-07 	3.382186077e-05
0.6717497053 	0.0128354992 	0.004262644926 	5.944779078e-08 	0.01776791341 	3.896426241e-07 	3.387058129e-05
0.6768642844 	0.01289427855 	0.00435001 	5.496995859e-08 	0.01779127973 	3.624918592e-07 	3.3915124e-05
0.6819206085 	0.0129516398 	0.004435002542 	5.038390405e-08 	0.01781253333 	3.349578233e-07 	3.395563927e-05
0.6869210347 	0.01300757509 	0.004517709509 	4.577887556e-08 	0.01783165615 	3.072489732e-07 	3.399209268e-05
0.6918645349 	0.01306206356 	0.004598218955 	4.113437923e-08 	0.01784862026 	2.795156024e-07 	3.402443098e-05
0.6967520775 	0.0131150689 	0.00467658333 	3.649765511e-08 	0.01786345575 	2.521356526e-07 	3.405271155e-05
0.701585273 	0.01316655829 	0.004752840876 	3.20186032e-08 	0.01787621253 	2.2542535e-07 	3.407702952e-05
0.7063646295 	0.01321652825 	0.004827071713 	2.771258426e-08 	0.01788685593 	1.993983363e-07 	3.409731879e-05
0.7110902894 	0.01326495811 	0.004899337723 	2.358162232e-08 	0.01789538359 	1.742466202e-07 	3.411357489e-05
0.7157630961 	0.01331181489 	0.004969663975 	1.971073961e-08 	0.01790184535 	1.502203725e-07 	3.41258928e-05
0.7203845629 	0.01335708934 	0.005038096198 	1.617025062e-08 	0.01790624626 	1.27448586e-07 	3.413428216e-05
0.7249546213 	0.01340077703 	0.005104697703 	1.294796683e-08 	0.01790856428 	1.059320207e-07 	3.413870095e-05
0.7294738451 	0.01344286075 	0.00516951312 	1.003974266e-08 	0.01790880946 	8.58100292e-08 	3.413916832e-05
0.733942979 	0.01348331467 	0.005232566596 	7.47903124e-09 	0.017907026 	6.721344877e-08 	3.413576856e-05
0.738363276 	0.01352213204 	0.005293908279 	5.258527309e-09 	0.0179032127 	5.016581175e-08 	3.412849934e-05
0.7427346638 	0.01355930376 	0.005353598098 	3.34899251e-09 	0.01789735655 	3.465972998e-08 	3.411733589e-05
0.7470577888 	0.01359479474 	0.005411670056 	1.781507393e-09 	0.01788949777 	2.075013875e-08 	3.410235487e-05
0.7513333169 	0.01362856752 	0.005468140752 	6.155584262e-10 	0.0178796923 	8.489729523e-09 	3.408366293e-05
0.7546583093 	0.01365376614 	0.005511304931 	2.239823912e-07 	0.01787044522 	-1.040617617e-06 	3.406603542e-05
0.7555616001 	0.01366060635 	0.005523037988 	-4.406884634e-12 	0.0178679384 	1.498527689e-09 	3.406125672e-05
0.7597410789 	0.01369089109 	0.00557638692 	-2.828184869e-10 	0.01785421846 	7.647086565e-09 	3.403510271e-05
0.763874694 	0.01371944137 	0.005628202624 	-1.029033135e-09 	0.01783855536 	1.227650076e-08 	3.400524448e-05
0.7679630582 	0.01374624553 	0.005678484106 	-2.284566293e-09 	0.01782096967 	1.539576378e-08 	3.397172128e-05
0.7720069318 	0.01377130146 	0.005727240504 	-4.039976411e-09 	0.01780146541 	1.701547731e-08 	3.393454073e-05
0.7760066507 	0.013794616 	0.005774493795 	-6.296513033e-09 	0.01778002876 	1.714741337e-08 	3.389367651e-05
0.7799626731 	0.01381618546 	0.005820256302 	-9.111969541e-09 	0.01775666575 	1.581306304e-08 	3.384914013e-05
0.7838755567 	0.01383600021 	0.00586452183 	-1.251316661e-08 	0.01773139844 	1.304800876e-08 	3.380097362e-05
0.7877458863 	0.01385406193 	0.005907287163 	-1.64850153e-08 	0.0177042316 	8.896597095e-09 	3.374918606e-05
0.7915741986 	0.01387037558 	0.005948560918 	-2.103051609e-08 	0.01767516211 	3.408046483e-09 	3.369377153e-05
0.7953608184 	0.01388494585 	0.005988352135 	-2.617590625e-08 	0.01764418784 	-3.393060037e-09 	3.363472596e-05
0.7991062579 	0.01389776754 	0.006026660271 	-3.191349097e-08 	0.0176113304 	-1.146757577e-08 	3.357209056e-05
0.8028110174 	0.01390884395 	0.006063486369 	-3.822050495e-08 	0.01757659735 	-2.076204544e-08 	3.350587971e-05
0.8064756368 	0.01391817684 	0.006098832868 	-4.503955263e-08 	0.01754000241 	-3.121108556e-08 	3.343611958e-05
0.8101004972 	0.01392577803 	0.006132707188 	-5.234049244e-08 	0.01750154195 	-4.276462347e-08 	3.336280325e-05
0.8136860075 	0.01393165611 	0.006165111162 	-6.010406337e-08 	0.01746122289 	-5.536396052e-08 	3.328594393e-05
0.8172326323 	0.01393581507 	0.006196041538 	-6.826422742e-08 	0.01741906596 	-6.892449896e-08 	3.32055811e-05
0.8207408267 	0.01393826775 	0.006225498651 	-7.675776619e-08 	0.01737507756 	-8.334982877e-08 	3.312172697e-05