0.3810449493 	1.206744509e-06 	-7.575948195e-09 	2.84104333e-12 	1.200267348e-06 	-3.23791904e-10 	2.288043163e-09
0.3810449493 	1.206744509e-06 	-7.575948195e-09 	2.84104333e-12 	1.200267348e-06 	-3.23791904e-10 	2.288043163e-09
0.3812213909 	1.445002697e-05 	-3.454771632e-07 	1.744075693e-10 	1.420004352e-05 	-5.205112122e-09 	2.706922965e-08
0.3813978397 	8.154205815e-05 	-4.337334583e-06 	2.352867452e-09 	7.783241106e-05 	-3.08364483e-08 	1.483702079e-07
0.381574295 	0.0002782087346 	-2.528713692e-05 	1.342417609e-08 	0.0002502727365 	-9.878680462e-08 	4.770893955e-07
0.3817507564 	0.0007135065107 	-9.185202613e-05 	4.509128274e-08 	0.000579383531 	-2.170231927e-07 	1.104466041e-06
0.3819272234 	0.001525550593 	-0.0002389024427 	1.022891152e-07 	0.00106713627 	-3.622153091e-07 	2.034258326e-06
0.3821036954 	0.002849914154 	-0.0004826659924 	1.683108029e-07 	0.001655571535 	-4.872117982e-07 	3.155979488e-06
0.3822801719 	0.004754235981 	-0.0008031251659 	2.103411597e-07 	0.002255740086 	-5.575017997e-07 	4.300067554e-06
0.3824566525 	0.007188655271 	-0.001154403511 	2.033344262e-07 	0.002796992579 	-5.733536176e-07 	5.33184524e-06
0.3826331365 	0.009758852217 	-0.001517451363 	2.043199614e-07 	0.003455255755 	-8.051558826e-07 	6.586677807e-06
0.3828096235 	0.01223285639 	-0.001894883724 	2.276198331e-07 	0.004298236471 	-1.104659805e-06 	8.193633348e-06
0.382986113 	0.01470148104 	-0.002276796699 	2.346384012e-07 	0.005165540801 	-1.228246028e-06 	9.846956455e-06
0.3831626043 	0.01712244168 	-0.002652270338 	2.326524614e-07 	0.006017623051 	-1.323381106e-06 	1.147126205e-05
0.3833390971 	0.01944806841 	-0.00301368229 	2.242578244e-07 	0.006835218535 	-1.387923931e-06 	1.302982628e-05
0.3835155909 	0.02164553266 	-0.003358804848 	2.178569301e-07 	0.007606426736 	-1.425046113e-06 	1.449996346e-05
0.383692085 	0.02369363752 	-0.003689387479 	2.209887246e-07 	0.008322210281 	-1.432591879e-06 	1.586444583e-05
0.3838685789 	0.0255792912 	-0.004010425824 	2.401120401e-07 	0.008975410312 	-1.408879258e-06 	1.710962664e-05
0.3840450723 	0.02729434805 	-0.004328341509 	2.773410777e-07 	0.009560362084 	-1.352992723e-06 	1.82247073e-05
0.3842215645 	0.02883362373 	-0.004648969831 	3.302134052e-07 	0.0100728559 	-1.26560835e-06 	1.920166296e-05
0.384398055 	0.03019444858 	-0.004976632514 	3.943953448e-07 	0.01051029719 	-1.14924954e-06 	2.003554762e-05
0.3845745433 	0.03137743858 	-0.005314652534 	4.670352826e-07 	0.01087170596 	-1.007556107e-06 	2.072449319e-05
0.384751029 	0.03236444542 	-0.005579104851 	2.721941913e-07 	0.01118018507 	-9.219881365e-07 	2.131254011e-05
0.3849275114 	0.03315088182 	-0.005699832348 	1.066426614e-08 	0.01145930817 	-8.571782915e-07 	2.184462632e-05
0.3851039901 	0.03377667424 	-0.005749269104 	-5.376471302e-08 	0.01169890252 	-7.453835972e-07 	2.230135974e-05
0.3852804646 	0.03427265327 	-0.005784744406 	-1.157012095e-07 	0.01189068486 	-6.294757768e-07 	2.266695018e-05
0.3854569344 	0.03464924191 	-0.005806714398 	-1.746613716e-07 	0.01203870342 	-5.102944752e-07 	2.294911471e-05
0.385633399 	0.03491544271 	-0.005815917632 	-2.302385251e-07 	0.01214635765 	-3.893584102e-07 	2.315433359e-05
0.3858098578 	0.03507959077 	-0.005813215779 	-2.823075799e-07 	0.0122167281 	-2.680685584e-07 	2.328847922e-05
0.3859863103 	0.0351495176 	-0.005799431405 	-3.30860684e-07 	0.01225258315 	-1.477915574e-07 	2.335682891e-05
0.3861627561 	0.03513262537 	-0.005775458446 	-3.759479003e-07 	0.01225674578 	-2.976618179e-08 	2.336476405e-05
0.3863391946 	0.03501704396 	-0.005736383383 	-4.247084686e-07 	0.01222693805 	1.006120367e-07 	2.330794222e-05
0.3866133237 	0.03474111904 	-0.005671898349 	-4.767935087e-07 	0.01214180695 	2.548933022e-07 	2.314565869e-05
0.3868925839 	0.03428293822 	-0.005582062677 	-5.282161049e-07 	0.0119915151 	4.136986688e-07 	2.285916065e-05
0.3871770685 	0.0336739906 	-0.005472752897 	-5.724331445e-07 	0.01178686282 	5.588257056e-07 	2.246903652e-05
0.3874668729 	0.03292842586 	-0.005345428333 	-6.092041801e-07 	0.01153336713 	6.875456205e-07 	2.198580329e-05
0.3877620936 	0.03206054369 	-0.005201390819 	-6.383527589e-07 	0.01123623208 	7.975273888e-07 	2.14193813e-05
0.3880628288 	0.0310848123 	-0.005042038765 	-6.597773562e-07 	0.01090083292 	8.868816481e-07 	2.078001728e-05
0.3883691783 	0.03001585576 	-0.004868822263 	-6.734311203e-07 	0.01053264299 	9.541700309e-07 	2.007814493e-05
0.3886812435 	0.02886843852 	-0.00468321789 	-6.793804795e-07 	0.01013719 	9.98627349e-07 	1.932430163e-05
0.3889991275 	0.02765720277 	-0.004486621366 	-6.77231811e-07 	0.009719942723 	1.019743762e-06 	1.852891235e-05
0.3893229347 	0.0263984262 	-0.004281051185 	-6.619583606e-07 	0.009286849696 	1.013821221e-06 	1.770331667e-05
0.3896527714 	0.02511231917 	-0.004070044853 	-6.314424335e-07 	0.008845086557 	9.798128511e-07 	1.686119334e-05
0.3899887454 	0.02381898423 	-0.003857063526 	-5.923258292e-07 	0.008401844487 	9.242058566e-07 	1.601625076e-05
0.3903309662 	0.02253459284 	-0.003644136222 	-5.476318797e-07 	0.007963116484 	8.513325535e-07 	1.517991325e-05
0.3906795449 	0.02127450404 	-0.003433273472 	-4.956895616e-07 	0.0075346362 	7.624729522e-07 	1.436311074e-05
0.3910345942 	0.02005547868 	-0.003227483106 	-4.360188367e-07 	0.007122593081 	6.604719884e-07 	1.357764203e-05
0.3913962286 	0.01889506689 	-0.003030653365 	-3.693584884e-07 	0.006733466591 	5.493089402e-07 	1.283585879e-05
0.391764564 	0.01781102528 	-0.002847240182 	-2.994380324e-07 	0.006373719465 	4.367215616e-07 	1.215008078e-05
0.3921397182 	0.01682020855 	-0.002680619745 	-2.266964483e-07 	0.006047283817 	3.218310263e-07 	1.152780371e-05
0.3925218105 	0.01593683481 	-0.002537524246 	-1.550643346e-07 	0.005765426805 	2.095441927e-07 	1.099050591e-05
0.3929109619 	0.01516538779 	-0.002419431512 	-1.016861447e-07 	0.005539824863 	5.439093344e-08 	1.05604459e-05
0.3933072949 	0.01432286035 	-0.002323530542 	-5.786817949e-08 	0.005490198277 	-6.20331695e-08 	1.046584384e-05
0.3937109339 	0.01339082917 	-0.002243229454 	-2.492587971e-08 	0.005609511413 	-5.37526899e-08 	1.069328784e-05
0.3941220045 	0.01255785979 	-0.00216759492 	-4.575818297e-10 	0.005754876593 	-1.096309656e-09 	1.097039427e-05
0.394129973 	0.01254413805 	-0.002166118631 	6.682721466e-08 	0.005757748513 	1.214069593e-07 	1.097586895e-05
0.3945400737 	0.0118364884 	-0.002090022755 	-2.352599767e-08 	0.00590573109 	-5.796954857e-08 	1.125796487e-05
0.3949668698 	0.01121020453 	-0.002008069497 	-4.848943836e-08 	0.006059288438 	-1.241412857e-07 	1.155068786e-05
0.3954119652 	0.01066788088 	-0.001924096672 	-7.265049583e-08 	0.006221246239 	-2.042516379e-07 	1.185942444e-05
0.395865298 	0.01020552967 	-0.001840238579 	-9.456873589e-08 	0.006391457984 	-2.939147499e-07 	1.218389533e-05
0.3963270188 	0.009822131899 	-0.001760264623 	-1.09453522e-07 	0.006566076528 	-3.897583476e-07 	1.251676681e-05
0.3967972809 	0.00950952611 	-0.001685944741 	-1.198632472e-07 	0.0067462769 	-5.001497777e-07 	1.28602788e-05
0.3972762401 	0.009250670279 	-0.001613798903 	-1.369865544e-07 	0.006937392225 	-6.3342548e-07 	1.322459773e-05
0.3977640554 	0.009033356016 	-0.001541175124 	-1.571254e-07 	0.007138425381 	-7.721758567e-07 	1.36078228e-05
0.3982608883 	0.00885271772 	-0.001468801052 	-1.736984839e-07 	0.007343731207 	-9.061039292e-07 	1.399919276e-05
0.3987669034 	0.008703486496 	-0.001397141527 	-1.895477707e-07 	0.007549734306 	-1.039050379e-06 	1.439189193e-05
0.399282268 	0.008580319818 	-0.00132616656 	-2.049953642e-07 	0.007754574811 	-1.172034638e-06 	1.478237486e-05
0.3998071528 	0.008478769351 	-0.001255838206 	-2.201107753e-07 	0.007957200497 	-1.305731803e-06 	1.516863574e-05
0.4003417311 	0.00839519629 	-0.001186072991 	-2.35210665e-07 	0.008156876275 	-1.439687267e-06 	1.554927327e-05
0.4008861797 	0.008326647801 	-0.001116753661 	-2.505512946e-07 	0.008353020854 	-1.573445636e-06 	1.592317935e-05
0.4014406782 	0.008270735562 	-0.00104774667 	-2.663895518e-07 	0.008545164799 	-1.706467984e-06 	1.628945911e-05
0.4020054097 	0.00822552975 	-0.0009789093918 	-2.829829711e-07 	0.008732908727 	-1.838084946e-06 	1.664735122e-05
0.4025805604 	0.008189472225 	-0.0009100957219 	-3.005843159e-07 	0.008915893546 	-1.967503059e-06 	1.699617114e-05
0.4031663199 	0.008161306048 	-0.0008411604278 	-3.194382523e-07 	0.009093781885 	-2.093817542e-06 	1.733527576e-05
0.4037628812 	0.008140018761 	-0.0007719623253 	-3.397795162e-07 	0.009266246683 	-2.216020783e-06 	1.76640416e-05
0.4043704407 	0.008124797144 	-0.0007023665539 	-3.618315309e-07 	0.009432964351 	-2.333007827e-06 	1.798185181e-05
0.4049891984 	0.008114991275 	-0.0006322462194 	-3.858049923e-07 	0.009593610232 	-2.443579635e-06 	1.828808751e-05
0.4056193577 	0.008110084762 	-0.0005614824929 	-4.118974391e-07 	0.009747849908 	-2.54643934e-06 	1.85821112e-05
0.4062611258 	0.008109671778 	-0.0004899638397 	-4.402917474e-07 	0.009895342222 	-2.64019412e-06 	1.886327254e-05
0.4069147136 	0.008113468301 	-0.0004176087636 	-4.711569723e-07 	0.01003583382 	-2.723323574e-06 	1.913108858e-05
0.4075803356 	0.00812117593 	-0.0003442312366 	-5.046468575e-07 	0.01016883146 	-2.794231965e-06 	1.938461904e-05
0.4082582104 	0.008132712554 	-0.000269644592 	-4.930539128e-07 	0.01029423148 	-2.598573071e-06 	1.962366633e-05
0.4089563963 	0.008148264494 	-0.000193493089 	-4.790853632e-07 	0.01041258096 	-2.386301567e-06 	1.984927334e-05
0.4096771504 	0.008167705928 	-0.0001153241092 	-4.64231007e-07 	0.01052312351 	-2.16890917e-06 	2.005999815e-05
0.4104111267 	0.008190979045 	-3.554971271e-05 	-4.484445825e-07 	0.01062448089 	-1.950611007e-06 	2.025321351e-05
0.411158564 	0.008218204883 	4.5402878e-05 	-4.31360746e-07 	0.01071592687 	-1.733043533e-06 	2.042753496e-05
0.411919705 	0.008249444236 	0.000127648573 	-4.127093428e-07 	0.01079689676 	-1.517773605e-06 	2.058188607e-05
0.4126947969 	0.008284878642 	0.0002112012758 	-3.921926684e-07 	0.01086689863 	-1.306665797e-06 	2.071532908e-05
0.4134840914 	0.008324740271 	0.0002960684082 	-3.695386054e-07 	0.01092537628 	-1.101368583e-06 	2.082680375e-05
0.4142878445 	0.008369289499 	0.0003822485123 	-3.449268767e-07 	0.01097167412 	-9.026803766e-07 	2.091506029e-05
0.4151063168 	0.008418742344 	0.0004697699834 	-3.17410342e-07 	0.01100492912 	-7.152974925e-07 	2.097845356e-05
0.4159397736 	0.008473679585 	0.0005583014017 	-2.799736486e-07 	0.01102470812 	-5.461498357e-07 	2.101615784e-05
0.4167884849 	0.008538906854 	0.0006568692029 	-2.233447437e-07 	0.01103285889 	-4.424632194e-07 	2.103169546e-05
0.4180905889 	0.008601716294 	0.0007720743492 	-1.437561616e-07 	0.01103900444 	-3.572333134e-07 	2.10434106e-05
0.419406252 	0.008651867965 	0.0008898595874 	-8.231140573e-08 	0.01104956005 	-2.534048564e-07 	2.106353252e-05
0.4207356172 	0.008701164073 	0.001000460418 	-3.657695291e-08 	0.01106035578 	-1.326467774e-07 	2.108411218e-05
0.4220788289 	0.00875356139 	0.001104887461 	-1.652507975e-09 	0.01107072177 	-7.199207596e-09 	2.110387265e-05
0.4221548793 	0.008756569164 	0.00111031405 	2.298908379e-07 	0.01107127659 	-5.566721697e-08 	2.110493029e-05
0.4234639132 	0.008808433108 	0.001203930447 	-2.503435304e-08 	0.01108081718 	-1.229328471e-07 	2.112311731e-05
0.4248663094 	0.008864557637 	0.001297499546 	-3.968994041e-08 	0.01109029195 	-2.579727876e-07 	2.114117884e-05
0.4262832195 	0.0089209169 	0.00138432196 	-4.167671159e-08 	0.01110020066 	-3.979302327e-07 	2.116006759e-05
0.4277147966 	0.008976821848 	0.001464614372 	-3.098094248e-08 	0.01111071048 	-5.426336014e-07 	2.118010225e-05
0.4291611958 	0.009031772106 	0.001538607256 	-7.952152147e-09 	0.01112208732 	-6.917892474e-07 	2.120178965e-05
0.4306225742 	0.009085376941 	0.001606620004 	2.667604627e-08 	0.01113447024 	-8.448690414e-07 	2.122539495e-05
0.4320990907 	0.009137403331 	0.00166897271 	7.185036171e-08 	0.01114810497 	-1.001122864e-06 	2.125138652e-05
0.4335909064 	0.009187649376 	0.001726298046 	1.263625597e-07 	0.01116261038 	-1.159877228e-06 	2.127903788e-05
0.4350981844 	0.009236123377 	0.001778836336 	1.888180543e-07 	0.01117845752 	-1.320198092e-06 	2.130924692e-05
0.4366434922 	0.009283169457 	0.001827269054 	2.584773038e-07 	0.01119592708 	-1.483992486e-06 	2.134254876e-05
0.4382166345 	0.009328809598 	0.001872434521 	3.176091131e-07 	0.01121424707 	-1.568607423e-06 	2.137747176e-05
0.4398059559 	0.009372799363 	0.001914232516 	3.236932285e-07 	0.01123349679 	-1.420681955e-06 	2.141416708e-05
0.4414116291 	0.009415183157 	0.001952943423 	3.178045826e-07 	0.01125365714 	-1.269243015e-06 	2.145259829e-05
0.4430338293 	0.009456168523 	0.001989080699 	3.014669426e-07 	0.01127456506 	-1.115205976e-06 	2.14924546e-05
0.4446727339 	0.009495970864 	0.002023027477 	2.761603088e-07 	0.01129622404 	-9.593390969e-07 	2.153374265e-05
0.4463285227 	0.009534781186 	0.002055275904 	2.433132456e-07 	0.01131831011 	-8.023960759e-07 	2.157584483e-05
0.4480013782 	0.009572776016 	0.002086065327 	2.041982783e-07 	0.0113408951 	-6.449015654e-07 	2.161889809e-05
0.4497078613 	0.009610345074 	0.002115623015 	1.592942056e-07 	0.01136449481 	-4.851863089e-07 	2.16638857e-05
0.4514512468 	0.009647811669 	0.002144637576 	1.094984185e-07 	0.01138854852 	-3.235087281e-07 	2.170973876e-05
0.4532124669 	0.009685062124 	0.002173141489 	5.643615188e-08 	0.0114128013 	-1.625429585e-07 	2.175597131e-05
0.454991715 	0.009722048689 	0.002200988002 	8.498861294e-10 	0.01143748333 	-2.396178914e-09 	2.180302211e-05
0.4550186889 	0.009722601647 	0.002201399512 	1.141988985e-08 	0.01143785855 	-1.082620368e-08 	2.180373738e-05
0.4567876948 	0.009758944824 	0.002228417009 	5.613771801e-08 	0.01146244966 	-1.570125883e-07 	2.185061487e-05
0.4586020882 	0.009795894772 	0.00225556039 	1.146362293e-07 	0.01148784761 	-3.155097432e-07 	2.189903043e-05
0.4604351201 	0.009832967347 	0.002282750864 	1.742359587e-07 	0.01151315382 	-4.731476158e-07 	2.19472711e-05
0.462291103 	0.00987027754 	0.002309676022 	2.347350924e-07 	0.01153931876 	-6.303179959e-07 	2.199714875e-05
0.4641986841 	0.009908270073 	0.002336843731 	2.970577025e-07 	0.01156623177 	-7.900784104e-07 	2.204845243e-05
0.4661257233 	0.009946865659 	0.002364575996 	3.596273099e-07 	0.01159302765 	-9.489609662e-07 	2.209953281e-05
0.4680724357 	0.009985744453 	0.002392280659 	4.222446821e-07 	0.01162027654 	-1.106853707e-06 	2.215147677e-05
0.4700390397 	0.01002503022 	0.002420113265 	4.847937914e-07 	0.01164791702 	-1.263859144e-06 	2.220416721e-05
0.4720257568 	0.01006477884 	0.002448217984 	5.471900546e-07 	0.01167575096 	-1.420078818e-06 	2.225722644e-05
0.4740328119 	0.01010498941 	0.002476548837 	6.09350078e-07 	0.01170390206 	-1.575585434e-06 	2.231089026e-05
0.4760774571 	0.01014588549 	0.002505087393 	5.502090699e-07 	0.01173292433 	-1.41834011e-06 	2.236621477e-05
0.478163013 	0.01018769249 	0.002534258451 	4.888148623e-07 	0.01176232427 	-1.256983876e-06 	2.242225923e-05
0.4802697826 	0.01023016468 	0.002563921011 	4.27398296e-07 	0.0117918653 	-1.096988035e-06 	2.247857263e-05
0.4823980057 	0.01027312572 	0.002593762824 	3.66034109e-07 	0.01182187794 	-9.381275021e-07 	2.253578507e-05
0.4845479263 	0.01031665004 	0.002623945473 	3.048032585e-07 	0.01185214203 	-7.804002854e-07 	2.259347684e-05
0.4867197918 	0.01036073043 	0.002654465304 	2.437686153e-07 	0.01188267528 	-6.237571742e-07 	2.265168169e-05
0.488928055 	0.01040553589 	0.002685252916 	1.82442231e-07 	0.01191405547 	-4.667016313e-07 	2.271150106e-05
0.4911816255 	0.01045132934 	0.002716703299 	1.20656045e-07 	0.01194587786 	-3.086556962e-07 	2.277216339e-05
0.4934580691 	0.01049788082 	0.00274874539 	5.935356074e-08 	0.0119777771 	-1.518972101e-07 	2.28329722e-05
0.4957035467 	0.01054385028 	0.002780224162 	1.844097488e-08 	0.01200944918 	-2.025610246e-08 	2.289334799e-05
0.4957576181 	0.01054495883 	0.002780982362 	1.419820076e-09 	0.01201021143 	-3.6564861e-09 	2.289480105e-05
0.4980792332 	0.01059265206 	0.002813676789 	6.130861945e-08 	0.01204261166 	-1.580603721e-07 	2.295656489e-05
0.5004245514 	0.01064091137 	0.002846589939 	1.2057748e-07 	0.01207564933 	-3.112897433e-07 	2.301954388e-05
0.5028227957 	0.01069011347 	0.002879982486 	1.801532213e-07 	0.01210949285 	-4.6581554e-07 	2.308405902e-05
0.5052529341 	0.01074030687 	0.00291419109 	2.391594965e-07 	0.01214333085 	-6.19595084e-07 	2.314856367e-05
0.5077077682 	0.01079109272 	0.002948711293 	2.97311431e-07 	0.01217757375 	-7.719219832e-07 	2.321384015e-05
0.5101875913 	0.01084246975 	0.00298364799 	3.545754982e-07 	0.0122119256 	-9.228546572e-07 	2.327932432e-05
0.5126927018 	0.01089443086 	0.00301888788 	4.109081639e-07 	0.01224673834 	-1.072384927e-06 	2.334568708e-05
0.5152453314 	0.01094726835 	0.003054578205 	4.669342213e-07 	0.01228228922 	-1.222163649e-06 	2.341345694e-05
0.5178375627 	0.0110011282 	0.003091047545 	5.222387661e-07 	0.01231795476 	-1.371405602e-06 	2.348144538e-05
0.5204561288 	0.0110556762 	0.003127949764 	5.763850449e-07 	0.01235390774 	-1.518952053e-06 	2.354998175e-05
0.5231013502 	0.01111081819 	0.003165298405 	5.375098558e-07 	0.0123898792 	-1.421923582e-06 	2.361855335e-05
0.5257735529 	0.01116654936 	0.003202934233 	4.804932576e-07 	0.01242639988 	-1.276303869e-06 	2.368817192e-05
0.5285003312 	0.01122325413 	0.003241120735 	4.236594071e-07 	0.01246357708 	-1.130189642e-06 	2.375904198e-05
0.5312618722 	0.01128098735 	0.003280115388 	3.677204828e-07 	0.01250071639 	-9.856164716e-07 	2.382983984e-05
0.5340515049 	0.01133934952 	0.003319524498 	3.129565851e-07 	0.01253803905 	-8.430306584e-07 	2.390098719e-05
0.53686958 	0.01139831845 	0.003359352419 	2.593789323e-07 	0.01257549852 	-7.024205352e-07 	2.397239535e-05
0.5397256397 	0.01145803918 	0.003399579374 	2.067520258e-07 	0.01261355182 	-5.630430875e-07 	2.404493552e-05
0.5426344385 	0.01151883424 	0.00344053338 	1.548283981e-07 	0.01265188447 	-4.241495879e-07 	2.411800821e-05
0.5455728418 	0.01158051425 	0.003482144716 	1.04303642e-07 	0.01269020371 	-2.875610991e-07 	2.419105532e-05
0.5485412272 	0.01164280149 	0.003524222078 	5.520432232e-08 	0.01272845456 	-1.532184647e-07 	2.426397208e-05
0.5515410631 	0.01170574019 	0.003566647363 	7.511545168e-09 	0.01276721398 	-2.099550698e-08 	2.43378583e-05
0.5520281168 	0.01171592898 	0.00357350888 	1.545464384e-07 	0.0127734468 	-1.99107686e-07 	2.43497398e-05
0.5546006518 	0.01176978865 	0.003609746169 	3.899203441e-08 	0.01280635668 	-1.107188455e-07 	2.441247518e-05
0.5576913108 	0.0118348689 	0.00365364039 	8.378593906e-08 	0.01284527237 	-2.398382617e-07 	2.44866593e-05
0.5608136116 	0.01190056286 	0.003698003807 	1.269348278e-07 	0.01288406931 	-3.664310306e-07 	2.456061705e-05
0.5639687067 	0.01196693605 	0.00374275387 	1.684466906e-07 	0.01292326244 	-4.905893536e-07 	2.463533005e-05
0.567184494 	0.01203443128 	0.003788203378 	2.087770511e-07 	0.01296275817 	-6.137126508e-07 	2.471061988e-05
0.5704332106 	0.01210298811 	0.003834485535 	2.472223548e-07 	0.01300184672 	-7.339992683e-07 	2.478513352e-05
0.5737152938 	0.01217217347 	0.003881214071 	2.838306485e-07 	0.01304086701 	-8.514964292e-07 	2.485951705e-05
0.5770372296 	0.01224217376 	0.003928432419 	3.186887957e-07 	0.01308012654 	-9.665660709e-07 	2.493435663e-05
0.5804142413 	0.01231331702 	0.003976395353 	3.519062906e-07 	0.01311939784 	-1.079674652e-06 	2.500921864e-05
0.5838259791 	0.01238545204 	0.004025128361 	3.830374004e-07 	0.01315813923 	-1.189695871e-06 	2.508307049e-05
0.5872729134 	0.01245825783 	0.004074291603 	4.121654574e-07 	0.01319687695 	-1.296688379e-06 	2.515691536e-05
0.5907705878 	0.01253207986 	0.004124073007 	4.394524217e-07 	0.01323565638 	-1.40130842e-06 	2.523083972e-05
0.5943140224 	0.01260705112 	0.004174657797 	4.6461896e-07 	0.01327397824 	-1.502970085e-06 	2.530389184e-05
0.5978940924 	0.01268285515 	0.004225840652 	4.280067046e-07 	0.01331183799 	-1.405631776e-06 	2.537606303e-05
0.6015149511 	0.01275949321 	0.004277522621 	3.914006359e-07 	0.01334960971 	-1.306004486e-06 	2.544806644e-05
0.6051922863 	0.01283730686 	0.004329933399 	3.562095619e-07 	0.01338706605 	-1.208712403e-06 	2.551946863e-05
0.6089077541 	0.01291616805 	0.004383098573 	3.227230714e-07 	0.01342367717 	-1.114841922e-06 	2.55892596e-05
0.612661888 	0.01299577478 	0.004436705554 	2.909955171e-07 	0.01346000712 	-1.024287496e-06 	2.565851458e-05
0.6164727598 	0.0130765212 	0.004490967973 	2.607792839e-07 	0.01349594539 	-9.363110863e-07 	2.572702292e-05
0.6203260974 	0.01315841275 	0.004546004113 	2.322751454e-07 	0.01353085658 	-8.518091919e-07 	2.579357334e-05
0.6242196901 	0.01324108285 	0.004601492146 	2.055577882e-07 	0.01356521839 	-7.708180646e-07 	2.585907652e-05
0.6281668391 	0.01332484229 	0.004657568256 	1.804462253e-07 	0.01359898197 	-6.928054499e-07 	2.592343927e-05
0.6321607674 	0.0134097621 	0.004714364198 	1.570393301e-07 	0.01363156858 	-6.183196135e-07 	2.598555842e-05
0.6361966073 	0.01349551112 	0.00477160928 	1.353955305e-07 	0.01366333591 	-5.474967828e-07 	2.604611577e-05
0.6402856089 	0.01358233059 	0.004829384611 	1.153702419e-07 	0.01369424575 	-4.799113008e-07 	2.610503852e-05
0.6444231319 	0.01367029794 	0.004887804606 	9.702289955e-08 	0.01372375347 	-4.160022231e-07 	2.616128843e-05
0.6486042948 	0.01375910442 	0.004946619309 	8.036818881e-08 	0.01375219348 	-3.558622057e-07 	2.621550299e-05
0.6528401147 	0.01384898734 	0.005005905486 	6.527525638e-08 	0.01377945688 	-2.99131648e-07 	2.626747461e-05
0.6571245484 	0.01393997402 	0.005065729599 	5.178868469e-08 	0.01380504395 	-2.462504356e-07 	2.631625067e-05
0.6614544254 	0.01403178236 	0.005125851833 	3.986720757e-08 	0.01382931049 	-1.971890375e-07 	2.636250945e-05
0.6658416149 	0.01412468226 	0.005186379788 	2.939142683e-08 	0.0138519837 	-1.516700278e-07 	2.64057309e-05
0.6702766106 	0.01421858908 	0.005247281262 	2.038567697e-08 	0.01387274698 	-1.101280317e-07 	2.644531147e-05
0.6747608143 	0.01431332987 	0.005308370744 	1.27473737e-08 	0.01389186236 	-7.234984874e-08 	2.648175071e-05
0.6793018053 	0.01440886204 	0.005369589218 	6.401521325e-09 	0.01390885 	-3.832781551e-08 	2.651413387e-05
0.6838407313 	0.01450412382 	0.005430268299 	1.351255378e-09 	0.01392360677 	-8.568860532e-09 	2.654226437e-05
0.68533741 	0.01453551101 	0.005450115922 	3.463065366e-07 	0.01392778541 	-1.139480147e-06 	2.655023002e-05
0.6883321244 	0.01459831799 	0.005489825607 	2.491169172e-09 	0.01393614397 	-1.706630645e-08 	2.656616376e-05
0.6927764795 	0.01469131082 	0.005548186244 	5.275952237e-09 	0.01394613057 	-3.862614591e-08 	2.658520098e-05
0.6971701987 	0.0147828834 	0.005605213935 	7.175186599e-09 	0.01395387707 	-5.641227002e-08 	2.659996798e-05
0.7015195371 	0.0148732177 	0.005660960899 	8.338846028e-09 	0.01395931273 	-7.081192378e-08 	2.661032985e-05
0.7058210368 	0.01496228613 	0.00571544365 	8.860198585e-09 	0.01396226017 	-8.182476934e-08 	2.661594849e-05
0.7100738481 	0.01504989758 	0.005768535821 	8.874836915e-09 	0.01396307956 	-8.98180902e-08 	2.661751047e-05
0.7142840845 	0.01513626235 	0.005820314503 	8.488372415e-09 	0.01396161151 	-9.504118285e-08 	2.661471197e-05
0.7184469364 	0.01522127212 	0.005870753444 	7.782724522e-09 	0.01395781545 	-9.753278375e-08 	2.660747563e-05
0.7225632872 	0.01530481261 	0.005919767165 	6.86435209e-09 	0.01395198096 	-9.764620636e-08 	2.659635345e-05
0.7266374089 	0.01538706995 	0.005967429153 	5.806806434e-09 	0.0139439217 	-9.552419014e-08 	2.658099028e-05
0.730665764 	0.01546790214 	0.006013697906 	4.679777539e-09 	0.01393368884 	-9.125573745e-08 	2.656148359e-05
0.7346493111 	0.01554725089 	0.006058519142 	3.559411512e-09 	0.0139215068 	-8.514393732e-08 	2.653826125e-05
0.7385913566 	0.01562527854 	0.006101954437 	2.498668242e-09 	0.01390720523 	-7.729027691e-08 	2.651099848e-05
0.7424893035 	0.01570185063 	0.006143971253 	1.549967703e-09 	0.01389083978 	-6.778339113e-08 	2.647980138e-05
0.74634377 	0.01577690423 	0.006184522896 	7.647412871e-10 	0.0138726296 	-5.687951688e-08 	2.644508771e-05
0.7501578474 	0.01585060216 	0.006223661447 	1.804094796e-10 	0.01385243463 	-4.468235019e-08 	2.64065905e-05
0.7539294053 	0.01592284808 	0.006261376634 	-1.672162018e-10 	0.0138302543 	-3.124386382e-08 	2.636430862e-05
0.7576589941 	0.0159935318 	0.006297617548 	-2.465205441e-10 	0.01380633775 	-1.678066535e-08 	2.631871702e-05
0.7613487646 	0.01606281983 	0.006332424648 	-3.400596848e-11 	0.01378058703 	-1.416790319e-09 	2.6269629e-05
0.7616645071 	0.0160686909 	0.006335313281 	1.142624487e-08 	0.01377819384 	-3.554291408e-07 	2.626506691e-05
0.7649978035 	0.01613067847 	0.006365811368 	-4.810468868e-10 	0.01375292577 	-1.478213231e-08 	2.621689894e-05
0.7686063318 	0.01619694577 	0.006397728483 	-1.326142063e-09 	0.0137236194 	-3.168414862e-08 	2.616103286e-05
0.7721756267 	0.01626176644 	0.006428200404 	-2.512847881e-09 	0.0136926326 	-4.915063839e-08 	2.61019634e-05
0.7757060681 	0.01632517209 	0.006457256519 	-4.056375241e-09 	0.0136598485 	-6.719045122e-08 	2.603946781e-05
0.779197407 	0.01638699955 	0.006484864464 	-5.960474187e-09 	0.01362546501 	-8.568533199e-08 	2.597392332e-05
0.7826502185 	0.01644730504 	0.006511025887 	-8.223488461e-09 	0.013589553 	-1.044955024e-07 	2.590546504e-05
0.7860658461 	0.01650618945 	0.006535771488 	-1.085084365e-08 	0.01355200755 	-1.235914706e-07 	2.583389297e-05
0.7894437099 	0.01656356345 	0.006559101401 	-1.384351057e-08 	0.01351287163 	-1.42933568e-07 	2.575928903e-05
0.7927842666 	0.01661934251 	0.006580997752 	-1.718986579e-08 	0.01347233217 	-1.624092266e-07 	2.568200955e-05
0.7960883722 	0.01667365082 	0.006601480677 	-2.088182668e-08 	0.01343034532 	-1.819262907e-07 	2.560197095e-05
0.7993563864 	0.0167265066 	0.006620571786 	-2.492180382e-08 	0.01338684481 	-2.014989624e-07 	2.55190469e-05
0.8025883531 	0.01677778155 	0.006638262932 	-2.929471763e-08 	0.01334197631 	-2.210557202e-07 	2.543351506e-05
0.8057846993 	0.01682748444 	0.00665455504 	-3.398236561e-08 	0.01329583831 	-2.405106495e-07 	2.53455632e-05
0.8089462876 	0.01687571825 	0.006669469082 	-3.89751905e-08 	0.01324836505 	-2.59816773e-07 	2.525506597e-05
0.812073146 	0.01692245232 	0.006683020308 	-4.426843711e-08 	0.01319955126 	-2.789830077e-07 	2.516201333e-05
0.8151655736 	0.01696758047 	0.006695207504 	-4.983878782e-08 	0.01314954798 	-2.979475407e-07 	2.506669317e-05
0.8182239713 	0.01701114519 	0.006706039107 	-5.566485483e-08 	0.01309840851 	-3.166442867e-07 	2.496920713e-05
0.8212490869 	0.01705322917 	0.006715534739 	-6.173650438e-08 	0.01304607282 	-3.350498177e-07 	2.486944076e-05
0.8242409391 	0.01709378835 	0.006723709426 	-6.804339673e-08 	0.01299256956 	-3.531670676e-07 	2.476744867e-05
0.8271998887 	0.01713274538 	0.006730570615 	-7.455967017e-08 	0.01293802499 	-3.709493883e-07 	2.466347157e-05
0.8301263136 	0.01717013943 	0.00673612951 	-8.126215653e-08 	0.01288248695 	-3.88346072e-07 	2.455760063e-05
0.8330208137 	0.0172060468 	0.00674040417 	-8.813830503e-08 	0.0128259095 	-4.053359205e-07 	2.444974828e-05
0.835883524 	0.01724043554 	0.00674341284 	-9.517692218e-08 	0.01276832306 	-4.219290466e-07 	2.433997253e-05
0.8387147803 	0.01727324116 	0.006745170181 	-1.023520065e-07 	0.01270983439 	-4.380954785e-07 	2.422847686e-05
0.8415149398 	0.01730448696 	0.00674569009 	-1.096396075e-07 	0.01265050376 	-4.538029551e-07 	2.411537618e-05
0.8442844673 	0.01733425835 	0.006744988853 	-1.170235022e-07 	0.01259029744 	-4.690255865e-07 	2.400060621e-05
0.8470236332 	0.01736256767 	0.006743087104 	-1.244961268e-07 	0.0125292129 	-4.837820906e-07 	2.388416211e-05
0.8497327213 	0.01738936987 	0.006740004361 	-1.320344461e-07 	0.01246733489 	-4.980568218e-07 	2.376620541e-05
0.8524120703 	0.01741468659 	0.006735757165 	-1.39615851e-07 	0.01240472006 	-5.118259097e-07 	2.364684415e-05
0.8550620396 	0.01743860242 	0.006730359641 	-1.472209546e-07 	0.01234135669 	-5.250553623e-07 	2.352605595e-05
0.8576830073 	0.01746117733 	0.006723829711 	-1.548422087e-07 	0.01227721486 	-5.377478441e-07 	2.34037838e-05
0.8602752069 	0.01748238556 	0.006716189355 	-1.62462916e-07 	0.01221236063 	-5.499050387e-07 	2.328015362e-05
0.8628389602 	0.01750222352 	0.006707459511 	-1.700622071e-07 	0.0121468578 	-5.615164022e-07 	2.315528702e-05
0.8653745848 	0.01752071997 	0.006697658895 	-1.776211808e-07 	0.01208075472 	-5.725752994e-07 	2.302927618e-05
0.8678824306 	0.01753794332 	0.006686803349 	-1.851263377e-07 	0.01201405102 	-5.830788701e-07 	2.290212039e-05
0.8703627885 	0.01755391694 	0.006674915404 	-1.925743178e-07 	0.01194675846 	-5.930567505e-07 	2.277384206e-05
0.8728159327 	0.0175686145 	0.006662022371 	-1.999499617e-07 	0.01187896366 	-6.025194545e-07 	2.264460633e-05
0.8752421656 	0.01758205617 	0.00664814816 	-2.072356071e-07 	0.01181071884 	-6.114478549e-07 	2.251451273e-05
0.8776417855 	0.01759428367 	0.006633314878 	-2.144091928e-07 	0.0117420654 	-6.197938495e-07 	2.238364019e-05
0.8800151111 	0.01760536462 	0.006617542029 	-2.214451983e-07 	0.01167301386 	-6.274817597e-07 	2.225200877e-05
0.8823624151 	0.01761532286 	0.006600857694 	-2.283192115e-07 	0.0116035933 	-6.344448018e-07 	2.211967388e-05
0.8846839699 	0.01762414538 	0.006583296517 	-2.349960604e-07 	0.01153389349 	-6.406216965e-07 	2.198680668e-05
0.8869800602 	0.01763186934 	0.006564887515 	-2.414487713e-07 	0.01146396234 	-6.459894534e-07 	2.185349847e-05
0.889250967 	0.01763857579 	0.006545652549 	-2.47670984e-07 	0.01139381639 	-6.506070819e-07 	2.171978079e-05
0.8914969771 	0.0176444181 	0.006525598207 	-2.536876549e-07 	0.01132341004 	-6.546292864e-07 	2.158556671e-05
0.8937183629 	0.01764957801 	0.006504722066 	-2.595634632e-07 	0.01125265266 	-6.583080137e-07 	2.145068349e-05
0.8959153816 	0.01765423246 	0.006483016416 	-2.653765699e-07 	0.01118147638 	-6.619122949e-07 	2.13150017e-05
0.8980883014 	0.01765857099 	0.006460465098 	-2.711950259e-07 	0.01110980749 	-6.656209845e-07 	2.117838089e-05
0.9002373876 	0.01766272981 	0.006437058987 	-2.770409713e-07 	0.0110376107 	-6.69421221e-07 	2.104075374e-05