0.4709558481 	0.02342586077 	1.756387968e-08 	-8.805772447e-13
0.4709558481 	0.02342586077 	1.756387968e-08 	-8.805772447e-13
0.4711314108 	0.06441452482 	3.419304534e-08 	-8.229448406e-12
0.4713069734 	0.1287574904 	-1.621061814e-07 	-2.888205875e-11
0.471482536 	0.193016806 	-1.138716036e-06 	-6.089047385e-11
0.4716580986 	0.2571446552 	-3.3683318e-06 	-1.024219034e-10
0.4718336613 	0.3210244291 	-6.269952484e-06 	-1.571554444e-10
0.4720092239 	0.3844364148 	-7.750946669e-06 	-2.318174669e-10
0.4721847865 	0.4470490525 	-5.835828548e-06 	-3.274368244e-10
0.4723603491 	0.5084554078 	-9.220117896e-07 	-4.387299289e-10
0.4725359118 	0.5682481598 	6.796462117e-06 	-6.549295635e-10
0.4727114744 	0.6260974917 	2.866092605e-05 	-6.955252561e-10
0.472887037 	0.6818042538 	2.802884819e-05 	-6.064265997e-10
0.4730625996 	0.7353494674 	-4.918925842e-06 	-8.490471141e-10
0.4732381623 	0.7868217675 	-6.088146459e-06 	-1.07082099e-09
0.4734137249 	0.8362714027 	8.26052864e-06 	-1.143885066e-09
0.4735892875 	0.883719428 	8.506226156e-06 	-1.282198474e-09
0.4737648501 	0.9292099467 	8.726977043e-06 	-1.428251992e-09
0.4739404128 	0.972804831 	9.471794564e-06 	-1.577394911e-09
0.4741159754 	1.014576717 	1.042784164e-05 	-1.729636455e-09
0.474291538 	1.054605163 	1.144977828e-05 	-1.885240536e-09
0.4744671006 	1.092973199 	1.253830396e-05 	-2.043854558e-09
0.4746426632 	1.129764528 	1.368988911e-05 	-2.20514871e-09
0.4748182259 	1.165061298 	1.489638713e-05 	-2.368847741e-09
0.4749937885 	1.19894231 	1.615064263e-05 	-2.534701444e-09
0.4751693511 	1.23148171 	1.744656105e-05 	-2.702459726e-09
0.4753449137 	1.262748815 	1.877797756e-05 	-2.871892602e-09
0.4755204764 	1.292812135 	2.014013951e-05 	-3.042935161e-09
0.475696039 	1.321745402 	2.152853704e-05 	-3.215457044e-09
0.4758716016 	1.349622531 	2.298505961e-05 	-3.389192137e-09
0.4760471642 	1.376507282 	2.476046634e-05 	-3.564336384e-09
0.4762227269 	1.405983706 	2.683358765e-05 	-3.765062641e-09
0.4764955107 	1.4412182 	2.863160835e-05 	-4.016555959e-09
0.4767734216 	1.478508226 	3.061266274e-05 	-4.298064324e-09
0.4770565557 	1.514579465 	3.322896514e-05 	-4.587144543e-09
0.4773450114 	1.549498547 	3.603342791e-05 	-4.883221804e-09
0.4776388886 	1.583328755 	3.894339352e-05 	-5.186132566e-09
0.4779382892 	1.616130539 	4.197926447e-05 	-5.49586944e-09
0.4782433171 	1.647961675 	4.514408759e-05 	-5.812290993e-09
0.4785540779 	1.67887729 	4.843795615e-05 	-6.135578524e-09
0.4788706795 	1.70892952 	5.18871305e-05 	-6.466352128e-09
0.4791932316 	1.738166801 	5.55123199e-05 	-6.804541232e-09
0.4795218461 	1.766633471 	5.930087619e-05 	-7.149875136e-09
0.4798566368 	1.794370127 	6.324618078e-05 	-7.502771579e-09
0.48019772 	1.821414272 	6.73620483e-05 	-7.863637927e-09
0.4805452138 	1.847800766 	7.16606469e-05 	-8.232720055e-09
0.4808992388 	1.873562107 	7.614984098e-05 	-8.610360975e-09
0.4812599177 	1.898728663 	8.083818489e-05 	-8.996948731e-09
0.4816273755 	1.923328869 	8.573495298e-05 	-9.392910343e-09
0.4820017397 	1.947389414 	9.084998371e-05 	-9.798712024e-09
0.48238314 	1.970935407 	9.619366837e-05 	-1.021486007e-08
0.4827717088 	1.99399053 	0.0001017769847 	-1.064190113e-08
0.4831675807 	2.016577181 	0.0001076115256 	-1.10804226e-08
0.4835708931 	2.038716598 	0.000113709527 	-1.153105306e-08
0.4839817856 	2.060428979 	0.0001200838975 	-1.199446288e-08
0.4844004009 	2.081733588 	0.0001267482491 	-1.247136475e-08
0.4848268841 	2.102648843 	0.0001337169294 	-1.296251431e-08
0.485261383 	2.123192406 	0.0001410050539 	-1.346871066e-08
0.4857040484 	2.143381257 	0.0001486285399 	-1.399079671e-08
0.4861550336 	2.16323176 	0.0001566041396 	-1.452965936e-08
0.4866144951 	2.182759726 	0.0001649494743 	-1.50862295e-08
0.4870825921 	2.201980462 	0.0001736830677 	-1.5661482e-08
0.487559487 	2.220908817 	0.0001828243789 	-1.625643579e-08
0.4880453452 	2.239559225 	0.0001923938344 	-1.687215429e-08
0.4885403351 	2.257945741 	0.0002024128581 	-1.750974583e-08
0.4890446283 	2.276082063 	0.0002129038991 	-1.817036241e-08
0.4895583997 	2.293981565 	0.0002238904564 	-1.885519415e-08
0.4900818274 	2.311657313 	0.0002353970993 	-1.956545737e-08
0.4906150929 	2.329122082 	0.0002474494829 	-2.030237638e-08
0.4911583811 	2.346388367 	0.0002600743584 	-2.106716374e-08
0.4917118805 	2.363468391 	0.0002732995775 	-2.18610123e-08
0.4922757829 	2.38037411 	0.0002871540885 	-2.268511206e-08
0.4928502838 	2.397117213 	0.0003016679239 	-2.354068063e-08
0.4934355824 	2.413709117 	0.000316872176 	-2.442898469e-08
0.4940318817 	2.430160961 	0.0003327989591 	-2.535133647e-08
0.4946393885 	2.446483596 	0.0003494813558 	-2.630905016e-08
0.4952583133 	2.462687567 	0.0003669533459 	-2.730337165e-08
0.4958888709 	2.478783097 	0.0003852497169 	-2.833542717e-08
0.4965312797 	2.49478006 	0.0004044059559 	-2.940620489e-08
0.4971857627 	2.510687958 	0.0004244581211 	-3.051655238e-08
0.4978525466 	2.526515883 	0.0004454426922 	-3.166717768e-08
0.4985318627 	2.542272484 	0.0004673963985 	-3.285864472e-08
0.4992239466 	2.557965925 	0.0004903560237 	-3.409135944e-08
0.4999290382 	2.57360384 	0.0005143581876 	-3.536554818e-08
0.5006473819 	2.589193296 	0.0005394391098 	-3.668123148e-08
0.501379227 	2.604740754 	0.0005656343824 	-3.803819688e-08
0.502124827 	2.620252051 	0.000592978699 	-3.943597349e-08
0.5028844406 	2.63573242 	0.000621505041 	-4.087380253e-08
0.5036583311 	2.65118657 	0.0006512435247 	-4.235061074e-08
0.5044467669 	2.666618882 	0.0006822299625 	-4.38652418e-08
0.5052500214 	2.682033732 	0.0007145365474 	-4.54173263e-08
0.506068373 	2.699398872 	0.0007525197447 	-4.720900436e-08
0.507324668 	2.720516613 	0.0008008989069 	-4.944223415e-08
0.5085949819 	2.743200911 	0.0008557185253 	-5.190628317e-08
0.5098794711 	2.765494922 	0.000912653067 	-5.439151648e-08
0.5111782938 	2.787408227 	0.000971564324 	-5.688892881e-08
0.5124916099 	2.808949386 	0.001032374848 	-5.93904755e-08
0.5138195812 	2.830125041 	0.00109496281 	-6.183067636e-08
0.5151623712 	2.850936727 	0.001159144125 	-6.4205398e-08
0.5165201452 	2.871373075 	0.001224871887 	-6.661563402e-08
0.5178930705 	2.891397013 	0.001292073598 	-6.890475459e-08
0.5192813161 	2.910935656 	0.001360219301 	-7.084502881e-08
0.520685053 	2.929881769 	0.001428539281 	-7.244219286e-08
0.522104454 	2.948103994 	0.001496315296 	-7.366392353e-08
0.523539694 	2.965458046 	0.001562752721 	-7.444123059e-08
0.5249909497 	2.981797551 	0.001626908619 	-7.476547648e-08
0.5264583998 	2.99698768 	0.001687694083 	-7.454355754e-08
0.527942225 	3.010925598 	0.001743988128 	-7.569735582e-08
0.5294426081 	3.023563843 	0.001804766045 	-7.561778417e-08
0.5309597337 	3.034947615 	0.001850547234 	-6.974965992e-08
0.5324937889 	3.045274522 	0.001877385411 	-6.934783356e-08
0.5340449624 	3.054797203 	0.001923667532 	-7.682156314e-08
0.5356134452 	3.063647578 	0.001971281007 	-7.762837291e-08
0.5371994306 	3.071859602 	0.002004928721 	-7.542111647e-08
0.5388031139 	3.079451678 	0.002038643081 	-7.573213455e-08
0.5404246925 	3.086439752 	0.002070056454 	-7.526508152e-08
0.5420643661 	3.092839306 	0.002098899705 	-7.467711379e-08
0.5437223366 	3.098669075 	0.002125097501 	-7.40419447e-08
0.5453988083 	3.103950983 	0.002148595601 	-7.336457319e-08
0.5470939875 	3.108709569 	0.002169402971 	-7.265565157e-08
0.5488080831 	3.112971165 	0.002187542225 	-7.190295813e-08
0.5505413061 	3.116762973 	0.002203038097 	-7.115065328e-08
0.5522938699 	3.120112235 	0.002216026239 	-7.044488201e-08
0.5540659904 	3.123046137 	0.002226571998 	-6.964755103e-08
0.5558578859 	3.12559476 	0.002234580922 	-6.881821503e-08
0.5576697768 	3.127794464 	0.002240288936 	-6.818927709e-08
0.5595018865 	3.129684867 	0.002244070695 	-6.769011723e-08
0.5613544406 	3.131302683 	0.002246050794 	-6.722822407e-08
0.563227667 	3.132679408 	0.002246355124 	-6.684744064e-08
0.5651217966 	3.133841837 	0.00224515941 	-6.654574582e-08
0.5670370626 	3.134812803 	0.002242595583 	-6.630414187e-08
0.5689737009 	3.135611826 	0.002238774749 	-6.611499697e-08
0.5709319499 	3.13625565 	0.002233793206 	-6.59718038e-08
0.5729120508 	3.136758688 	0.002227734644 	-6.586886777e-08
0.5749142474 	3.137133384 	0.002220671794 	-6.580117599e-08
0.5769387863 	3.137390518 	0.002212668103 	-6.576444779e-08
0.5789859169 	3.137539459 	0.00220377772 	-6.575349307e-08
0.5810558911 	3.13758837 	0.002194051173 	-6.57677244e-08
0.583148964 	3.137544407 	0.002183529019 	-6.580379665e-08
0.5852653933 	3.137413813 	0.002172247171 	-6.585695941e-08
0.5874054395 	3.13720205 	0.002160240009 	-6.592607968e-08
0.5895693664 	3.136913945 	0.002147534161 	-6.600800352e-08
0.5917574402 	3.136553757 	0.00213415473 	-6.610109996e-08
0.5939699306 	3.136125245 	0.00212012326 	-6.620363275e-08
0.5962071099 	3.135631734 	0.002105458549 	-6.631401485e-08
0.5984692536 	3.135076165 	0.002090176928 	-6.64307775e-08
0.6007566404 	3.134461146 	0.002074292524 	-6.6552557e-08
0.6030695519 	3.133788981 	0.002057817472 	-6.667807766e-08
0.6054082729 	3.133061715 	0.002040762104 	-6.680613925e-08
0.6077730914 	3.13228115 	0.002023135108 	-6.69356059e-08
0.6101642987 	3.131448879 	0.002004943665 	-6.706539642e-08
0.6125821893 	3.130566302 	0.001986193564 	-6.719447582e-08
0.6150270608 	3.129634642 	0.001966889305 	-6.732184783e-08
0.6174992144 	3.128654967 	0.001947034184 	-6.744654845e-08
0.6199989545 	3.127628197 	0.001926630369 	-6.756764013e-08
0.622526589 	3.126555117 	0.001905678967 	-6.768420672e-08
0.625082429 	3.125436392 	0.001884180079 	-6.779534887e-08
0.6276667894 	3.124272568 	0.001862132853 	-6.790017998e-08
0.6302799884 	3.123064083 	0.001839535528 	-6.79978225e-08
0.6329223478 	3.121811278 	0.001816385476 	-6.808740463e-08
0.6355941931 	3.120514395 	0.001792679244 	-6.816805733e-08
0.6382958531 	3.119173588 	0.001768412585 	-6.823891157e-08
0.6410276607 	3.117788925 	0.001743580494 	-6.829909585e-08
0.6437899523 	3.116360395 	0.001718177247 	-6.834773398e-08
0.646583068 	3.114887907 	0.001692196429 	-6.838394301e-08
0.6494073518 	3.113371298 	0.001665630971 	-6.840683136e-08
0.6522631514 	3.111810333 	0.001638473186 	-6.841549717e-08
0.6551508186 	3.110204709 	0.001610714807 	-6.840902674e-08
0.658070709 	3.10855406 	0.001582347027 	-6.838649323e-08
0.6610231822 	3.106857952 	0.00155336054 	-6.834695549e-08
0.6640086017 	3.105115895 	0.001523745591 	-6.828945702e-08
0.6670273351 	3.103327337 	0.001493492022 	-6.821302522e-08
0.6700797543 	3.101491667 	0.001462589331 	-6.811667072e-08
0.6731662352 	3.099608223 	0.001431026727 	-6.799938704e-08
0.6762871577 	3.097676284 	0.001398793203 	-6.786015036e-08
0.6794429063 	3.095695077 	0.001365877602 	-6.769791979e-08
0.6826338695 	3.093663776 	0.001332268699 	-6.751163744e-08
0.6858604404 	3.091581505 	0.001297955284 	-6.730023188e-08
0.6891230163 	3.089447333 	0.001262926267 	-6.706264232e-08
0.6924219988 	3.087260279 	0.001227170769 	-6.679775246e-08
0.6957577944 	3.085019308 	0.001190678227 	-6.650436037e-08
0.6991308138 	3.082723332 	0.001153438562 	-6.618173982e-08
0.7025414724 	3.080371207 	0.001115442355 	-6.582929475e-08
0.7059901901 	3.07796173 	0.001076680872 	-6.544524696e-08
0.7094773917 	3.075493636 	0.001037146121 	-6.502752589e-08
0.7130035066 	3.072965592 	0.0009968311049 	-6.457518672e-08
0.7165689691 	3.070376193 	0.0009557300786 	-6.408762644e-08
0.7201742182 	3.067723955 	0.0009138387086 	-6.356394665e-08
0.7238196978 	3.065007303 	0.000871154269 	-6.300322067e-08
0.727505857 	3.062224566 	0.0008276759459 	-6.240454812e-08
0.7312331497 	3.059373959 	0.0007834044361 	-6.176708051e-08
0.7350020349 	3.056461384 	0.0007384621879 	-6.109192476e-08
0.7387709215 	3.053510464 	0.0006932442498 	-6.038490431e-08
0.7424982157 	3.050546009 	0.0006481565046 	-5.965297925e-08
0.7461843763 	3.047576169 	0.0006033435274 	-5.889958044e-08
0.7498298574 	3.044601222 	0.0005588294768 	-5.812632516e-08
0.7534351078 	3.041621349 	0.0005146384553 	-5.733484717e-08
0.7570005716 	3.038636639 	0.0004707941873 	-5.652676807e-08
0.7605266877 	3.035647084 	0.0004273199285 	-5.570368143e-08
0.7640138905 	3.032652586 	0.0003842384141 	-5.486714118e-08
0.7674626093 	3.029652953 	0.0003415718251 	-5.401864877e-08
0.770873269 	3.026647904 	0.0002993417636 	-5.315964091e-08
0.7742462894 	3.023637064 	0.0002575692335 	-5.229147784e-08
0.777582086 	3.020619972 	0.0002162746296 	-5.141543233e-08
0.7808810695 	3.017596078 	0.0001754777317 	-5.053267956e-08
0.7841436462 	3.014564748 	0.0001351977062 	-4.964428794e-08
0.787370218 	3.011525263 	9.545311527e-05 	-4.875120789e-08
0.7905611821 	3.008476819 	5.626192355e-05 	-4.785428302e-08
0.7937169314 	3.005418533 	1.764150872e-05 	-4.695423236e-08
0.7968378547 	3.002349443 	-2.039130906e-05 	-4.605161483e-08
0.7999243362 	2.99926851 	-5.782024248e-05 	-4.514689192e-08
0.8029767561 	2.996174615 	-9.462953039e-05 	-4.424042518e-08
0.8059954902 	2.993066568 	-0.0001308039145 	-4.333241863e-08
0.8089809102 	2.989943106 	-0.0001663286096 	-4.242296315e-08
0.8119333839 	2.986802892 	-0.0002011892906 	-4.151206082e-08
0.8148532749 	2.983644521 	-0.0002353720821 	-4.059962203e-08
0.8177409426 	2.980466518 	-0.0002688635483 	-3.968548391e-08
0.8205967427 	2.977267343 	-0.0003016506891 	-3.876942841e-08
0.8234210268 	2.97404539 	-0.0003337209432 	-3.785120236e-08
0.8262141429 	2.970798989 	-0.000365062199 	-3.69305397e-08
0.8289764348 	2.967526411 	-0.0003956628144 	-3.600718558e-08
0.8317082427 	2.964225865 	-0.0004255116467 	-3.508092223e-08
0.8344099031 	2.960895506 	-0.0004545980944 	-3.415159638e-08
0.8370817486 	2.957533438 	-0.0004829121518 	-3.321914826e-08
0.8397241082 	2.954137712 	-0.0005104444791 	-3.228364209e-08
0.8423373074 	2.95070634 	-0.00053718649 	-3.134529828e-08
0.844921668 	2.947237293 	-0.0005631304586 	-3.040452771e-08
0.8474775082 	2.943728513 	-0.0005882696505 	-2.946196881e-08
0.8500051427 	2.940177923 	-0.0006125984804 	-2.851852861e-08
0.8525048829 	2.936583433 	-0.0006361127008 	-2.75754301e-08
0.8549770366 	2.93294296 	-0.0006588096293 	-2.663427034e-08
0.8574219081 	2.929254441 	-0.0006806884178 	-2.569709792e-08
0.8598397987 	2.925515854 	-0.0007017503752 	-2.476652689e-08
0.862231006 	2.921725247 	-0.0007219993502 	-2.384591873e-08
0.8645958245 	2.917880765 	-0.0007414421924 	-2.293971044e-08
0.8669345455 	2.913980689 	-0.0007600893292 	-2.205389833e-08
0.8692474569 	2.910023481 	-0.0007779555158 	-2.119692044e-08
0.8715348435 	2.906007839 	-0.0007950613025 	-2.038248125e-08
0.8737969871 	2.901932754 	-0.00081143558 	-1.962361977e-08
0.8760341663 	2.897797579 	-0.0008271178122 	-1.894942629e-08
0.8782466565 	2.893602036 	-0.0008421862939 	-1.846748677e-08
0.8804347301 	2.889346083 	-0.0008566733579 	-1.740769013e-08
0.8825986568 	2.885029623 	-0.0008702742369 	-1.690787593e-08
0.8847387028 	2.880650816 	-0.0008835086897 	-1.711908704e-08
0.8868551318 	2.876201523 	-0.0008966353716 	-1.566812856e-08
0.8889482045 	2.871666959 	-0.0009084669011 	-1.420577972e-08
0.8910181784 	2.867031453 	-0.0009190165635 	-1.341806316e-08
0.8930653087 	2.862280479 	-0.0009286204045 	-1.219101475e-08
0.8950898473 	2.857399097 	-0.0009368913186 	-1.09014916e-08
0.8970920436 	2.85237141 	-0.0009437090676 	-9.53514493e-09
0.8990721441 	2.84718048 	-0.0009489625055 	-8.083056265e-09
0.9010303927 	2.841808301 	-0.0009525397818 	-6.552751362e-09
0.9029670306 	2.836235967 	-0.0009543328535 	-4.97474823e-09
0.9048822962 	2.830444013 	-0.000954244225 	-3.373918594e-09
0.9067764254 	2.824412866 	-0.0009521903891 	-1.775353879e-09
0.9086496514 	2.818123238 	-0.0009481057916 	-1.692926457e-10
0.910502205 	2.811556628 	-0.0009419436054 	1.447359371e-09
0.9123343142 	2.804695897 	-0.0009336772644 	3.033818781e-09
0.9141462048 	2.797525674 	-0.0009233049224 	4.565712116e-09
0.9159380997 	2.790032696 	-0.0009108505757 	6.022535054e-09
0.9177102197 	2.782206055 	-0.0008963644129 	7.387128546e-09
0.9194627831 	2.774037322 	-0.0008799218214 	8.644225956e-09
0.9211960055 	2.765520575 	-0.0008616214682 	9.780343286e-09
0.9229101006 	2.756652315 	-0.0008415827596 	1.078407244e-08
0.9246052793 	2.747431298 	-0.0008199428348 	1.164643409e-08
0.9262817504 	2.737858291 	-0.0007968531153 	1.236120998e-08
0.9279397204 	2.727935765 	-0.000772475483 	1.292521558e-08
0.9295793934 	2.71766755 	-0.0007469783448 	1.333841132e-08
0.9312009714 	2.707058488 	-0.0007205329577 	1.360377846e-08
0.9328046541 	2.696114101 	-0.0006933102951 	1.372701117e-08
0.9343906389 	2.684840296 	-0.0006654784914 	1.371603255e-08
0.9359591211 	2.673243115 	-0.0006372007146 	1.358053133e-08
0.937510294 	2.661328519 	-0.0006086334726 	1.333143675e-08
0.9390443485 	2.649102219 	-0.0005799254828 	1.298010839e-08
0.9405614735 	2.636569527 	-0.0005512169809 	1.253763389e-08
0.942061856 	2.62373524 	-0.000522639294 	1.2014535e-08
0.9435456805 	2.610603539 	-0.0004943146099 	1.142080986e-08
0.9450131299 	2.5971779 	-0.0004663558825 	1.076612593e-08
0.946464385 	2.583461014 	-0.000438866824 	1.006000212e-08
0.9478996243 	2.5694547 	-0.000411941953 	9.311886301e-09
0.9493190246 	2.555159822 	-0.0003856666875 	8.531108575e-09
0.9507227608 	2.540576188 	-0.0003601174751 	7.726747283e-09
0.9521110058 	2.525702443 	-0.0003353619612 	6.907469931e-09
0.9534839303 	2.510535937 	-0.0003114591882 	6.081404958e-09
0.9548417036 	2.495072582 	-0.0002884598263 	5.25607446e-09
0.9561844929 	2.479306671 	-0.0002664064462 	4.438387469e-09
0.9575124634 	2.463230665 	-0.000245333786 	3.634670039e-09
0.9588257788 	2.446834934 	-0.0002252686291 	2.85069197e-09
0.9601246008 	2.430107445 	-0.0002062295027 	2.091666003e-09
0.9614090893 	2.413033367 	-0.0001882344986 	1.362427597e-09
0.9626794024 	2.395594567 	-0.0001713218791 	6.680097522e-10
0.9639356968 	2.379293314 	-0.0001567471429 	6.499885736e-11
0.9647540487 	2.365831802 	-0.0001455386682 	-3.998137782e-10
0.9655573034 	2.353829723 	-0.0001361810536 	-7.88258539e-10
0.9663457395 	2.341759646 	-0.0001273726536 	-1.153858971e-09
0.9671196303 	2.3296135 	-0.0001190729664 	-1.497366256e-09
0.9678792442 	2.317384156 	-0.0001112572496 	-1.819238883e-09
0.9686248445 	2.305064902 	-0.0001039042381 	-2.119924121e-09
0.9693566897 	2.292649119 	-9.699244411e-05 	-2.399944859e-09
0.9700750337 	2.280130096 	-9.050061841e-05 	-2.659883883e-09
0.9707801255 	2.267500928 	-8.440807716e-05 	-2.900372481e-09
0.9714722095 	2.254754479 	-7.869476239e-05 	-3.12208365e-09
0.9721515258 	2.241883368 	-7.334126566e-05 	-3.325722724e-09
0.9728183099 	2.228879977 	-6.832884911e-05 	-3.512014002e-09
0.9734727929 	2.21573646 	-6.363945843e-05 	-3.681684568e-09
0.9741152019 	2.20244476 	-5.925572805e-05 	-3.835449171e-09
0.9747457596 	2.188996619 	-5.516098038e-05 	-3.974001626e-09
0.9753646845 	2.175383591 	-5.133922068e-05 	-4.098017361e-09
0.9759721914 	2.161597044 	-4.777512874e-05 	-4.208166636e-09
0.9765684907 	2.14762817 	-4.445404793e-05 	-4.305129987e-09
0.9771537895 	2.133467981 	-4.136197213e-05 	-4.389600532e-09
0.9777282904 	2.119107305 	-3.848553023e-05 	-4.462258717e-09
0.9782921928 	2.10453679 	-3.58119675e-05 	-4.523718035e-09
0.9788456922 	2.089746887 	-3.332912313e-05 	-4.57446292e-09
0.9793889805 	2.074727848 	-3.102540433e-05 	-4.614821992e-09
0.979922246 	2.059469715 	-2.88897591e-05 	-4.645029012e-09
0.9804456737 	2.043962303 	-2.691165091e-05 	-4.665362998e-09
0.9809594451 	2.028195186 	-2.508103851e-05 	-4.676257215e-09
0.9814637383 	2.012157685 	-2.33883621e-05 	-4.678314599e-09
0.9819587281 	1.995838842 	-2.182453106e-05 	-4.672236792e-09
0.9824445862 	1.979227398 	-2.038090834e-05 	-4.658676096e-09
0.9829214811 	1.962311773 	-1.904929022e-05 	-4.638113637e-09
0.9833895781 	1.94508003 	-1.78218799e-05 	-4.610858826e-09
0.9838490396 	1.927519844 	-1.669126034e-05 	-4.577117573e-09
0.9843000247 	1.909618468 	-1.565037193e-05 	-4.537066882e-09
0.98474269 	1.891362688 	-1.469249509e-05 	-4.490909768e-09
0.9851771888 	1.872738777 	-1.381123692e-05 	-4.438880128e-09
0.9856036719 	1.853732443 	-1.300051987e-05 	-4.381222846e-09
0.9860222871 	1.834328773 	-1.225457037e-05 	-4.318183899e-09
0.9864331796 	1.814512165 	-1.156790763e-05 	-4.250007399e-09
0.9868364919 	1.794266259 	-1.093533334e-05 	-4.176934319e-09
0.9872323637 	1.773573857 	-1.035192236e-05 	-4.099202181e-09
0.9876209323 	1.752416833 	-9.813014543e-06 	-4.017045271e-09
0.9880023326 	1.730776038 	-9.314206003e-06 	-3.930695077e-09
0.9883766967 	1.708631196 	-8.851335986e-06 	-3.840380829e-09
0.9887441544 	1.685960786 	-8.420500491e-06 	-3.746329825e-09
0.9891048331 	1.662741921 	-8.018183211e-06 	-3.648767812e-09
0.9894588579 	1.638950206 	-7.641308416e-06 	-3.547920676e-09
0.9898063516 	1.614559585 	-7.283937439e-06 	-3.444027557e-09
0.9901474347 	1.589542137 	-6.936523998e-06 	-3.337287786e-09
0.9904822253 	1.563867753 	-6.604558891e-06 	-3.227878619e-09
0.9908108397 	1.537503622 	-6.304935382e-06 	-3.11610332e-09
0.9911333916 	1.510413871 	-6.026458193e-06 	-3.002244081e-09
0.9914499931 	1.482559862 	-5.745969661e-06 	-2.88644691e-09
0.9917607538 	1.453900861 	-5.464421063e-06 	-2.768915428e-09
0.9920657815 	1.424394417 	-5.188377233e-06 	-2.649906697e-09
0.9923651819 	1.39399641 	-4.917384329e-06 	-2.529658458e-09
0.992659059 	1.362660991 	-4.645084738e-06 	-2.408422738e-09
0.9929475145 	1.330340556 	-4.356069294e-06 	-2.286471942e-09
0.9932306485 	1.296985792 	-4.129322947e-06 	-2.164055839e-09
0.9935085592 	1.262545398 	-4.364413838e-06 	-2.041226931e-09
0.9937813429 	1.230048354 	-4.481583505e-06 	-1.928900086e-09
0.9939569055 	1.202897726 	-3.951702548e-06 	-1.838077801e-09
0.9941324681 	1.178158304 	-3.513101176e-06 	-1.757626332e-09
0.9943080307 	1.152523137 	-3.34320433e-06 	-1.676460555e-09
0.9944835934 	1.125940122 	-3.195948358e-06 	-1.594715522e-09
0.994659156 	1.098362385 	-3.033106263e-06 	-1.512519763e-09
0.9948347186 	1.069741973 	-2.868212152e-06 	-1.429992795e-09
0.9950102812 	1.040027609 	-2.707520474e-06 	-1.347266218e-09
0.9951858439 	1.009164836 	-2.553789347e-06 	-1.26448961e-09
0.9953614065 	0.9770968173 	-2.410849395e-06 	-1.18183036e-09
0.9955369691 	0.9437653937 	-2.283198487e-06 	-1.099473204e-09
0.9957125317 	0.9091123473 	-2.170961392e-06 	-1.017617813e-09
0.9958880943 	0.8730809546 	-2.070065364e-06 	-9.364871455e-10
0.996063657 	0.8356179157 	-2.093454359e-06 	-8.564448596e-10
0.9962392196 	0.7966756653 	-2.488049477e-06 	-7.77846635e-10
0.9964147822 	0.7562148061 	-2.811111647e-06 	-7.002383086e-10
0.9965903448 	0.7142087818 	8.203373184e-06 	-6.139042143e-10
0.9967659075 	0.6706469214 	6.956268966e-06 	-5.568534823e-10
0.9969414701 	0.6254917529 	-1.904613146e-05 	-5.071075135e-10
0.9971170327 	0.5786715621 	-1.958003099e-05 	-4.042291037e-10
0.9972925953 	0.5301908475 	-3.82884078e-06 	-3.287407326e-10
0.997468158 	0.4801790332 	3.654598115e-07 	-2.87569705e-10
0.9976437206 	0.4288545257 	3.500989766e-06 	-2.333754628e-10
0.9978192832 	0.3764987421 	5.457512801e-06 	-1.839690823e-10
0.9979948458 	0.3234124989 	5.294742022e-06 	-1.392390318e-10
0.9981704085 	0.2698653167 	3.619306098e-06 	-9.904630384e-11
0.9983459711 	0.2160598295 	1.772602892e-06 	-6.439671559e-11
0.9985215337 	0.1621229323 	5.831871301e-07 	-3.661294061e-11
0.9986970963 	0.1081195583 	9.489866571e-08 	-1.647152775e-11
0.998872659 	0.0540757804 	-9.580624958e-09 	-4.498086435e-12
0.9990482216 	0.02277192205 	-8.518802568e-09 	-5.28063065e-13
