0.2644156299 	1.257174557e-08 	6.891581137e-12 	2.890211803e-14 	1.253547111e-08 	4.622502481e-11 	2.389609199e-11
0.2646754896 	2.16840538e-07 	5.276144387e-10 	2.274122108e-12 	2.154693486e-07 	8.186237211e-10 	4.10744465e-10
0.2649353589 	1.382300732e-06 	8.157267677e-09 	3.472802929e-11 	1.364489457e-06 	5.148786326e-09 	2.601096146e-09
0.2651952363 	4.976079163e-06 	5.469631048e-08 	2.279420149e-10 	4.861225907e-06 	1.81051402e-08 	9.266847686e-09
0.2654551202 	1.293809574e-05 	2.28029229e-07 	9.25591094e-10 	1.245361951e-05 	4.56107446e-08 	2.374006009e-08
0.2657150089 	2.751698063e-05 	6.99854414e-07 	2.756630588e-09 	2.597123905e-05 	9.329023577e-08 	4.950839996e-08
0.2659749007 	5.122642036e-05 	1.736035384e-06 	6.613812936e-09 	4.716911498e-05 	1.65813219e-07 	8.991744314e-08
0.2662347939 	8.681647396e-05 	3.680767338e-06 	1.351993635e-08 	7.75946251e-05 	2.663906231e-07 	1.479169218e-07
0.2664946871 	0.0001372102095 	6.911269641e-06 	2.439739269e-08 	0.0001184627894 	3.963857086e-07 	2.258230017e-07
0.2667545784 	0.0002053687458 	1.176806934e-05 	3.980026426e-08 	0.0001705534622 	5.551203965e-07 	3.251223018e-07
0.2670144664 	0.0002940576564 	1.847726066e-05 	5.971375697e-08 	0.0002341566612 	7.399886245e-07 	4.463676768e-07
0.2672743493 	0.0004055121683 	2.709131475e-05 	8.353669912e-08 	0.0003090925753 	9.469282038e-07 	5.892163563e-07
0.2675342255 	0.0005410405276 	3.747503428e-05 	1.103181637e-07 	0.0003948147944 	1.17118963e-06 	7.526267312e-07
0.2677940935 	0.0007006574258 	4.935284921e-05 	1.391140222e-07 	0.0004905800665 	1.408095125e-06 	9.351819564e-07
0.2680539515 	0.0008828658105 	6.240114729e-05 	1.692969771e-07 	0.0005956281415 	1.653592637e-06 	1.135432784e-06
0.268313798 	0.001084674983 	7.634189716e-05 	2.006830294e-07 	0.0007093108038 	1.904406364e-06 	1.352143535e-06
0.2685736313 	0.001301883087 	9.100705112e-05 	2.332225714e-07 	0.0008311535606 	2.157466456e-06 	1.584409694e-06
0.2688334499 	0.001529566996 	0.000106340962 	2.6658711e-07 	0.0009608196503 	2.409313559e-06 	1.831589299e-06
0.2690932521 	0.00176265692 	0.0001223472094 	2.999368637e-07 	0.001098003345 	2.655814414e-06 	2.09309955e-06
0.2693530363 	0.001996461188 	0.0001390203513 	3.319063205e-07 	0.001242319275 	2.892107634e-06 	2.368205823e-06
0.2696128008 	0.002227001934 	0.0001562868213 	3.609386658e-07 	0.001393245135 	3.112691124e-06 	2.65591246e-06
0.2698725442 	0.002451178757 	0.0001739761881 	3.857221255e-07 	0.001550102656 	3.311940962e-06 	2.954926491e-06
0.2701322648 	0.002666855595 	0.000191828625 	4.054578698e-07 	0.001712016073 	3.485333818e-06 	3.263578466e-06
0.270391961 	0.002872784352 	0.0002095269108 	4.199558217e-07 	0.001877939882 	3.630011745e-06 	3.579875362e-06
0.2706516312 	0.003068409249 	0.0002267396717 	4.296314965e-07 	0.002046755981 	3.744724961e-06 	3.901685766e-06
0.2709112737 	0.003253670562 	0.000243153691 	4.351897294e-07 	0.002217350704 	3.829725603e-06 	4.226886723e-06
0.2711708871 	0.003428834026 	0.0002584998721 	4.373739598e-07 	0.002388679066 	3.886493859e-06 	4.553486199e-06
0.2714304698 	0.003594379781 	0.0002725832627 	4.36990273e-07 	0.0025598082 	3.91717554e-06 	4.879705892e-06
0.27169002 	0.003750890085 	0.0002852577867 	4.34664731e-07 	0.0027298872 	3.923823246e-06 	5.203923736e-06
0.2719495364 	0.003898959737 	0.0002964501444 	4.308457456e-07 	0.002898261726 	3.908235697e-06 	5.52489238e-06
0.2722090172 	0.004059799563 	0.0003077304503 	4.290588483e-07 	0.003086579206 	3.887362991e-06 	5.883877837e-06
0.2726121164 	0.004246776648 	0.0003191279833 	4.204215289e-07 	0.003314725897 	3.773813303e-06 	6.31878884e-06
0.2730226937 	0.004439342985 	0.0003284667235 	4.112950339e-07 	0.003561413267 	3.634192202e-06 	6.789043531e-06
0.2734408794 	0.004621187884 	0.0003347468751 	3.996063572e-07 	0.003803287662 	3.457374297e-06 	7.250123354e-06
0.2738668057 	0.004793386325 	0.0003380942106 	3.848156486e-07 	0.00403993229 	3.246684313e-06 	7.701233786e-06
0.2743006065 	0.004957006149 	0.0003386503596 	3.664119458e-07 	0.004270959815 	3.004576767e-06 	8.14163646e-06
0.2747424172 	0.005112996158 	0.0003365794783 	3.437611694e-07 	0.004496245181 	2.733195139e-06 	8.571092981e-06
0.2751923751 	0.005262188869 	0.0003320201566 	3.162057429e-07 	0.004715790278 	2.434365994e-06 	8.989606956e-06
0.2756506189 	0.005405328932 	0.0003250915631 	2.831475167e-07 	0.004929690641 	2.109552666e-06 	9.397360499e-06
0.2761172892 	0.005543087687 	0.0003158912681 	2.440697077e-07 	0.005138104531 	1.759936573e-06 	9.794655299e-06
0.2765925279 	0.005676075405 	0.0003044959649 	1.985471905e-07 	0.005341231502 	1.386486826e-06 	1.018187176e-05
0.2770764787 	0.005804851113 	0.0002909636212 	1.462497922e-07 	0.005539298317 	9.900173973e-07 	1.055944216e-05
0.2775692866 	0.005929929413 	0.0002753338624 	8.694237701e-08 	0.005732544118 	5.712360913e-07 	1.092782237e-05
0.2780710981 	0.006051790728 	0.0002576329806 	2.047713735e-08 	0.005921205098 	1.307724814e-07 	1.128746263e-05
0.2782174433 	0.006085917662 	0.0002519933823 	-2.316622034e-07 	0.005974018701 	2.300674414e-06 	1.138814004e-05
0.2785812028 	0.006171381642 	0.0002384436361 	2.892970495e-08 	0.006106171108 	3.019054775e-07 	1.164005925e-05
0.2791002472 	0.006288823769 	0.0002175203013 	7.259832111e-08 	0.006287308239 	7.4376498e-07 	1.198535697e-05
0.2796287271 	0.006404299066 	0.0001946291503 	1.198993823e-07 	0.006464600568 	1.206105287e-06 	1.232332543e-05
0.2801667944 	0.006518170005 	0.0001697417869 	1.708695437e-07 	0.006638299123 	1.688526338e-06 	1.265444315e-05
0.2807146025 	0.006630947749 	0.0001428044458 	2.255282e-07 	0.006808871888 	2.190690611e-06 	1.297960225e-05
0.2812750716 	0.006743186439 	0.0001137166752 	2.841958579e-07 	0.006976861339 	2.715154636e-06 	1.329983683e-05
0.2818477708 	0.00685517017 	8.242024397e-05 	3.468852137e-07 	0.007142448015 	3.262020346e-06 	1.361549106e-05
0.2824309516 	0.006966992627 	4.889967391e-05 	4.1331735e-07 	0.007305553634 	3.829416292e-06 	1.39264157e-05
0.2830248016 	0.007078868399 	1.310598158e-05 	4.833778964e-07 	0.007466282846 	4.417247999e-06 	1.423281025e-05
0.2836295115 	0.007191116531 	-2.503931877e-05 	5.569244066e-07 	0.007624897367 	5.025491422e-06 	1.453517361e-05
0.2842452756 	0.007304058758 	-6.562465445e-05 	6.33776092e-07 	0.007781659365 	5.6541328e-06 	1.483400555e-05
0.2848722913 	0.00741802308 	-0.0001087492626 	7.137103946e-07 	0.007936835769 	6.303171356e-06 	1.51298149e-05
0.2855107595 	0.007533347965 	-0.0001545240497 	7.964573086e-07 	0.008090699465 	6.972610987e-06 	1.542312187e-05
0.2861608845 	0.007650386987 	-0.0002030721359 	8.816938459e-07 	0.008243531906 	7.66245828e-06 	1.571446298e-05
0.2868228742 	0.007769513386 	-0.0002545305938 	9.69027979e-07 	0.008395621939 	8.372689808e-06 	1.600438886e-05
0.2874969401 	0.007891127896 	-0.0003090448802 	1.058047584e-06 	0.008547268375 	9.10323894e-06 	1.629346911e-05
0.2881832971 	0.008015664703 	-0.0003667680243 	1.148357543e-06 	0.008698785993 	9.854014682e-06 	1.658230381e-05
0.2888821641 	0.008143592273 	-0.000427874962 	1.239463524e-06 	0.008850506288 	1.062486021e-05 	1.687152486e-05
0.2895937637 	0.008275420673 	-0.0004925643387 	1.330734805e-06 	0.009002783866 	1.141554942e-05 	1.716180824e-05
0.2903183221 	0.008411712636 	-0.0005610530988 	1.421468844e-06 	0.009156000806 	1.222576403e-05 	1.745388231e-05
0.2910560697 	0.008553092801 	-0.0006335779874 	1.510927016e-06 	0.009310567697 	1.305500836e-05 	1.774852977e-05
0.2918072407 	0.008700258327 	-0.0007103973162 	1.598401015e-06 	0.009466929289 	1.390254824e-05 	1.804659842e-05
0.2925720732 	0.008853991067 	-0.0007917936797 	1.683310147e-06 	0.009625570437 	1.476733218e-05 	1.834901254e-05
0.2933508096 	0.009015171567 	-0.0008780780572 	1.765324878e-06 	0.009787022749 	1.564789863e-05 	1.865678552e-05
0.2941436964 	0.009184795157 	-0.0009695960171 	1.844499951e-06 	0.00995187121 	1.654225056e-05 	1.897103251e-05
0.2949509843 	0.009363990931 	-0.001066735405 	1.921425567e-06 	0.01012076427 	1.744777939e-05 	1.929298961e-05
0.2957729283 	0.009554044913 	-0.001169934077 	1.997394927e-06 	0.01029443434 	1.836140218e-05 	1.962405304e-05
0.2966097878 	0.009756541746 	-0.001279774186 	2.074179257e-06 	0.01047379415 	1.92789312e-05 	1.99659627e-05
0.2974635723 	0.009973611331 	-0.001397138376 	2.154363561e-06 	0.01066009744 	2.019672032e-05 	2.032110854e-05
0.2983377009 	0.01020745951 	-0.001522884816 	2.241621487e-06 	0.01085453691 	2.111147558e-05 	2.069176422e-05
0.2992276355 	0.01046006125 	-0.001657623082 	2.339303308e-06 	0.01105802503 	2.200913692e-05 	2.107966913e-05
0.300133654 	0.01073371173 	-0.001802156046 	2.452150986e-06 	0.01127159012 	2.287892328e-05 	2.148678355e-05
0.3010560391 	0.01103143253 	-0.001957546668 	2.58606436e-06 	0.01149672497 	2.37081828e-05 	2.191595315e-05
0.3019950783 	0.01135667778 	-0.002125003036 	2.748087254e-06 	0.01173509514 	2.448184796e-05 	2.237035294e-05
0.302951064 	0.01171337332 	-0.002305890723 	2.946606815e-06 	0.01198854793 	2.51830509e-05 	2.285350439e-05
0.3039242937 	0.0121059501 	-0.002501747519 	3.191521741e-06 	0.01225908648 	2.579425629e-05 	2.336922607e-05
0.3049150699 	0.01253934859 	-0.002714326294 	3.495748311e-06 	0.01254877805 	2.630112743e-05 	2.392145872e-05
0.3059237003 	0.01301898806 	-0.002945632261 	3.866605292e-06 	0.01285960726 	2.663018549e-05 	2.451398559e-05
0.3069504978 	0.01355083067 	-0.003197878285 	4.052210791e-06 	0.0131935034 	2.512379467e-05 	2.515048443e-05
0.3079957807 	0.01414153222 	-0.003473467405 	4.290446868e-06 	0.01355244237 	2.357695359e-05 	2.583472186e-05
0.3090598729 	0.01479842774 	-0.003775099617 	4.58077722e-06 	0.01393820241 	2.200203098e-05 	2.657008771e-05
0.3101431036 	0.01552946029 	-0.004105807651 	4.921251829e-06 	0.01435207896 	2.041223764e-05 	2.735905145e-05
0.3112458079 	0.0163433553 	-0.004468805383 	5.30868395e-06 	0.01479513734 	1.882135163e-05 	2.820364387e-05
0.3123683265 	0.01725019057 	-0.004867684138 	5.738701211e-06 	0.01526862036 	1.724340425e-05 	2.91062341e-05
0.3135122755 	0.01826304535 	-0.005307545951 	6.206618766e-06 	0.0157735145 	1.568850351e-05 	3.006870266e-05
0.3146835825 	0.01939755474 	-0.005795887063 	6.71329537e-06 	0.0163092259 	1.417138552e-05 	3.108991748e-05
0.3158758469 	0.0208406019 	-0.006415843712 	7.386137135e-06 	0.01693764358 	1.2686914e-05 	3.228785624e-05
0.317704102 	0.02284217459 	-0.007267325352 	8.105715945e-06 	0.01772859311 	1.08997645e-05 	3.379562588e-05
0.3195502637 	0.02531789066 	-0.008296586546 	8.914504154e-06 	0.01861116221 	9.44213568e-06 	3.547804787e-05
0.3214145144 	0.02816826372 	-0.009460078755 	9.670385101e-06 	0.01949253767 	8.362582654e-06 	3.715819447e-05
0.3232970394 	0.03144436716 	-0.01076820527 	1.010112055e-05 	0.02036571671 	7.329368382e-06 	3.882271642e-05
0.3251980266 	0.0350437949 	-0.01222616594 	9.967518401e-06 	0.02133961443 	5.045778305e-06 	4.067923613e-05
0.3271176667 	0.0388449368 	-0.01375779109 	8.822273834e-06 	0.02252426475 	1.356957477e-06 	4.293750891e-05
0.3290561529 	0.04264058962 	-0.01530983164 	6.96078977e-06 	0.02410596754 	-2.224155556e-06 	4.595267404e-05
0.3310248725 	0.04650337624 	-0.01688119766 	5.184679533e-06 	0.02608100665 	-4.429675942e-06 	4.971764752e-05
0.3330140035 	0.05068267443 	-0.01852092914 	3.817390459e-06 	0.02828895199 	-4.483846889e-06 	5.3926605e-05
0.3350225342 	0.05517736198 	-0.02030509719 	2.584413801e-06 	0.0306998419 	-3.154392186e-06 	5.852243124e-05
0.3370506672 	0.05996034293 	-0.02221474382 	1.009703658e-06 	0.03323878988 	-1.215728738e-06 	6.336237175e-05
0.3381571377 	0.0626500091 	-0.02329722613 	-3.644859484e-05 	0.03465081915 	4.711403922e-05 	6.6054092e-05
0.3390971357 	0.06495061896 	-0.0242214361 	9.74445036e-07 	0.03585501265 	-1.125743852e-06 	6.83496195e-05
0.3411619064 	0.07003974432 	-0.02628246937 	3.000145019e-06 	0.03848604205 	-3.327602781e-06 	7.336509279e-05
0.3432469275 	0.07512011641 	-0.02835795362 	4.756874843e-06 	0.04107288543 	-4.986141546e-06 	7.829633524e-05
0.3453545206 	0.08011088563 	-0.03041767313 	6.086843896e-06 	0.04356919242 	-5.875233293e-06 	8.305499018e-05
0.3474928304 	0.0849340102 	-0.0324329076 	6.826904615e-06 	0.04593135818 	-5.771863777e-06 	8.755793464e-05
0.3496519862 	0.08949729113 	-0.03436896608 	6.788192201e-06 	0.0481102751 	-4.445322784e-06 	9.17115559e-05
0.3518322108 	0.09371037087 	-0.03619107929 	5.785944772e-06 	0.05005952882 	-1.690588269e-06 	9.542737526e-05
0.3540337312 	0.09748788565 	-0.03786534351 	3.62949343e-06 	0.05173671958 	2.679066448e-06 	9.8624567e-05
0.3562567775 	0.1007450208 	-0.03935691221 	1.2940494e-07 	0.05310154621 	8.81873263e-06 	0.0001012263059
0.3585015842 	0.1033998337 	-0.0406306556 	-4.896402109e-06 	0.05411722837 	1.683639719e-05 	0.0001031624784
0.3607694558 	0.1053770172 	-0.04165245347 	-1.161507511e-05 	0.05475164383 	2.67841094e-05 	0.0001043718506
0.363070291 	0.1066056371 	-0.04238690536 	-2.017629236e-05 	0.05497565766 	3.866433619e-05 	0.0001047988832
0.3653935267 	0.1070220679 	-0.04279865645 	-3.067868711e-05 	0.05476692409 	5.236979764e-05 	0.000104400979
0.3677394098 	0.106581688 	-0.04285834758 	-4.31383437e-05 	0.05411484249 	6.768847942e-05 	0.0001031579302
0.3701081911 	0.1052641242 	-0.04254370191 	-5.740312591e-05 	0.05302018265 	8.422998986e-05 	0.0001010712043
0.3725001261 	0.1030766669 	-0.04184071311 	-7.31510116e-05 	0.05149601928 	0.0001014281302 	9.816572533e-05
0.3749154743 	0.1000538191 	-0.04074905544 	-8.987954185e-05 	0.04957060193 	0.0001185711908 	9.449534472e-05
0.3773607938 	0.0962567914 	-0.03928371723 	-0.0001002950345 	0.04728715171 	0.0001265730161 	9.014245394e-05
0.3798350537 	0.09178394569 	-0.03747713394 	-0.0001030572451 	0.04470644755 	0.0001249598495 	8.522291455e-05
0.382333422 	0.08676948629 	-0.03538144834 	-0.0001029217048 	0.04190472573 	0.0001202878261 	7.988205405e-05
0.3848561731 	0.08136797041 	-0.03306042636 	-9.996431992e-05 	0.03896397576 	0.0001129034406 	7.427616728e-05
0.3874035867 	0.07574693388 	-0.03058746418 	-9.435279863e-05 	0.03596894205 	0.0001032420765 	6.856680059e-05
0.3899759473 	0.0700784138 	-0.02804644298 	-8.635711883e-05 	0.03300439621 	9.183842726e-05 	6.291555228e-05
0.3925787978 	0.06452778229 	-0.02552535724 	-7.642355272e-05 	0.03014909501 	7.932029648e-05 	5.747255459e-05
0.3952126831 	0.05925145108 	-0.02311290122 	-6.524991978e-05 	0.02747490785 	6.642314182e-05 	5.237481061e-05
0.3978722652 	0.05438144851 	-0.02088826328 	-5.36762383e-05 	0.0250399166 	5.388368004e-05 	4.773304052e-05
0.400557846 	0.05000397829 	-0.01890694995 	-4.251338288e-05 	0.02287854355 	4.232226623e-05 	4.361286277e-05
0.4032697328 	0.04615608034 	-0.01719621292 	-3.243776647e-05 	0.02100065583 	3.218926551e-05 	4.003308684e-05
0.406008239 	0.04282867008 	-0.0157550251 	-2.388484334e-05 	0.01939359016 	2.372643832e-05 	3.696957302e-05
0.4087820714 	0.03997757682 	-0.0145589015 	-1.700402619e-05 	0.01802782628 	1.696269339e-05 	3.436604747e-05
0.4115848843 	0.03754028343 	-0.0135682952 	-1.15922655e-05 	0.01686625456 	1.175862969e-05 	3.215176893e-05
0.4144151314 	0.03544074141 	-0.01274610487 	-7.604901616e-06 	0.01586918026 	7.865840654e-06 	3.025106818e-05
0.4172731459 	0.03360189011 	-0.01203478162 	-4.793588281e-06 	0.01499622094 	4.990002691e-06 	2.858696509e-05
0.4201592673 	0.03195073076 	-0.01141082293 	-2.714374965e-06 	0.01421148898 	2.840090686e-06 	2.709104787e-05
0.4230787224 	0.03042799457 	-0.01085836804 	-1.12703307e-06 	0.01348521068 	1.181744409e-06 	2.570655958e-05
0.4256598016 	0.02916989511 	-0.0104036788 	3.09304249e-06 	0.01288122424 	-4.118274227e-06 	2.455519356e-05
0.4260313562 	0.02899016087 	-0.01033885745 	-1.309161149e-07 	0.01279487383 	1.391907152e-07 	2.439058568e-05
0.4290112187 	0.02760529861 	-0.009826531084 	-1.113615843e-06 	0.01212671667 	1.181639001e-06 	2.311689242e-05
0.4320204923 	0.02624284435 	-0.009317794939 	-2.026056391e-06 	0.01146724117 	2.146697417e-06 	2.185974882e-05
0.4350595456 	0.02488994424 	-0.00881774245 	-2.885891258e-06 	0.01080958658 	3.046484404e-06 	2.060607638e-05
0.4381332835 	0.02354200732 	-0.008309140974 	-3.732273618e-06 	0.01015110366 	3.876973128e-06 	1.935082493e-05
0.4412418738 	0.02220121331 	-0.007792093974 	-4.533345595e-06 	0.009494169232 	4.624802518e-06 	1.809852532e-05
0.4443811937 	0.0208773124 	-0.007269885643 	-5.207712383e-06 	0.008842661831 	5.273204074e-06 	1.685657114e-05
0.4475516365 	0.01958494628 	-0.006745444743 	-5.772407301e-06 	0.008200778429 	5.806472992e-06 	1.563296297e-05
0.4507536034 	0.01834274971 	-0.006224540234 	-6.189412223e-06 	0.007573628218 	6.187731981e-06 	1.443744036e-05
0.4539939518 	0.01717097275 	-0.005716761297 	-6.411467929e-06 	0.006970627935 	6.35878974e-06 	1.328795423e-05
0.4572683068 	0.01608589395 	-0.005227103478 	-6.698190748e-06 	0.006408894125 	6.271691774e-06 	1.221713346e-05
0.4605752163 	0.01509322147 	-0.004720723285 	-6.968854523e-06 	0.005906640162 	6.006235173e-06 	1.125969781e-05
0.463915109 	0.01418708536 	-0.004213686536 	-6.766990243e-06 	0.005465518402 	5.699504701e-06 	1.041879714e-05
0.4672907009 	0.01336304436 	-0.003753225663 	-6.520492899e-06 	0.005075179193 	5.347895938e-06 	9.674702115e-06
0.4707054135 	0.01259742298 	-0.003329892334 	-6.231455401e-06 	0.004749127155 	4.114521486e-06 	9.053156308e-06
0.47415421 	0.0118008288 	-0.002948746215 	-5.545237545e-06 	0.004550370288 	1.596284677e-06 	8.674270479e-06
0.4776375492 	0.0109264678 	-0.002622203363 	-4.893356867e-06 	0.004509481076 	-2.601375616e-07 	8.596324277e-06
0.4811561589 	0.01006812937 	-0.002339721197 	-4.493235927e-06 	0.004553714066 	-4.900827688e-07 	8.680644648e-06
0.4847169261 	0.009328779245 	-0.002086848749 	-4.150070058e-06 	0.004601008847 	-6.152530248e-08 	8.770801647e-06
0.4883134143 	0.008728020156 	-0.001858794835 	-3.805965255e-06 	0.004628294731 	2.807433837e-07 	8.822816125e-06
0.4919461152 	0.008245201368 	-0.001653102724 	-3.489726612e-06 	0.004643158093 	4.506781298e-07 	8.851149825e-06
0.4956155304 	0.00786052103 	-0.001466698865 	-3.192757118e-06 	0.004653430867 	5.326687529e-07 	8.870732586e-06
0.4993283155 	0.007559469258 	-0.00129723152 	-2.908109912e-06 	0.004662253118 	5.950856315e-07 	8.88755025e-06
0.5030787283 	0.007330659728 	-0.001142806278 	-2.640425399e-06 	0.004671105188 	6.194759722e-07 	8.904424756e-06
0.5068671448 	0.007163674697 	-0.001001493354 	-2.394315671e-06 	0.00468219694 	5.922205294e-07 	8.925568718e-06
0.5106946664 	0.007049320903 	-0.0008715183128 	-2.044169667e-06 	0.004697019973 	5.154894536e-07 	8.953825538e-06
0.5145663473 	0.006980065137 	-0.0007515042502 	-1.734999573e-06 	0.004715390628 	4.510078591e-07 	8.988845113e-06
0.5184773905 	0.006949616592 	-0.0006403475457 	-1.46843474e-06 	0.004736326601 	4.042866165e-07 	9.028754895e-06
0.5224283605 	0.006952536146 	-0.0005369851318 	-1.239577918e-06 	0.004758783521 	3.732303442e-07 	9.071564027e-06
0.5264218091 	0.006984208082 	-0.0004403331506 	-1.04361424e-06 	0.004781809398 	3.552757252e-07 	9.115457748e-06
0.53045932 	0.00704082077 	-0.0003494108075 	-8.759391195e-07 	0.004804422772 	3.487192971e-07 	9.158565124e-06
0.5345382192 	0.007119261639 	-0.0002633983596 	-7.317552128e-07 	0.00482569699 	3.514994497e-07 	9.199119696e-06
0.5386591113 	0.007217071169 	-0.0001816304434 	-6.06041472e-07 	0.004844719934 	3.63706651e-07 	9.235382714e-06
0.5428263239 	0.00733232411 	-0.0001036447916 	-4.941319887e-07 	0.004860586102 	3.818031351e-07 	9.26562804e-06
0.5470373053 	0.007463320483 	-2.931859604e-05 	-3.921938876e-07 	0.004872740018 	4.004318628e-07 	9.288796783e-06
0.5512918523 	0.007608488292 	4.130469019e-05 	-2.99249713e-07 	0.004880768046 	4.212673572e-07 	9.304100435e-06
0.5555922218 	0.007766429008 	0.0001082892596 	-2.156284093e-07 	0.004884277216 	4.420356528e-07 	9.310789889e-06
0.5599396906 	0.007935852128 	0.0001717535228 	-1.409459845e-07 	0.004883181131 	4.593730547e-07 	9.308700446e-06
0.564332385 	0.008115504962 	0.0002317930356 	-7.380862652e-08 	0.004877549498 	4.740894422e-07 	9.297964988e-06
0.5687713493 	0.008304214047 	0.0002884816908 	-1.277593989e-08 	0.004867539263 	4.852821828e-07 	9.278882698e-06
0.5732599783 	0.008500834233 	0.0003418584083 	4.303536961e-08 	0.004853419816 	4.919843619e-07 	9.251967108e-06
0.5777955849 	0.008704103719 	0.0003919273071 	9.420260413e-08 	0.004835586517 	4.936285432e-07 	9.217971884e-06
0.5823788822 	0.00891275473 	0.0004387454065 	1.410482367e-07 	0.004814605635 	4.897820546e-07 	9.17797649e-06
0.5870133849 	0.009125600014 	0.0004824192031 	1.837582643e-07 	0.00479107457 	4.805229103e-07 	9.133119741e-06
0.5916969559 	0.00934144785 	0.000523068076 	2.223761198e-07 	0.004765551929 	4.664449225e-07 	9.084466493e-06
0.596430101 	0.00955924065 	0.0005609043671 	2.568557004e-07 	0.004738630322 	4.483027322e-07 	9.033146427e-06
0.6012158168 	0.009778113058 	0.0005962089421 	2.872325066e-07 	0.004710835034 	4.270104247e-07 	8.980160883e-06
0.6060527059 	0.009997254511 	0.00062925254 	3.13610732e-07 	0.004682564111 	4.036664707e-07 	8.926268647e-06
0.6109411544 	0.01021606408 	0.0006603845382 	3.358251394e-07 	0.004654180784 	3.794349092e-07 	8.872162138e-06
0.6158839412 	0.01043418668 	0.0006899947809 	3.537895497e-07 	0.004625935484 	3.553130554e-07 	8.818318744e-06
0.6208798165 	0.01065122057 	0.0007183955432 	3.682725435e-07 	0.004598012277 	3.315058492e-07 	8.765089351e-06
0.6259293901 	0.01086677396 	0.0007458946053 	3.802236544e-07 	0.00457068575 	3.075184004e-07 	8.712997396e-06
0.6310352503 	0.011080549 	0.0007727676062 	3.899837552e-07 	0.004544169994 	2.832035824e-07 	8.662450996e-06
0.6361961061 	0.01129173199 	0.0007991730303 	3.975689281e-07 	0.004518649057 	2.58842618e-07 	8.613800995e-06
0.6413556442 	0.01149845246 	0.0008251579688 	4.03007391e-07 	0.004494452437 	2.347170798e-07 	8.567675514e-06
0.6464578705 	0.01169897603 	0.0008507135163 	4.065289898e-07 	0.004471889149 	2.109151292e-07 	8.524663615e-06
0.6515023363 	0.01189274189 	0.00087594431 	4.08374613e-07 	0.004451222791 	1.872647492e-07 	8.485267793e-06
0.6564904702 	0.01207978291 	0.0009010483213 	4.087278402e-07 	0.004432656153 	1.637498471e-07 	8.449874621e-06
0.6614231636 	0.01226019856 	0.0009261504667 	4.077966461e-07 	0.004416233451 	1.405136665e-07 	8.418568386e-06
0.6663004374 	0.01243410202 	0.0009513680662 	4.056638179e-07 	0.004402010277 	1.17616429e-07 	8.391455064e-06
0.6711236044 	0.01260172435 	0.0009768349892 	4.024061154e-07 	0.004390027678 	9.51766374e-08 	8.3686129e-06
0.67589329 	0.01276330913 	0.001002613796 	3.9816193e-07 	0.004380231259 	7.326520392e-08 	8.349938202e-06
0.6806097216 	0.01291907426 	0.001028777311 	3.930030667e-07 	0.004372626947 	5.179692804e-08 	8.33544227e-06
0.6852740248 	0.01306932811 	0.001055412924 	3.870252266e-07 	0.004367212811 	3.071022368e-08 	8.325121421e-06
0.6898868111 	0.01321437054 	0.001082542332 	3.803627458e-07 	0.004363910145 	9.851918368e-09 	8.318825623e-06
0.694448359 	0.01335444225 	0.001110200848 	3.730593821e-07 	0.004362721973 	-1.095716283e-08 	8.316560637e-06
0.6989595869 	0.0134898486 	0.001138446063 	3.649971447e-07 	0.004363657451 	-3.14519005e-08 	8.318343918e-06
0.7034212188 	0.01362092217 	0.001167292434 	3.560162209e-07 	0.004366635164 	-5.110174357e-08 	8.324020266e-06
0.7078334987 	0.01374798467 	0.00119677229 	3.461632725e-07 	0.004371608994 	-6.971185929e-08 	8.333501768e-06
0.7121971452 	0.01387142528 	0.001226937435 	3.356169936e-07 	0.004378535839 	-8.743086544e-08 	8.34670626e-06
0.7165130473 	0.01399165599 	0.001257794491 	3.245163353e-07 	0.004387301748 	-1.044409725e-07 	8.363416519e-06
0.7207813715 	0.01410904742 	0.001289343281 	3.129214403e-07 	0.00439781763 	-1.20809061e-07 	8.383462714e-06
0.7250027336 	0.01422399119 	0.001321611705 	3.008252756e-07 	0.00441003388 	-1.364951197e-07 	8.406750281e-06
0.7291779672 	0.01433694707 	0.001354612123 	2.882253806e-07 	0.004423837958 	-1.514282697e-07 	8.43306469e-06
0.7333073775 	0.01444836379 	0.001388328686 	2.650237389e-07 	0.004439081847 	-1.595092403e-07 	8.46212378e-06
0.7373914647 	0.01455867612 	0.001422769812 	2.40574546e-07 	0.004455669904 	-1.645723219e-07 	8.493745226e-06
0.7414308672 	0.01466836944 	0.001457954654 	2.173733764e-07 	0.004473489187 	-1.67391422e-07 	8.527713732e-06
0.7454261616 	0.01477783056 	0.001493911514 	1.964120127e-07 	0.00449247306 	-1.657154584e-07 	8.563902272e-06
0.7493776899 	0.01488708478 	0.001530753991 	1.783007201e-07 	0.004512834312 	-1.563182526e-07 	8.602716476e-06
0.753285986 	0.01499542913 	0.001568766434 	1.685846929e-07 	0.004535334424 	-1.278548059e-07 	8.645607943e-06
0.7571516794 	0.01510215496 	0.001608496294 	1.6611422e-07 	0.004561042552 	-8.910174559e-08 	8.694614781e-06
0.7609751521 	0.01520486639 	0.001650484066 	1.711588156e-07 	0.004592619668 	4.377592303e-09 	8.75480954e-06
0.7647568488 	0.01529854956 	0.001695033513 	1.697372472e-07 	0.004634584469 	8.811054476e-08 	8.834806114e-06
0.7684972659 	0.01538655211 	0.00174148356 	1.548967369e-07 	0.004684467417 	9.762117227e-08 	8.929896877e-06
0.7721969808 	0.01547608889 	0.001788826595 	1.357357089e-07 	0.004736542445 	8.566238106e-08 	9.029166354e-06
0.7758563233 	0.01556792984 	0.001836655103 	1.159023534e-07 	0.004790039034 	7.092115724e-08 	9.131145721e-06
0.7794757553 	0.0156623358 	0.001884821775 	9.873890002e-08 	0.004844844118 	5.773313275e-08 	9.235619443e-06
0.7830557412 	0.01575969084 	0.001933514593 	8.347940607e-08 	0.004901204697 	4.552298933e-08 	9.343058372e-06
0.7865967991 	0.01586035695 	0.001982877793 	6.919981761e-08 	0.004959273292 	3.362610442e-08 	9.453753254e-06
0.7900992616 	0.01596469624 	0.002033055945 	5.559889044e-08 	0.005019195259 	2.198895855e-08 	9.567981177e-06
0.7935635712 	0.01607308512 	0.002084210261 	4.257027651e-08 	0.005081144511 	1.064094835e-08 	9.686073669e-06
0.7969901642 	0.01618590959 	0.002136496997 	3.010788391e-08 	0.005145301892 	-3.734670545e-10 	9.808375468e-06
0.8003795064 	0.01630355908 	0.002190048698 	1.828077172e-08 	0.005211833608 	-1.09768163e-08 	9.935203412e-06
0.8037319478 	0.01642642977 	0.00224497612 	7.187445164e-09 	0.005280896726 	-2.107648348e-08 	1.006685691e-05
0.8070478986 	0.01655493206 	0.002301382365 	-3.077560035e-09 	0.005352657794 	-3.058080124e-08 	1.020365345e-05
0.8103277703 	0.01668948912 	0.002359364492 	-1.243524891e-08 	0.005427289335 	-3.940460753e-08 	1.034592191e-05
0.8135719856 	0.01683053193 	0.002419010565 	-2.081383165e-08 	0.005504958466 	-4.747571762e-08 	1.049398086e-05
0.8167809129 	0.01697849846 	0.002480401978 	-2.813615515e-08 	0.005585825487 	-5.472631841e-08 	1.064813588e-05
0.8199549264 	0.01713384025 	0.002543623592 	-3.438960612e-08 	0.005670062384 	-6.110245035e-08 	1.080871482e-05
0.8230944158 	0.01729702333 	0.002608766341 	-3.96560805e-08 	0.005757854242 	-6.659318906e-08 	1.09760705e-05
0.8261997663 	0.01746852427 	0.002675925279 	-4.401952955e-08 	0.005849388606 	-7.120535236e-08 	1.115056044e-05
0.8292713657 	0.01764882876 	0.002745198472 	-4.752110474e-08 	0.00594485314 	-7.492265781e-08 	1.133254237e-05
0.8323095512 	0.01783843232 	0.002816687145 	-5.018072982e-08 	0.006044439431 	-7.77213362e-08 	1.152238152e-05
0.8353146926 	0.01803784172 	0.002890499161 	-5.201367637e-08 	0.006148350224 	-7.957931871e-08 	1.172046437e-05
0.8382871547 	0.0182475713 	0.002966742966 	-5.303430853e-08 	0.006256790381 	-8.047591817e-08 	1.192718145e-05
0.8412273011 	0.01846813926 	0.00304552444 	-5.325598392e-08 	0.006369962267 	-8.039092057e-08 	1.214291852e-05
0.8441354798 	0.01870006242 	0.003126940351 	-5.268650129e-08 	0.006488055766 	-7.929804904e-08 	1.236803755e-05
0.8470120255 	0.0189438529 	0.003211082106 	-5.133557363e-08 	0.006611256687 	-7.717646641e-08 	1.260289275e-05
0.8498572854 	0.0192000111 	0.00329803361 	-4.921577824e-08 	0.006739743156 	-7.401097404e-08 	1.284782367e-05
0.8526716023 	0.01946901502 	0.003387864342 	-4.634345201e-08 	0.006873673892 	-6.979275088e-08 	1.310313288e-05
0.8554553162 	0.01975130867 	0.003480628268 	-4.273997967e-08 	0.007013186066 	-6.452072583e-08 	1.336908186e-05
0.858208756 	0.02004728676 	0.00357635578 	-3.842859768e-08 	0.007158380322 	-5.819678463e-08 	1.364586246e-05
0.860932241 	0.02035727945 	0.003675056151 	-3.344343507e-08 	0.007309325129 	-5.084005191e-08 	1.393360522e-05
0.8636260981 	0.02068153333 	0.00377671549 	-2.78303621e-08 	0.007466051333 	-4.248895945e-08 	1.423236892e-05
0.8662906499 	0.02102018867 	0.00388128989 	-2.164594593e-08 	0.007628537264 	-3.320103531e-08 	1.454211227e-05
0.8689262156 	0.02137325752 	0.003988706244 	-1.495786085e-08 	0.007796708197 	-2.305503405e-08 	1.486269281e-05
0.8715331104 	0.02174060361 	0.004098857659 	-7.841663526e-09 	0.007970425039 	-1.214732659e-08 	1.519384539e-05
0.8741116355 	0.02212192932 	0.004211603673 	-3.818300485e-10 	0.008149482881 	-5.944710307e-10 	1.55351794e-05
0.8742402096 	0.02214183623 	0.00421741035 	2.268593913e-07 	0.008158766642 	3.5359522e-07 	1.555287683e-05
0.8766620555 	0.0225167585 	0.004326772579 	-7.458771737e-09 	0.008333620895 	-1.141548811e-08 	1.588619764e-05
0.8791847196 	0.02292447233 	0.004444169097 	-1.546341296e-08 	0.008522514003 	-2.379551783e-08 	1.62462804e-05
0.881679931 	0.02334427512 	0.00456356928 	-2.35156056e-08 	0.008715781089 	-3.63733124e-08 	1.661470118e-05
0.8841479877 	0.02377520671 	0.004684727121 	-3.150308055e-08 	0.008912989875 	-4.896137166e-08 	1.699063594e-05
0.8865891798 	0.02421614663 	0.004807374114 	-3.931769885e-08 	0.009113653299 	-6.1370591e-08 	1.73731562e-05
0.8890037943 	0.02466582485 	0.004931226627 	-4.685104566e-08 	0.009317243527 	-7.340428809e-08 	1.776125576e-05
0.8913921189 	0.02512284288 	0.005055990682 	-5.39983665e-08 	0.009523201208 	-8.486603307e-08 	1.815386834e-05
0.8937544381 	0.02558570744 	0.005181364506 	-6.066427588e-08 	0.009730940676 	-9.557123594e-08 	1.85498775e-05
0.8960910333 	0.02605287526 	0.005307048017 	-6.676628321e-08 	0.009939870729 	-1.053555047e-07 	1.894815625e-05