0.3362433877 	0.04261655357 	0.007407421703 	-2.854018904e-08
0.3363017955 	0.06856182522 	0.01189470007 	0.0001958911703
0.3364356309 	0.1281484775 	0.02219881621 	-2.026914244e-07
0.3366277463 	0.2553952599 	0.04418448927 	-9.825154831e-07
0.3368198693 	0.3816166889 	0.0660028253 	-2.331359478e-06
0.3370119991 	0.506468811 	0.08757486605 	-4.236170847e-06
0.3372041348 	0.6292560465 	0.1087974991 	-6.674947436e-06
0.3373962757 	0.7489943203 	0.1295376374 	-9.618021654e-06
0.3375884208 	0.8647145873 	0.149558987 	-1.300279567e-05
0.3377805694 	0.9758331624 	0.1686873969 	-1.678699913e-05
0.3379727207 	1.082172565 	0.1870008875 	-2.097956127e-05
0.3381648737 	1.183683559 	0.204521751 	-2.551785781e-05
0.3383570277 	1.280328335 	0.2211844098 	-3.034436576e-05
0.3385491818 	1.372114046 	0.236994047 	-3.544310595e-05
0.3387413353 	1.459083679 	0.2519664968 	-4.076905396e-05
0.3389334873 	1.541275438 	0.266108436 	-4.627804238e-05
0.3391256369 	1.618699504 	0.2794212717 	-5.192279208e-05
0.3393177834 	1.691343126 	0.2919027207 	-5.765566958e-05
0.3395099259 	1.759195236 	0.3035509294 	-6.343342874e-05
0.3397020636 	1.822289267 	0.3143717404 	-6.922586825e-05
0.3398941957 	1.880841808 	0.3244027654 	-7.505360017e-05
0.3400863214 	1.935545217 	0.3337641792 	-8.096742042e-05
0.3402784399 	1.987335395 	0.3426179418 	-8.697118418e-05
0.3404705503 	2.036757816 	0.3510576928 	-9.304180134e-05
0.3406626518 	2.083997723 	0.3591152023 	-9.91651662e-05
0.3408547436 	2.129172638 	0.3668111019 	-0.0001053283046
0.3410468249 	2.172381403 	0.374162573 	-0.0001115188278
0.3412388949 	2.213712953 	0.3811850275 	-0.0001177247868
0.3414309528 	2.253248522 	0.3878925285 	-0.0001239347165
0.3416229978 	2.291062847 	0.3942980659 	-0.0001301376831
0.341815029 	2.327225433 	0.4004138506 	-0.0001363231624
0.3420070457 	2.366487102 	0.4070427463 	-0.0001426663034
0.3423053646 	2.412769912 	0.4148327338 	-0.0001519851913
0.3426092492 	2.460861462 	0.4229031447 	-0.0001615233811
0.3429187992 	2.506304991 	0.4305004123 	-0.0001710324965
0.343234116 	2.549051773 	0.4376140937 	-0.0001804184874
0.3435553022 	2.589031716 	0.4442301468 	-0.0001896022923
0.3438824622 	2.626177884 	0.450335547 	-0.0001985263607
0.3442157019 	2.660432625 	0.4559189612 	-0.0002071298009
0.3445551286 	2.691738395 	0.4609688161 	-0.0002153330626
0.3449008511 	2.720029948 	0.4654717598 	-0.0002230445616
0.3452529799 	2.745238432 	0.4694138572 	-0.0002301932743
0.3456116268 	2.767311177 	0.4727917577 	-0.0002368687771
0.3459769053 	2.786267481 	0.4756012017 	-0.0002428091667
0.3463489302 	2.802313368 	0.4778543058 	-0.0002485400381
0.346727818 	2.815858636 	0.4796455964 	-0.0002550883115
0.3471136864 	2.827334174 	0.4810787707 	-0.0002617849449
0.3475066549 	2.837063986 	0.4821850802 	-0.0002683405153
0.347906844 	2.84529447 	0.4829979789 	-0.0002615863992
0.348314376 	2.852232707 	0.4835660207 	-0.000249977324
0.3487293745 	2.858053879 	0.4839200703 	-0.0002385042592
0.3491519642 	2.862913303 	0.4840868214 	-0.0002271918903
0.3495822713 	2.866965898 	0.4840945513 	-0.0002160847453
0.3500204234 	2.87036318 	0.4839713837 	-0.000205151864
0.3504665492 	2.87323612 	0.4837406737 	-0.0001943319013
0.3509207785 	2.875689742 	0.4834204464 	-0.0001835788312
0.3513845503 	2.877818004 	0.4830220833 	-0.0001728183997
0.3518696828 	2.879687045 	0.4825519272 	-0.0001617291669
0.3523637086 	2.881324628 	0.4820212912 	-0.0001505950811
0.3528667873 	2.882758605 	0.4814401723 	-0.0001394029067
0.3533790813 	2.884020997 	0.4808142753 	-0.0001281395407
0.3539007558 	2.88513706 	0.4801480749 	-0.0001167954248
0.354431979 	2.88612685 	0.4794450863 	-0.0001053637107
0.3549729218 	2.887006384 	0.4787080861 	-9.383959355e-05
0.3555237583 	2.887788521 	0.4779392714 	-8.221984019e-05
0.3560846653 	2.888483614 	0.4771403799 	-7.050244833e-05
0.3566558229 	2.889100022 	0.4763127814 	-5.868640181e-05
0.3572374142 	2.88964449 	0.475457548 	-4.677149383e-05
0.3578296256 	2.890122449 	0.4745755084 	-3.475820062e-05
0.3584326466 	2.890538247 	0.4736672899 	-2.264759377e-05
0.35904667 	2.890895324 	0.4727333511 	-1.044127832e-05
0.3595770964 	2.89115061 	0.4719193775 	-9.91767739e-06
0.3596716997 	2.891195957 	0.4717745412 	-1.82434795e-06
0.3603070346 	2.891440251 	0.4707935103 	-1.398791011e-05
0.3609539542 	2.891631854 	0.4697873155 	-2.624022793e-05
0.3616126648 	2.891771669 	0.4687559748 	-3.857830997e-05
0.3622833765 	2.891860187 	0.467699425 	-5.099872068e-05
0.3629663027 	2.891898286 	0.4666175212 	-6.349758617e-05
0.3636616609 	2.891888424 	0.4655104617 	-7.607424318e-05
0.364369672 	2.891833882 	0.464378884 	-8.873063859e-05
0.3650905608 	2.89173681 	0.4632231096 	-0.0001014627605
0.3658245562 	2.891597242 	0.4620392986 	-0.0001142612836
0.3665815357 	2.89141363 	0.4608182961 	-0.0001273105593
0.3673642267 	2.891184759 	0.4595586105 	-0.0001406466854
0.3681610793 	2.890911272 	0.4582689209 	-0.0001540290082
0.3689723428 	2.890594522 	0.4569537426 	-0.0001674558711
0.369798271 	2.890235055 	0.4556130563 	-0.0001809233967
0.3706391218 	2.889833542 	0.4542468488 	-0.0001944277559
0.3714951578 	2.889390773 	0.4528551366 	-0.0002079651973
0.372366646 	2.888907641 	0.4514379549 	-0.0002137682479
0.3732538578 	2.888385139 	0.4499953818 	-0.0001979071175
0.3741570696 	2.887824324 	0.448527636 	-0.000181998952
0.3750765622 	2.887141426 	0.4468500395 	-0.000165939788
0.376486773 	2.8862634 	0.4447498215 	-0.0001420574591
0.3779110756 	2.885240867 	0.4424467645 	-0.0001183928794
0.3793496129 	2.884165646 	0.4401281358 	-9.505651464e-05
0.3808025294 	2.88303607 	0.4377817438 	-7.204412084e-05
0.3823059562 	2.881850175 	0.4353914305 	-4.874319427e-05
0.3838280091 	2.880616822 	0.4329724916 	-2.574249673e-05
0.3853651093 	2.87934806 	0.4305414881 	-3.111908659e-06
0.3855803392 	2.879167813 	0.4302027629 	-2.217418606e-05
0.3869151756 	2.878043835 	0.4281050936 	-1.885069405e-05
0.3884802461 	2.876710575 	0.4256601686 	-4.040532638e-05
0.3900608389 	2.875351162 	0.4232066094 	-6.160015627e-05
0.3916571133 	2.873967314 	0.4207449245 	-8.243429536e-05
0.3932692312 	2.8725604 	0.418275357 	-0.0001029066289
0.3948973565 	2.871125066 	0.4157885004 	-0.0001230107684
0.3965690669 	2.869653519 	0.4132682207 	-0.0001431265423
0.3982718105 	2.868148488 	0.410720252 	-0.0001630359038
0.3999912797 	2.866619335 	0.4081609788 	-0.0001786202655
0.4017276483 	2.865069738 	0.4055959437 	-0.0001560572335
0.4034810924 	2.863499907 	0.4030253239 	-0.0001339061132
0.4052517911 	2.861909952 	0.4004492798 	-0.000112167719
0.4070399258 	2.860299939 	0.3978678287 	-9.084281878e-05
0.4088456808 	2.858665123 	0.3952743605 	-6.992998547e-05
0.4106892378 	2.856995957 	0.3926534438 	-4.9176586e-05
0.4125745154 	2.855291545 	0.3900039547 	-2.857059846e-05
0.4144781776 	2.853560964 	0.387342258 	-8.425671992e-06
0.4152956098 	2.852816403 	0.3862080299 	-7.443242124e-05
0.4163989494 	2.851807128 	0.384678496 	-1.111559857e-05
0.4183374299 	2.850030645 	0.3820121116 	-3.010124456e-05
0.4202949142 	2.848233307 	0.3793417246 	-4.863936402e-05
0.4222716086 	2.846413812 	0.3766656614 	-6.673042601e-05
0.4242727255 	2.844561446 	0.3739699325 	-8.442316515e-05
0.4263330869 	2.842669092 	0.3712420755 	-0.0001020574551
0.4284134725 	2.840745576 	0.3684985242 	-0.0001191966631
0.4305141024 	2.838800219 	0.365752312 	-0.0001358482587
0.4326352002 	2.836832887 	0.3630035518 	-0.0001414613943
0.4347769937 	2.834843439 	0.3602521778 	-0.0001222689033
0.4369397142 	2.832826699 	0.3574921263 	-0.0001035564196
0.4391442892 	2.83077236 	0.3547092515 	-8.512501887e-05
0.4413946634 	2.828679418 	0.3519025626 	-6.697188946e-05
0.443666834 	2.826557583 	0.3490871349 	-4.933771367e-05
0.4459610492 	2.824412556 	0.3462705388 	-3.222100697e-05
0.448277562 	2.822244191 	0.3434527303 	-1.561693357e-05
0.4505459865 	2.820114479 	0.3407141059 	-5.572154781e-06
0.4506165593 	2.820048011 	0.3406289449 	-4.753193667e-07
0.4529933429 	2.817809801 	0.3377873029 	-1.60671915e-05
0.4554208951 	2.815531005 	0.3349231 	-3.135538815e-05
0.4578719627 	2.813221342 	0.3320507131 	-4.611719444e-05
0.4603468233 	2.810887314 	0.3291782612 	-6.036009108e-05
0.4628457593 	2.808528786 	0.3263055986 	-7.409116173e-05
0.4653690586 	2.806137011 	0.3234236438 	-8.731335564e-05
0.4679520536 	2.803702101 	0.3205191883 	-0.0001002489051
0.470569172 	2.801229302 	0.3176006348 	-0.0001127045715
0.4732116477 	2.798728827 	0.314680707 	-0.00010444639
0.4758797916 	2.796202726 	0.3117617922 	-8.958941216e-05
0.478573921 	2.793644344 	0.3088373296 	-7.525215205e-05
0.4813208668 	2.791043722 	0.3058954313 	-6.127083733e-05
0.4841109496 	2.788402745 	0.3029393394 	-4.772992657e-05
0.4869280722 	2.785731146 	0.2999811451 	-3.472613956e-05
0.4897725782 	2.783032734 	0.2970250014 	-2.224966694e-05
0.4926448178 	2.780299295 	0.2940632164 	-1.028849619e-05
0.4952388018 	2.777842692 	0.29142875 	-2.240980223e-05
0.4955778201 	2.777520946 	0.2910844726 	-1.31664589e-06
0.4985460505 	2.774700483 	0.288095836 	-1.239325728e-05
0.50154319 	2.771850166 	0.2851080198 	-2.295690728e-05
0.5045696182 	2.768969144 	0.2821205604 	-3.302025451e-05
0.5076367908 	2.7660478 	0.2791241169 	-4.263940844e-05
0.5107623923 	2.763081911 	0.2761140783 	-5.187205506e-05
0.5139184742 	2.760080159 	0.273101058 	-6.060323947e-05
0.5171054487 	2.757048774 	0.2700913933 	-6.884970964e-05
0.520325042 	2.753978491 	0.2670771245 	-7.662710438e-05
0.523612288 	2.75086105 	0.2640491709 	-8.404936123e-05
0.5269316876 	2.747704489 	0.2610174482 	-7.546177346e-05
0.5302836887 	2.744516832 	0.257989862 	-6.581608367e-05
0.533669638 	2.741289356 	0.2549592974 	-5.663611094e-05
0.5371230183 	2.738013948 	0.2519173676 	-4.781427684e-05
0.5406103399 	2.734698106 	0.2488729475 	-3.946532302e-05
0.5441320894 	2.731347707 	0.2458319843 	-3.157402807e-05
0.5476960233 	2.727954591 	0.2427877847 	-2.410251273e-05
0.5513203417 	2.724513946 	0.239735983 	-1.700704605e-05
0.5549805169 	2.721032715 	0.2366842321 	-1.034979458e-05
0.5586770766 	2.717511918 	0.2336343692 	-4.112598932e-06
0.5612874305 	2.715029422 	0.2315087109 	-5.922727265e-05
0.5624282509 	2.713943377 	0.2305795676 	-1.763971495e-06
0.5662275028 	2.710327306 	0.2275209357 	-7.269094314e-06
0.5700647233 	2.706670011 	0.2244647094 	-1.238197288e-05
0.5739448569 	2.702967029 	0.2214080521 	-1.712924456e-05
0.5778866303 	2.699212991 	0.2183466738 	-2.154508025e-05
0.5818679746 	2.695413443 	0.2152865577 	-2.559559315e-05
0.5858894948 	2.691567804 	0.2122284301 	-2.930046849e-05
0.5899727857 	2.687669042 	0.2091668594 	-3.270091153e-05
0.5941006535 	2.683720341 	0.2061056562 	-3.577166621e-05
0.5982704142 	2.679722735 	0.2030469909 	-3.852773728e-05
0.6024979472 	2.675670402 	0.199986858 	-4.100126946e-05
0.6067750414 	2.671564134 	0.1969269669 	-4.318218108e-05
0.6110958307 	2.667404795 	0.1938694919 	-4.508154137e-05
0.6154737333 	2.663187639 	0.1908115861 	-4.672654732e-05
0.6199031021 	2.658912602 	0.1877543423 	-4.811257214e-05
0.6243780584 	2.654579819 	0.1846994799 	-4.566989337e-05
0.6289117321 	2.65018475 	0.1816445578 	-4.231949616e-05
0.6334968048 	2.645727522 	0.178590983 	-3.922982783e-05
0.6381294517 	2.641207165 	0.1755397627 	-3.63873677e-05
0.6428238051 	2.636618722 	0.1724883924 	-3.376918858e-05
0.6475684204 	2.631962623 	0.1694388222 	-3.138073472e-05
0.6523649443 	2.627236985 	0.1663913741 	-2.920290778e-05
0.6572223575 	2.622450176 	0.163352088 	-2.722547405e-05
0.6620766355 	2.617642918 	0.1603480004 	-2.546201571e-05
0.6668799146 	2.612854149 	0.1574028669 	-2.390219236e-05
0.6716326517 	2.608095356 	0.154521943 	-2.253322155e-05
0.6763304893 	2.603366385 	0.1517039061 	-2.133455754e-05
0.680980885 	2.598664867 	0.1489456507 	-2.028382688e-05
0.6855796658 	2.593990857 	0.1462458848 	-1.937253075e-05
0.690125814 	2.589343703 	0.1436030919 	-1.85823332e-05
0.6946265976 	2.584720759 	0.1410142623 	-1.789873263e-05
0.6990762349 	2.580122578 	0.1384786349 	-1.731516048e-05
0.7034757701 	2.575548445 	0.1359947242 	-1.681679829e-05
0.7078302603 	2.570996059 	0.1335599823 	-1.639480249e-05
0.7121354456 	2.566465797 	0.1311736763 	-1.604320035e-05
0.7163924516 	2.561956873 	0.1288343948 	-1.575076202e-05
0.7206051784 	2.557467336 	0.126540007 	-1.551163895e-05
0.7247704865 	2.552997427 	0.1242897962 	-1.532134138e-05
0.7288890892 	2.548546422 	0.1220825272 	-1.517144669e-05
0.7329646301 	2.544112512 	0.1199163188 	-1.50573471e-05
0.7369945217 	2.539695753 	0.1177904389 	-1.497641928e-05
0.7409793914 	2.535295654 	0.1157039134 	-1.492229823e-05
0.7449217639 	2.53091068 	0.1136551524 	-1.489087456e-05
0.7488205855 	2.526540454 	0.1116432738 	-1.488114265e-05
0.7526760103 	2.522184646 	0.1096675072 	-1.488851715e-05
0.7564895149 	2.517842102 	0.1077265773 	-1.490918255e-05
0.7602614981 	2.51351204 	0.1058194766 	-1.494294724e-05
0.763991624 	2.509194238 	0.1039455671 	-1.498694408e-05
0.767680541 	2.504887882 	0.1021038718 	-1.503791666e-05
0.7713298015 	2.500591878 	0.1002933132 	-1.509511794e-05
0.7749386674 	2.496305913 	0.0985132588 	-1.515771069e-05
0.7785076447 	2.492029546 	0.09676303484 	-1.522326706e-05
0.7820377123 	2.487761801 	0.09504169178 	-1.528997412e-05
0.7855292473 	2.483501961 	0.09334846271 	-1.535829298e-05
0.7889822604 	2.479249664 	0.09168279276 	-1.542683082e-05
0.7923972207 	2.475004273 	0.09004398117 	-1.549394788e-05
0.7957751119 	2.470764901 	0.0884312261 	-1.555898511e-05
0.799115918 	2.466531013 	0.08684393282 	-1.56223526e-05
0.8024199552 	2.462302231 	0.08528159643 	-1.568290282e-05
0.8056876609 	2.458077893 	0.08374357067 	-1.573954579e-05
0.808919881 	2.453857207 	0.08222918037 	-1.579220546e-05
0.8121165911 	2.449639686 	0.08073792297 	-1.531605375e-05
0.815278181 	2.44542492 	0.07926933685 	-1.463723272e-05
0.8184050606 	2.441212268 	0.07782286309 	-1.397926851e-05
0.8214979011 	2.437000993 	0.07639792671 	-1.334152808e-05
0.824556818 	2.432790555 	0.07499407206 	-1.272310291e-05
0.8275821714 	2.428580497 	0.07361087995 	-1.212398954e-05
0.8305743473 	2.424370245 	0.07224788124 	-1.15441174e-05
0.8335338579 	2.420159135 	0.07090458294 	-1.098308632e-05
0.8364609812 	2.415946578 	0.0695805585 	-1.043988786e-05
0.8393560156 	2.411732076 	0.0682754331 	-9.914342603e-06
0.8422193257 	2.40751509 	0.06698881272 	-9.406294339e-06
0.8450513006 	2.403294951 	0.06572027789 	-8.915522361e-06
0.8478523485 	2.399070921 	0.06446942502 	-8.441173488e-06
0.8506227078 	2.394842327 	0.06323591181 	-7.982777277e-06
0.8533627237 	2.390608504 	0.06201939233 	-7.540124747e-06
0.8560727368 	2.38636872 	0.06081951539 	-7.112982494e-06
0.8587531258 	2.382122187 	0.05963591733 	-6.700984072e-06
0.861404197 	2.377868135 	0.05846826442 	-6.303347188e-06
0.8640262397 	2.373605871 	0.05731625996 	-5.919770492e-06
0.8666195773 	2.369334724 	0.05617959735 	-5.550009117e-06
0.8691845291 	2.365053965 	0.05505797708 	-5.193807699e-06
0.8717214379 	2.360762768 	0.05395108985 	-4.850792486e-06
0.8742305906 	2.356460237 	0.05285864897 	-4.520317177e-06
0.8767122763 	2.352145445 	0.05178039108 	-4.20210016e-06
0.8791667987 	2.347817414 	0.05071604177 	-3.895887841e-06
0.881594458 	2.343475089 	0.04966533658 	-3.601422917e-06
0.8839955611 	2.339117329 	0.04862800274 	-3.31840904e-06
0.8863703967 	2.334742936 	0.04760377952 	-3.046304008e-06
0.8887192369 	2.330350694 	0.04659242974 	-2.784804351e-06
0.891042368 	2.325939331 	0.04559371138 	-2.533669443e-06
0.8933400725 	2.321507448 	0.04460738928 	-2.292657782e-06
0.8956126298 	2.317053467 	0.04363323201 	-2.061526748e-06
0.8978603256 	2.312575627 	0.0426710057 	-1.839923452e-06
0.900083417 	2.308072066 	0.04172049463 	-1.627454243e-06
0.9022821723 	2.303540934 	0.04078149283 	-1.4238922e-06
0.9044568583 	2.298980464 	0.03985379148 	-1.229013866e-06
0.9066077387 	2.294388998 	0.03893719133 	-1.042599664e-06
0.9087350739 	2.289764931 	0.03803149147 	-8.644341173e-07
0.9108391258 	2.285106545 	0.03713648622 	-6.94211662e-07
0.9129201398 	2.280411801 	0.03625197668 	-5.316402509e-07
0.9149783679 	2.275678075 	0.03537775984 	-3.76524563e-07
0.9170140591 	2.270901936 	0.03451362462 	-2.286701152e-07
0.9190274597 	2.266079081 	0.03365936339 	-8.788327605e-08
0.92032514 	2.262902523 	0.03310898594 	-1.397054066e-05
0.9210187949 	2.261204517 	0.03281474649 	-4.476369455e-08
0.9229882931 	2.256272928 	0.03197955853 	-1.685523744e-07
0.9249362238 	2.251279194 	0.0311536857 	-2.861712413e-07
0.9268628213 	2.24621889 	0.03033698031 	-3.97792358e-07
0.9287683185 	2.241088479 	0.02952930366 	-5.035758706e-07
0.9306529456 	2.235885113 	0.02873052503 	-6.036763398e-07
0.9325169302 	2.230606058 	0.02794051263 	-6.982449272e-07
0.9343604974 	2.225247862 	0.02715912218 	-7.874306534e-07
0.9361838701 	2.219805551 	0.02638619114 	-8.714108672e-07
0.9379872663 	2.214272112 	0.02562154753 	-9.503630944e-07
0.9397709039 	2.208638473 	0.02486500887 	-1.024411529e-06
0.9415349984 	2.202893922 	0.02411638191 	-1.093672688e-06
0.9432797627 	2.197026802 	0.0233754682 	-1.15826507e-06
0.9450054076 	2.191025081 	0.02264205989 	-1.218319608e-06
0.9467121415 	2.18487636 	0.02191593379 	-1.273979731e-06
0.9484001706 	2.178567005 	0.02119684007 	-1.325389776e-06
0.9500696979 	2.17208033 	0.02048450919 	-1.372678762e-06
0.9517209248 	2.16539409 	0.01977860568 	-1.415908429e-06
0.9533540511 	2.159072897 	0.01913770572 	-1.457948738e-06
0.9544179371 	2.153786907 	0.01862234251 	-1.478697226e-06
0.9554622464 	2.149001746 	0.018172876 	-1.500395834e-06
0.9564873384 	2.144100136 	0.0177304403 	-1.520364739e-06
0.9574935658 	2.13906163 	0.01729485155 	-1.538743597e-06
0.9584812751 	2.1338728 	0.01686598263 	-1.555638876e-06
0.9594508062 	2.128527759 	0.01644378759 	-1.571096577e-06
0.960402493 	2.123027021 	0.01602826479 	-1.585094406e-06
0.9613366631 	2.117375308 	0.01561942241 	-1.597564789e-06
0.962253638 	2.111579099 	0.0152172512 	-1.608426452e-06
0.9631537337 	2.1056446 	0.01482170669 	-1.617621171e-06
0.9640372602 	2.099576426 	0.01443270376 	-1.625143644e-06
0.9649045219 	2.093377044 	0.01405012077 	-1.631053689e-06
0.9657558175 	2.087046825 	0.01367380865 	-1.635470102e-06
0.9665914405 	2.080584453 	0.01330360227 	-1.638552476e-06
0.9674116788 	2.073987472 	0.01293933096 	-1.640482364e-06
0.968216815 	2.067252793 	0.01258082716 	-1.6414399e-06
0.9690071268 	2.060377058 	0.01222793343 	-1.641567689e-06
0.9697828866 	2.053356828 	0.01188050727 	-1.640933016e-06
0.9705443617 	2.04618864 	0.01153842232 	-1.639513354e-06
0.9712918149 	2.038868943 	0.01120156621 	-1.637216079e-06
0.9720255037 	2.031393967 	0.01086983721 	-1.633920049e-06
0.9727456813 	2.023759581 	0.01054314153 	-1.629513174e-06
0.9734525961 	2.015961166 	0.01022139118 	-1.623910572e-06
0.9741464917 	2.007993475 	0.0099045036 	-1.617061806e-06
0.9748276077 	1.999850503 	0.009592401258 	-1.608949254e-06
0.975496179 	1.991525357 	0.009285010353 	-1.59959455e-06
0.9761524362 	1.983010152 	0.008982261098 	-1.589064863e-06
0.9767966058 	1.974295914 	0.008684088696 	-1.577460434e-06
0.9774289101 	1.965372472 	0.008390434897 	-1.564885657e-06
0.9780495673 	1.95622833 	0.008101249542 	-1.551422438e-06
0.9786587917 	1.946850544 	0.007816491852 	-1.537115845e-06
0.9792567935 	1.937224595 	0.007536131324 	-1.521969396e-06
0.9798437792 	1.927334271 	0.007260148118 	-1.50594797e-06
0.9804199514 	1.917161553 	0.00698853307 	-1.488987626e-06
0.9809855091 	1.906686505 	0.006721287493 	-1.471010234e-06
0.9815406475 	1.895887164 	0.006458422829 	-1.451936931e-06
0.9820855583 	1.884739434 	0.006199960198 	-1.431697146e-06
0.9826204297 	1.873216984 	0.005945929894 	-1.410233213e-06
0.9831454465 	1.86129114 	0.005696370884 	-1.38750157e-06
0.9836607899 	1.848930793 	0.005451330294 	-1.363471818e-06
0.984166638 	1.836102299 	0.005210862867 	-1.338124795e-06
0.9846631655 	1.822769387 	0.004975030384 	-1.311450573e-06
0.985150544 	1.80889307 	0.004743901006 	-1.283446912e-06
0.9856289418 	1.794431562 	0.004517548588 	-1.254118396e-06
0.9860985242 	1.779340194 	0.004296051735 	-1.22347625e-06
0.9865594535 	1.763571342 	0.004079492851 	-1.191538882e-06
0.9870118889 	1.74707435 	0.003867957421 	-1.158332344e-06
0.9874559868 	1.729795462 	0.003661534016 	-1.123888342e-06
0.9878919007 	1.711677745 	0.00346031153 	-1.088251889e-06
0.9883197813 	1.692660975 	0.003264374234 	-1.051486775e-06
0.9887397763 	1.672681504 	0.003073805804 	-1.013655381e-06
0.9891520311 	1.651672226 	0.002888692068 	-9.748247437e-07
0.9895566881 	1.629562723 	0.00270911359 	-9.350877007e-07
0.9899538871 	1.606279538 	0.002535143172 	-8.945482921e-07
0.9903437656 	1.58174653 	0.002366847143 	-8.533177604e-07
0.9907264583 	1.555885308 	0.00220428846 	-8.11521831e-07
0.9911020975 	1.528615784 	0.002047529242 	-7.692979841e-07
0.9914708132 	1.499856812 	0.001896540844 	-7.268057024e-07
0.9918327327 	1.469526575 	0.001750955635 	-6.842430239e-07
0.9921879813 	1.440341654 	0.001622915576 	-6.456041892e-07
0.9924166211 	1.415553187 	0.00152302967 	-6.137648852e-07
0.9926452634 	1.392668508 	0.001436835976 	-5.858272219e-07
0.992873908 	1.368673044 	0.00135191382 	-5.577903714e-07
0.993102555 	1.343478601 	0.001268491261 	-5.297606768e-07
0.9933312044 	1.316968567 	0.001186650412 	-5.017640143e-07
0.9935598563 	1.289033682 	0.001106495207 	-4.737572361e-07
0.9937885105 	1.259586609 	0.001028150762 	-4.457608298e-07
0.9940171671 	1.228544998 	0.0009517202054 	-4.178322831e-07
0.9942458262 	1.195822391 	0.0008773084383 	-3.900262449e-07
0.9944744876 	1.16132637 	0.000805018808 	-3.624092142e-07
0.9947031515 	1.124958606 	0.0007349516592 	-3.350539046e-07
0.9949318178 	1.086615769 	0.0006672052751 	-3.080370431e-07
0.9951604864 	1.04619116 	0.0006018792707 	-2.814379836e-07
0.9953891575 	1.003577105 	0.0005390808955 	-2.553400241e-07
0.995617831 	0.958668106 	0.0004789078994 	-2.298586027e-07
0.9958465068 	0.9113648049 	0.0004213383696 	-2.051067241e-07
0.9960751851 	0.8615787328 	0.0003663772647 	-1.810120426e-07
0.9963038658 	0.8092379903 	0.0003163568082 	-1.551998656e-07
0.9965325489 	0.7542947179 	0.0002780060556 	-1.370185673e-07
0.9967612344 	0.69672589 	0.0002248066497 	-1.211227208e-07
0.9969899223 	0.6364951781 	0.0001582985887 	-9.242426554e-08
0.9972186126 	0.5735746108 	0.0001297017399 	-7.106677651e-08
0.9974473053 	0.5080737839 	0.0001169867606 	-5.954166133e-08
0.9976760004 	0.4402605428 	9.180963345e-05 	-4.574729362e-08
0.9979046979 	0.3704703343 	6.663320279e-05 	-3.319179571e-08
0.9981333978 	0.2990235136 	4.292204099e-05 	-2.188521825e-08
0.9983621002 	0.2261563468 	2.353785894e-05 	-1.245928862e-08
0.9985908049 	0.1520009458 	1.038510471e-05 	-5.60554546e-09
0.998819512 	0.07661046432 	-2.633295276e-06 	-6.538310125e-10
0.9990482216 	0.03205291527 	-8.915909591e-06 	1.315454998e-09
0.9990482216 	0.03205291527 	-8.915909591e-06 	1.315454998e-09
