0.12903226 	0 	0 	0
0.13978495 	0 	0 	0
0.15053763 	0 	0 	0
0.16129032 	0 	0 	0
0.17204301 	0 	0 	0
0.1827957 	0 	0 	0
0.19354839 	0 	0 	0
0.20430108 	0 	0 	0
0.21505376 	0 	0 	0
0.22580645 	0 	0 	0
0.23655914 	0 	0 	0
0.24731183 	0 	0 	0
0.25806452 	0 	0 	0
0.2688172 	0 	0 	0
0.27956989 	0 	0 	0
0.29032258 	0 	0 	0
0.30107527 	0 	0 	0
0.31182796 	0 	0 	0
0.32258065 	0 	0 	0
0.33333333 	0 	0 	0
0.34408602 	0 	0 	0
0.35483871 	0 	0 	0
0.3655914 	0 	0 	0
0.37634409 	0 	0 	0
0.38709677 	0 	0 	0
0.39784946 	0 	0 	0
0.40860215 	0 	0 	0
0.41935484 	0 	0 	0
0.43010753 	0 	0 	0
0.44086022 	0 	0 	0
0.4516129 	0 	0 	0
0.46236559 	0 	0 	0
0.47311828 	0 	0 	0
0.48387097 	0 	0 	0
0.49462366 	0 	0 	0
0.50537634 	0 	0 	0
0.51612903 	0 	0 	0
0.52688172 	0 	0 	0
0.53763441 	0 	0 	0
0.5483871 	0 	0 	0
0.55913978 	0 	0 	0
0.56989247 	0 	0 	0
0.58064516 	0 	0 	0
0.59139785 	0 	0 	0
0.60215054 	0 	0 	0
0.61290323 	0 	0 	0
0.62365591 	0 	0 	0
0.6344086 	0 	0 	0
0.64516129 	0 	0 	0
0.65591398 	0 	0 	0
0.66666667 	0 	0 	0
0.67741935 	0 	0 	0
0.68817204 	0 	0 	0
0.69892473 	0 	0 	0
0.70967742 	0 	0 	0
0.72043011 	0 	0 	0
0.7311828 	0 	0 	0
0.74193548 	0 	0 	0
0.75268817 	0 	0 	0
0.76344086 	0 	0 	0
0.77419355 	0 	0 	0
0.78494624 	0 	0 	0
0.79569892 	0 	0 	0
0.80645161 	0 	0 	0
0.8172043 	0 	0 	0
0.82795699 	0 	0 	0
0.83870968 	0 	0 	0
0.84946237 	0 	0 	0
0.86021505 	0 	0 	0
0.87096774 	0 	0 	0
0.88172043 	0 	0 	0
0.89247312 	0 	0 	0
0.90322581 	0 	0 	0
0.91397849 	0 	0 	0
0.92473118 	0 	0 	0
0.93548387 	0 	0 	0
0.94623656 	0 	0 	0
0.95698925 	0 	0 	0
0.96774194 	0 	0 	0
0.97849462 	0 	0 	0
0.98924731 	0 	0 	0
