0.4709558481 	0.04094897611 	5.988269414e-08 	-1.7876061e-12
0.4709558481 	0.04094897611 	5.988269414e-08 	-1.7876061e-12
0.4711314108 	0.1125986594 	2.133710498e-07 	-1.259659172e-11
0.4713069734 	0.2250497572 	2.433358727e-08 	-3.566025305e-11
0.471482536 	0.3371949181 	-1.078933897e-06 	-7.190149483e-11
0.4716580986 	0.4485163443 	-1.385873944e-06 	-1.627923068e-10
0.4718336613 	0.5579017888 	2.57354525e-06 	-3.457366704e-10
0.4720092239 	0.6636616668 	1.086734726e-05 	-5.663803203e-10
0.4721847865 	0.7639522566 	1.871168697e-05 	-7.393237813e-10
0.4723603491 	0.8573536227 	2.266972627e-05 	-8.711908601e-10
0.4725359118 	0.9431889864 	2.615403754e-05 	-1.091820236e-09
0.4727114744 	1.021475265 	2.821527188e-05 	-1.240540934e-09
0.472887037 	1.092781888 	2.762322917e-05 	-1.357870898e-09
0.4730625996 	1.157955659 	3.149395017e-05 	-1.7061578e-09
0.4732381623 	1.217742558 	3.836299704e-05 	-2.003495516e-09
0.4734137249 	1.272717489 	4.370643143e-05 	-2.204073842e-09
0.4735892875 	1.323384726 	4.869069631e-05 	-2.463095207e-09
0.4737648501 	1.370204595 	5.386775966e-05 	-2.730762473e-09
0.4739404128 	1.413591759 	5.918086444e-05 	-3.003609164e-09
0.4741159754 	1.453915218 	6.45865436e-05 	-3.28194065e-09
0.474291538 	1.491500808 	7.007372635e-05 	-3.565933911e-09
0.4744671006 	1.52663521 	7.563765463e-05 	-3.855292884e-09
0.4746426632 	1.559570053 	8.12739238e-05 	-4.149756014e-09
0.4748182259 	1.590525635 	8.697877048e-05 	-4.449115733e-09
0.4749937885 	1.619694905 	9.274920191e-05 	-4.753191249e-09
0.4751693511 	1.64724731 	9.858278026e-05 	-5.061819685e-09
0.4753449137 	1.673331999 	0.0001044773655 	-5.374857467e-09
0.4755204764 	1.698080607 	0.0001104307008 	-5.69217775e-09
0.475696039 	1.721609712 	0.0001164401567 	-6.013668078e-09
0.4758716016 	1.7440231 	0.0001225084934 	-6.339230185e-09
0.4760471642 	1.765414055 	0.0001286565641 	-6.668779264e-09
0.4762227269 	1.788637743 	0.0001357177124 	-7.048679422e-09
0.4764955107 	1.816113542 	0.00014456183 	-7.53044029e-09
0.4767734216 	1.844880011 	0.0001545216309 	-8.075346367e-09
0.4770565557 	1.872426813 	0.0001648454935 	-8.639892012e-09
0.4773450114 	1.898860331 	0.0001754961668 	-9.224584249e-09
0.4776388886 	1.924276681 	0.0001864737262 	-9.829959524e-09
0.4779382892 	1.94876207 	0.0001977880019 	-1.045659586e-08
0.4782433171 	1.972393697 	0.000209448161 	-1.11051034e-08
0.4785540779 	1.995240761 	0.000221463133 	-1.17761229e-08
0.4788706795 	2.017365426 	0.0002338422394 	-1.247032531e-08
0.4791932316 	2.038823681 	0.0002465952416 	-1.318841136e-08
0.4795218461 	2.059666086 	0.0002597323216 	-1.39311115e-08
0.4798566368 	2.079938425 	0.0002732640911 	-1.469918617e-08
0.48019772 	2.099682264 	0.0002872016081 	-1.549342633e-08
0.4805452138 	2.118935436 	0.0003015563942 	-1.631465429e-08
0.4808992388 	2.137732457 	0.0003163404523 	-1.716372487e-08
0.4812599177 	2.156104892 	0.0003315662848 	-1.804152666e-08
0.4816273755 	2.174081668 	0.0003472469133 	-1.894898367e-08
0.4820017397 	2.19168935 	0.0003633958989 	-1.988705698e-08
0.48238314 	2.208952385 	0.0003800273634 	-2.08567467e-08
0.4827717088 	2.225893311 	0.0003971560113 	-2.1859094e-08
0.4831675807 	2.242532947 	0.0004147971526 	-2.289518335e-08
0.4835708931 	2.258890556 	0.0004329667268 	-2.396614483e-08
0.4839817856 	2.274983996 	0.0004516813273 	-2.507315663e-08
0.4844004009 	2.290829845 	0.0004709582266 	-2.621744757e-08
0.4848268841 	2.306443524 	0.0004908154024 	-2.740029991e-08
0.485261383 	2.321839397 	0.0005112715638 	-2.862305215e-08
0.4857040484 	2.337030865 	0.0005323461787 	-2.988710193e-08
0.4861550336 	2.352030453 	0.0005540595012 	-3.119390906e-08
0.4866144951 	2.366849882 	0.000576432599 	-3.254499864e-08
0.4870825921 	2.38150014 	0.0005994873815 	-3.39419642e-08
0.487559487 	2.395991541 	0.0006232466272 	-3.53864708e-08
0.4880453452 	2.410333783 	0.000647734011 	-3.688025805e-08
0.4885403351 	2.424535995 	0.0006729741307 	-3.842514307e-08
0.4890446283 	2.438606785 	0.0006989925326 	-4.002302304e-08
0.4895583997 	2.452554277 	0.000725815735 	-4.167587749e-08
0.4900818274 	2.466386151 	0.0007534712507 	-4.338576987e-08
0.4906150929 	2.48010967 	0.0007819876054 	-4.515484832e-08
0.4911583811 	2.493731715 	0.0008113943538 	-4.698534532e-08
0.4917118805 	2.507258802 	0.0008417220904 	-4.887957564e-08
0.4922757829 	2.520697112 	0.0008730024562 	-5.083993242e-08
0.4928502838 	2.5340525 	0.0009052681377 	-5.286888046e-08
0.4934355824 	2.547330518 	0.00093855286 	-5.496894654e-08
0.4940318817 	2.560536425 	0.0009728913716 	-5.714270622e-08
0.4946393885 	2.573675193 	0.00100831942 	-5.93927673e-08
0.4952583133 	2.586751519 	0.001044873722 	-6.172175028e-08
0.4958888709 	2.599769825 	0.001082591921 	-6.413226759e-08
0.4965312797 	2.612734264 	0.001121512542 	-6.662690367e-08
0.4971857627 	2.625648719 	0.001161674944 	-6.92081988e-08
0.4978525466 	2.638516801 	0.001203119262 	-7.187863866e-08
0.4985318627 	2.651341849 	0.001245886361 	-7.464065008e-08
0.4992239466 	2.664126929 	0.001290017784 	-7.749659863e-08
0.4999290382 	2.676874829 	0.001335555701 	-8.044877816e-08
0.5006473819 	2.68958806 	0.001382542864 	-8.349937647e-08
0.501379227 	2.702268855 	0.001431022532 	-8.665039905e-08
0.502124827 	2.714919172 	0.001481038349 	-8.990353843e-08
0.5028844406 	2.727540692 	0.001532634087 	-9.325998786e-08
0.5036583311 	2.740134812 	0.001585853125 	-9.672021426e-08
0.5044467669 	2.752702617 	0.001640738211 	-1.002837674e-07
0.5052500214 	2.765244808 	0.00169733117 	-1.039492224e-07
0.506068373 	2.779355476 	0.001763215732 	-1.081999581e-07
0.507324668 	2.796478046 	0.001846445542 	-1.135292147e-07
0.5085949819 	2.814811838 	0.00193964744 	-1.194175017e-07
0.5098794711 	2.832748394 	0.00203508161 	-1.253058893e-07
0.5111782938 	2.850265163 	0.002132462064 	-1.310695946e-07
0.5124916099 	2.867322705 	0.002231354792 	-1.365091703e-07
0.5138195812 	2.88385969 	0.002331138273 	-1.413467637e-07
0.5151623712 	2.899790543 	0.002430963275 	-1.452724541e-07
0.5165201452 	2.915010744 	0.002529758661 	-1.480965348e-07
0.5178930705 	2.929414241 	0.002626357594 	-1.499501158e-07
0.5192813161 	2.942922381 	0.002720105644 	-1.519212372e-07
0.520685053 	2.955520601 	0.002809649289 	-1.523925951e-07
0.522104454 	2.967299619 	0.00289459634 	-1.528815591e-07
0.523539694 	2.978425788 	0.002977662967 	-1.563969701e-07
0.5249909497 	2.98902457 	0.003060045708 	-1.58534618e-07
0.5264583998 	2.999133504 	0.003140658778 	-1.594932947e-07
0.527942225 	3.008751383 	0.003219343125 	-1.613281143e-07
0.5294426081 	3.017872825 	0.003296139013 	-1.626198464e-07
0.5309597337 	3.026492872 	0.003370611202 	-1.63439714e-07
0.5324937889 	3.034608095 	0.003442421278 	-1.637574565e-07
0.5340449624 	3.042217155 	0.003511261145 	-1.63544614e-07
0.5356134452 	3.049321095 	0.003576844105 	-1.627931498e-07
0.5371994306 	3.05592357 	0.003638910317 	-1.615171908e-07
0.5388031139 	3.062030977 	0.003697233097 	-1.597469125e-07
0.5404246925 	3.067652477 	0.003751623082 	-1.575229339e-07
0.5420643661 	3.072799904 	0.003801930296 	-1.54891264e-07
0.5437223366 	3.077487616 	0.003848046627 	-1.519066291e-07
0.5453988083 	3.081732363 	0.00388991 	-1.486252084e-07
0.5470939875 	3.085553517 	0.003927498914 	-1.45102646e-07
0.5488080831 	3.088974208 	0.003960852521 	-1.414456813e-07
0.5505413061 	3.092022188 	0.003990114629 	-1.3779485e-07
0.5522938699 	3.094728141 	0.004015506756 	-1.342256111e-07
0.5540659904 	3.09712251 	0.004037263444 	-1.307573945e-07
0.5558578859 	3.099233647 	0.004055615049 	-1.274086529e-07
0.5576697768 	3.101087452 	0.004070787562 	-1.241913218e-07
0.5595018865 	3.102707452 	0.004082996257 	-1.211083263e-07
0.5613544406 	3.104114938 	0.004092443815 	-1.181607221e-07
0.563227667 	3.105329116 	0.004099320249 	-1.153472208e-07
0.5651217966 	3.106367261 	0.004103802609 	-1.126645858e-07
0.5670370626 	3.107244875 	0.004106054907 	-1.101080798e-07
0.5689737009 	3.107975825 	0.004106228281 	-1.076718878e-07
0.5709319499 	3.108572492 	0.004104461335 	-1.053494635e-07
0.5729120508 	3.109045902 	0.004100880628 	-1.031338366e-07
0.5749142474 	3.109405852 	0.004095601237 	-1.010178327e-07
0.5769387863 	3.10966103 	0.00408872747 	-9.899443128e-08
0.5789859169 	3.109819121 	0.004080352826 	-9.705551926e-08
0.5810558911 	3.109886911 	0.004070563447 	-9.519669774e-08
0.583148964 	3.1098704 	0.004059434057 	-9.340949324e-08
0.5852653933 	3.109774842 	0.004047031848 	-9.168483594e-08
0.5874054395 	3.109604819 	0.004033419319 	-9.002259892e-08
0.5895693664 	3.109364364 	0.004018648569 	-8.841188573e-08
0.5917574402 	3.109056986 	0.00400276725 	-8.684851738e-08
0.5939699306 	3.108685732 	0.003985817913 	-8.53315599e-08
0.5962071099 	3.108253231 	0.00396783682 	-8.385261732e-08
0.5984692536 	3.107761743 	0.003948855967 	-8.24089566e-08
0.6007566404 	3.107213191 	0.003928903131 	-8.099661775e-08
0.6030695519 	3.1066092 	0.003908002163 	-7.961208413e-08
0.6054082729 	3.105951123 	0.003886173357 	-7.825210208e-08
0.6077730914 	3.10524007 	0.00386343378 	-7.691368823e-08
0.6101642987 	3.10447693 	0.003839797547 	-7.559408856e-08
0.6125821893 	3.103662394 	0.003815276083 	-7.429075942e-08
0.6150270608 	3.102796967 	0.003789878354 	-7.300134788e-08
0.6174992144 	3.101880995 	0.003763611077 	-7.172367405e-08
0.6199989545 	3.100914667 	0.003736478913 	-7.045571476e-08
0.622526589 	3.09989804 	0.00370848464 	-6.919558888e-08
0.625082429 	3.09883104 	0.003679629308 	-6.794154412e-08
0.6276667894 	3.09771348 	0.003649912385 	-6.669194523e-08
0.6302799884 	3.096545068 	0.003619331886 	-6.544526354e-08
0.6329223478 	3.09532541 	0.003587884493 	-6.420006774e-08
0.6355941931 	3.094054026 	0.003555565665 	-6.295501581e-08
0.6382958531 	3.09273035 	0.003522369733 	-6.170884802e-08
0.6410276607 	3.09135374 	0.00348829 	-6.046038098e-08
0.6437899523 	3.089923485 	0.003453318816 	-5.920850261e-08
0.646583068 	3.088438805 	0.003417447662 	-5.795216804e-08
0.6494073518 	3.086898863 	0.003380667221 	-5.669039623e-08
0.6522631514 	3.085302766 	0.003342967441 	-5.542226739e-08
0.6551508186 	3.083649566 	0.003304337601 	-5.4146921e-08
0.658070709 	3.081938274 	0.003264766364 	-5.286355443e-08
0.6610231822 	3.080167853 	0.003224241831 	-5.157142189e-08
0.6640086017 	3.07833723 	0.003182751591 	-5.026983383e-08
0.6670273351 	3.076445294 	0.003140282766 	-4.895815644e-08
0.6700797543 	3.074490904 	0.003096822048 	-4.763581126e-08
0.6731662352 	3.072472889 	0.003052355744 	-4.630227467e-08
0.6762871577 	3.070390052 	0.003006869807 	-4.495707708e-08
0.6794429063 	3.068241174 	0.002960349871 	-4.359980176e-08
0.6826338695 	3.066025019 	0.002912781278 	-4.223008295e-08
0.6858604404 	3.06374033 	0.002864149107 	-4.084760326e-08
0.6891230163 	3.06138584 	0.002814438198 	-3.945209002e-08
0.6924219988 	3.058960269 	0.002763633175 	-3.804331052e-08
0.6957577944 	3.056462331 	0.002711718467 	-3.662106588e-08
0.6991308138 	3.053890733 	0.00265867833 	-3.518518352e-08
0.7025414724 	3.051244181 	0.002604496868 	-3.373550805e-08
0.7059901901 	3.048521378 	0.002549158048 	-3.227189056e-08
0.7094773917 	3.045721032 	0.002492645729 	-3.079417637e-08
0.7130035066 	3.042841855 	0.002434943688 	-2.930219118e-08
0.7165689691 	3.039882564 	0.002376035643 	-2.779572609e-08
0.7201742182 	3.03684189 	0.002315905298 	-2.627452148e-08
0.7238196978 	3.03371857 	0.002254536384 	-2.473825059e-08
0.727505857 	3.030511357 	0.002191912691 	-2.318650295e-08
0.7312331497 	3.027219021 	0.00212801811 	-2.161876957e-08
0.7350020349 	3.023849385 	0.002063010788 	-2.003863469e-08
0.7387709215 	3.020431017 	0.001997441844 	-1.845883554e-08
0.7424982157 	3.016994081 	0.00193188086 	-1.689200863e-08
0.7461843763 	3.013549532 	0.00186652272 	-1.534147249e-08
0.7498298574 	3.010099207 	0.001801388256 	-1.380633359e-08
0.7534351078 	3.006644831 	0.001736497764 	-1.228570138e-08
0.7570005716 	3.003188022 	0.001671871081 	-1.077870371e-08
0.7605266877 	2.999730285 	0.001607527651 	-9.284505907e-09
0.7640138905 	2.996273018 	0.001543486578 	-7.802331542e-09
0.7674626093 	2.992817506 	0.001479766678 	-6.331483353e-09
0.770873269 	2.989364924 	0.001416386508 	-4.87136408e-09
0.7742462894 	2.985916338 	0.001353364384 	-3.42149683e-09
0.777582086 	2.982472701 	0.001290718384 	-1.98154474e-09
0.7808810695 	2.979034856 	0.001228466336 	-5.513296311e-10
0.7841436462 	2.975603534 	0.001166625803 	8.691501445e-10
0.787370218 	2.972179357 	0.001105214054 	2.279700262e-09
0.7905611821 	2.968762835 	0.001044248124 	3.679900041e-09
0.7937169314 	2.965354371 	0.0009837446599 	5.069170754e-09
0.7968378547 	2.961954264 	0.0009237185144 	6.446996664e-09
0.7999243362 	2.958562694 	0.0008641739953 	7.814382218e-09
0.8029767561 	2.955179662 	0.000805152571 	9.155523296e-09
0.8059954902 	2.951804579 	0.000746694724 	1.049110499e-08
0.8089809102 	2.948433115 	0.000688719378 	1.182485464e-08
0.8119333839 	2.945052975 	0.000631221826 	1.311604983e-08
0.8148532749 	2.941647673 	0.0005742840045 	1.439826372e-08
0.8177409426 	2.938205302 	0.00051788883 	1.567872649e-08
0.8205967427 	2.934720911 	0.0004620756406 	1.693113621e-08
0.8234210268 	2.931194254 	0.0004069522572 	1.816174168e-08
0.8262141429 	2.927627958 	0.000352600432 	1.937049812e-08
0.8289764348 	2.924026066 	0.0002990924127 	2.055948764e-08
0.8317082427 	2.920392959 	0.000246485995 	2.173274407e-08
0.8344099031 	2.916732669 	0.0001948222682 	2.289554556e-08
0.8370817486 	2.913048513 	0.0001441261828 	2.405356068e-08
0.8397241082 	2.909342972 	9.440918355e-05 	2.521220114e-08
0.8423373074 	2.905617717 	4.567274199e-05 	2.637617008e-08
0.844921668 	2.901873726 	-2.087944235e-06 	2.754921509e-08
0.8474775082 	2.898111415 	-4.888060186e-05 	2.8734075e-08
0.8500051427 	2.89433077 	-9.471319542e-05 	2.993255884e-08
0.8525048829 	2.890531446 	-0.0001395920224 	3.114568042e-08
0.8549770366 	2.886712838 	-0.0001835205794 	3.237382909e-08
0.8574219081 	2.882874127 	-0.00022649911 	3.361695098e-08
0.8598397987 	2.879014309 	-0.0002685246855 	3.487470695e-08
0.862231006 	2.87513221 	-0.0003095916536 	3.61466004e-08
0.8645958245 	2.871226506 	-0.0003496922911 	3.743207761e-08
0.8669345455 	2.867295739 	-0.0003888175186 	3.873060724e-08
0.8692474569 	2.86333834 	-0.0004269575557 	4.004174693e-08
0.8715348435 	2.859352658 	-0.0004641024293 	4.13652029e-08
0.8737969871 	2.85533698 	-0.0005002422728 	4.270088608e-08
0.8760341663 	2.851289549 	-0.0005353673857 	4.404896472e-08
0.8782466565 	2.847208575 	-0.0005694680451 	4.540991096e-08
0.8804347301 	2.843092219 	-0.0006025340852 	4.678453817e-08
0.8825986568 	2.838938568 	-0.0006345542788 	4.8174025e-08
0.8847387028 	2.834745584 	-0.0006655155694 	4.95799237e-08
0.8868551318 	2.830511036 	-0.0006954022131 	5.100414992e-08
0.8889482045 	2.826232411 	-0.0007241948924 	5.244895411e-08
0.8910181784 	2.821906812 	-0.0007518698669 	5.391687389e-08
0.8930653087 	2.817530856 	-0.0007783982185 	5.541066886e-08
0.8950898473 	2.813100563 	-0.00080374524 	5.693323996e-08
0.8970920436 	2.808611254 	-0.0008278700052 	5.848753717e-08
0.8990721441 	2.804057463 	-0.0008507251439 	6.00764576e-08
0.9010303927 	2.799432864 	-0.0008722568347 	6.170273182e-08
0.9029670306 	2.794730224 	-0.0008924050179 	6.336878858e-08
0.9048822962 	2.789941366 	-0.0009111038231 	6.507657982e-08
0.9067764254 	2.785057178 	-0.0009282822084 	6.682734641e-08
0.9086496514 	2.780067623 	-0.0009438648054 	6.862131573e-08
0.910502205 	2.774961794 	-0.0009577729712 	7.045735085e-08
0.9123343142 	2.769727977 	-0.0009699260497 	7.233260387e-08
0.9141462048 	2.764353742 	-0.0009802428366 	7.424224449e-08
0.9159380997 	2.75882605 	-0.000988643241 	7.617932136e-08
0.9177102197 	2.753131381 	-0.0009950501127 	7.813471454e-08
0.9194627831 	2.747255871 	-0.00099939121 	8.009717444e-08
0.9211960055 	2.741185465 	-0.001001600961 	8.20518969e-08
0.9229101006 	2.734906071 	-0.001001623639 	8.39834611e-08
0.9246052793 	2.728403723 	-0.0009994138974 	8.586824877e-08
0.9262817504 	2.721664743 	-0.0009949396866 	8.768128085e-08
0.9279397204 	2.714675916 	-0.0009881854047 	8.939963108e-08
0.9295793934 	2.707424644 	-0.000979152337 	9.099605096e-08
0.9312009714 	2.69989909 	-0.0009678610027 	9.244508404e-08
0.9328046541 	2.692088303 	-0.000954351696 	9.372062144e-08
0.9343906389 	2.683982307 	-0.000938684859 	9.479709669e-08
0.9359591211 	2.675572172 	-0.0009209409471 	9.565080026e-08
0.937510294 	2.666850037 	-0.0009012197275 	9.626089315e-08
0.9390443485 	2.657809111 	-0.0008796390209 	9.661005515e-08
0.9405614735 	2.648443634 	-0.000856332939 	9.668503619e-08
0.942061856 	2.638748802 	-0.0008314497675 	9.647706593e-08
0.9435456805 	2.628720665 	-0.0008051494349 	9.598220625e-08
0.9450131299 	2.618355998 	-0.000777600686 	9.520085836e-08
0.946464385 	2.607652147 	-0.0007489783536 	9.413731001e-08
0.9478996243 	2.596606875 	-0.0007194607682 	9.279978818e-08
0.9493190246 	2.585218186 	-0.0006892272975 	9.119993445e-08
0.9507227608 	2.573484154 	-0.0006584560973 	8.935222593e-08
0.9521110058 	2.561402745 	-0.0006273221292 	8.72734025e-08
0.9534839303 	2.548971641 	-0.0005959954698 	8.49819529e-08
0.9548417036 	2.536188071 	-0.0005646399144 	8.249766425e-08
0.9561844929 	2.523048642 	-0.0005334118582 	7.98412307e-08
0.9575124634 	2.509549192 	-0.0005024594255 	7.703391631e-08
0.9588257788 	2.495684654 	-0.0004719218016 	7.409727142e-08
0.9601246008 	2.48144896 	-0.0004419287267 	7.105289537e-08
0.9614090893 	2.46683501 	-0.0004126007763 	6.792228401e-08
0.9626794024 	2.451834725 	-0.0003840490509 	6.472654049e-08
0.9639356968 	2.4377581 	-0.0003586768784 	6.1762557e-08
0.9647540487 	2.426103466 	-0.0003387128612 	5.934498642e-08
0.9655573034 	2.415700728 	-0.0003216746444 	5.722166793e-08
0.9663457395 	2.40523632 	-0.0003052725525 	5.512337518e-08
0.9671196303 	2.394709826 	-0.0002895050015 	5.305495694e-08
0.9678792442 	2.384120832 	-0.0002743681774 	5.10207299e-08
0.9686248445 	2.37346884 	-0.0002598558515 	4.902451368e-08
0.9693566897 	2.3627532 	-0.0002459595103 	4.706964533e-08
0.9700750337 	2.351973065 	-0.0002326687001 	4.515900192e-08
0.9707801255 	2.341127355 	-0.0002199713072 	4.329502178e-08
0.9714722095 	2.330214738 	-0.0002078537949 	4.147972804e-08
0.9721515258 	2.319233612 	-0.0001963014186 	3.971475365e-08
0.9728183099 	2.3081821 	-0.000185298424 	3.80013675e-08
0.9734727929 	2.297058039 	-0.00017482823 	3.634050095e-08
0.9741152019 	2.285858983 	-0.0001648735992 	3.473277431e-08
0.9747457596 	2.274582198 	-0.0001554167951 	3.317852286e-08
0.9753646845 	2.263224658 	-0.0001464397289 	3.167782233e-08
0.9759721914 	2.251783046 	-0.0001379240929 	3.023051337e-08
0.9765684907 	2.24025375 	-0.0001298514841 	2.883622512e-08
0.9771537895 	2.228632859 	-0.0001222035157 	2.74943976e-08
0.9777282904 	2.216916157 	-0.0001149619174 	2.620430298e-08
0.9782921928 	2.205099116 	-0.0001081086252 	2.496506575e-08
0.9788456922 	2.193176886 	-0.00010162586 	2.377568173e-08
0.9793889805 	2.181144283 	-9.549619728e-05 	2.2635036e-08
0.979922246 	2.168995777 	-8.970262565e-05 	2.154191973e-08
0.9804456737 	2.156725467 	-8.422859702e-05 	2.049504596e-08
0.9809594451 	2.144327066 	-7.905806783e-05 	1.949306435e-08
0.9814637383 	2.131793877 	-7.417553222e-05 	1.853457487e-08
0.9819587281 	2.119118759 	-6.956604761e-05 	1.761814056e-08
0.9824445862 	2.1062941 	-6.521525337e-05 	1.674229912e-08
0.9829214811 	2.093311777 	-6.110938314e-05 	1.59055737e-08
0.9833895781 	2.080163118 	-5.723527145e-05 	1.510648254e-08
0.9838490396 	2.066838851 	-5.358035525e-05 	1.434354776e-08
0.9843000247 	2.053329058 	-5.013267083e-05 	1.361530313e-08
0.98474269 	2.039623113 	-4.688084682e-05 	1.292030096e-08
0.9851771888 	2.025709618 	-4.381409376e-05 	1.225711813e-08
0.9856036719 	2.011576334 	-4.092219081e-05 	1.162436127e-08
0.9860222871 	1.9972101 	-3.81954699e-05 	1.102067111e-08
0.9864331796 	1.982596742 	-3.562479803e-05 	1.044472615e-08
0.9868364919 	1.967720977 	-3.32015579e-05 	9.895245589e-09
0.9872323637 	1.952566302 	-3.091762743e-05 	9.37099168e-09
0.9876209323 	1.937114867 	-2.876535823e-05 	8.870771396e-09
0.9880023326 	1.921347338 	-2.673755361e-05 	8.393437615e-09
0.9883766967 	1.905242742 	-2.482744615e-05 	7.937889813e-09
0.9887441544 	1.888778286 	-2.302867519e-05 	7.5030743e-09
0.9891048331 	1.871929158 	-2.133526419e-05 	7.087983987e-09
0.9894588579 	1.854668304 	-1.974159835e-05 	6.691657834e-09
0.9898063516 	1.836966161 	-1.824240232e-05 	6.313179964e-09
0.9901474347 	1.818790371 	-1.683271815e-05 	5.951678485e-09
0.9904822253 	1.800105436 	-1.550788358e-05 	5.606323999e-09
0.9908108397 	1.780872332 	-1.426351034e-05 	5.276327939e-09
0.9911333916 	1.761048064 	-1.309546224e-05 	4.960940781e-09
0.9914499931 	1.740585152 	-1.19998321e-05 	4.65945013e-09
0.9917607538 	1.719431039 	-1.097292438e-05 	4.371178653e-09
0.9920657815 	1.697527412 	-1.001126794e-05 	4.095482282e-09
0.9923651819 	1.674809429 	-9.111558298e-06 	3.831748433e-09
0.992659059 	1.651204855 	-8.269978079e-06 	3.579393827e-09
0.9929475145 	1.626633153 	-7.481732928e-06 	3.337863101e-09
0.9932306485 	1.601004647 	-6.751852966e-06 	3.106633801e-09
0.9935085592 	1.574220101 	-6.124112928e-06 	2.885219776e-09
0.9937813429 	1.548619702 	-5.58947451e-06 	2.690832035e-09
0.9939569055 	1.526969109 	-5.119549663e-06 	2.538382133e-09
0.9941324681 	1.507019678 	-4.719814729e-06 	2.406695401e-09
0.9943080307 	1.486112631 	-4.360686281e-06 	2.277149615e-09
0.9944835934 	1.464163269 	-4.018690234e-06 	2.149739696e-09
0.994659156 	1.441077705 	-3.689219854e-06 	2.024478059e-09
0.9948347186 	1.416751101 	-3.373034462e-06 	1.901387743e-09
0.9950102812 	1.391065968 	-3.070218886e-06 	1.780497806e-09
0.9951858439 	1.36389031 	-2.780489511e-06 	1.661844954e-09
0.9953614065 	1.335075439 	-2.503661287e-06 	1.545474863e-09
0.9955369691 	1.304453912 	-2.239605099e-06 	1.431443945e-09
0.9957125317 	1.27183783 	-1.987981864e-06 	1.319825304e-09
0.9958880943 	1.237016706 	-1.748055766e-06 	1.210709231e-09
0.996063657 	1.199755271 	-1.527807922e-06 	1.104154128e-09
0.9962392196 	1.159792114 	-1.359684085e-06 	1.000228447e-09
0.9964147822 	1.116839413 	-1.247737936e-06 	8.993974442e-10
0.9965903448 	1.070584317 	-2.926050625e-07 	8.067718891e-10
0.9967659075 	1.020688414 	8.920692809e-07 	7.067558034e-10
0.9969414701 	0.9667430483 	-5.685152262e-07 	6.053122296e-10
0.9971170327 	0.908219113 	-2.917641768e-06 	5.30442308e-10
0.9972925953 	0.8445814317 	-3.416188703e-06 	4.527631089e-10
0.997468158 	0.7754940875 	-3.893838287e-06 	3.679120972e-10
0.9976437206 	0.7009310798 	-4.073935771e-06 	2.956590671e-10
0.9978192832 	0.6212630496 	-2.035865373e-06 	2.294104597e-10
0.9979948458 	0.5373138792 	1.268443198e-06 	1.700266025e-10
0.9981704085 	0.450245377 	3.320443838e-06 	1.185449486e-10
0.9983459711 	0.3612668625 	2.954551409e-06 	7.593295501e-11
0.9985215337 	0.2713314074 	1.444704923e-06 	4.271294541e-11
0.9986970963 	0.181005384 	3.577254397e-07 	1.90195267e-11
0.998872659 	0.09053623413 	9.371481849e-09 	5.116182862e-12
0.9990482216 	0.03812648492 	-1.792246992e-08 	5.691759673e-13
