0.3526971907 	4.425339782e-06 	-4.25711338e-08 	4.487022838e-12 	4.388985921e-06 	-3.321559352e-10 	8.36662702e-09
0.3528833318 	5.654997652e-05 	-2.116075344e-06 	3.282314609e-10 	5.495213161e-05 	-6.130923437e-09 	1.04754036e-07
0.3530694809 	0.0003278013397 	-2.727868873e-05 	4.390222836e-09 	0.0003055200151 	-3.518910653e-08 	5.824060636e-07
0.3532556373 	0.001134816976 	-0.00015847258 	2.40563094e-08 	0.0009877152003 	-1.08943908e-07 	1.882859693e-06
0.3534418003 	0.002885189238 	-0.000557695333 	7.471231632e-08 	0.002296290315 	-2.302471217e-07 	4.377367561e-06
0.3536279691 	0.005885675378 	-0.001375789273 	1.543043622e-07 	0.004274337167 	-3.742647231e-07 	8.148074632e-06
0.3538141431 	0.0100670342 	-0.002615846114 	2.364377273e-07 	0.006781269953 	-5.030840477e-07 	1.292698529e-05
0.3540003216 	0.0149504832 	-0.004119396211 	2.935266273e-07 	0.009563078412 	-5.884541586e-07 	1.822988537e-05
0.3541865037 	0.01994667104 	-0.005684464866 	3.140774434e-07 	0.01235929152 	-6.236153537e-07 	2.356024472e-05
0.3543726888 	0.02456226364 	-0.00708633192 	2.908427185e-07 	0.01504357932 	-6.301492148e-07 	2.867724333e-05
0.3545588762 	0.02863728915 	-0.008268739665 	2.571430308e-07 	0.01752912934 	-6.06407547e-07 	3.34153925e-05
0.3547450652 	0.03222592232 	-0.009309780299 	2.317818743e-07 	0.01972443464 	-5.504708744e-07 	3.760025454e-05
0.354931255 	0.0353272803 	-0.01021465082 	2.020951257e-07 	0.0216198605 	-4.802946863e-07 	4.121346305e-05
0.3551174449 	0.03796566376 	-0.01099362471 	1.716851337e-07 	0.02322719985 	-4.026943528e-07 	4.427749858e-05
0.3553036343 	0.04018208459 	-0.01166446732 	1.430993872e-07 	0.02456868705 	-3.232512561e-07 	4.683474604e-05
0.3554898223 	0.04202401636 	-0.01224772799 	1.173801831e-07 	0.02566957452 	-2.462401317e-07 	4.893334353e-05
0.3556760083 	0.04352421876 	-0.01271524923 	8.343122031e-08 	0.02657113034 	-1.791613856e-07 	5.065195949e-05
0.3558621916 	0.04472093995 	-0.01305529797 	5.120018897e-08 	0.02730949801 	-1.21562325e-07 	5.205949349e-05
0.3560483715 	0.04566755313 	-0.01331561371 	2.921881057e-08 	0.02789894762 	-7.171173616e-08 	5.318314828e-05
0.3562345472 	0.04640162038 	-0.01352000518 	1.242658231e-08 	0.02835513833 	-3.189468212e-08 	5.405277456e-05
0.356420718 	0.0469493026 	-0.01367438418 	1.043014551e-09 	0.02869501514 	-2.865262661e-09 	5.470067422e-05
0.3564442227 	0.04699771335 	-0.01368822854 	-5.6612853e-07 	0.02872502927 	1.230689611e-06 	5.475788949e-05
0.3566065628 	0.04733279975 	-0.01378405324 	6.291895145e-09 	0.02893277207 	-1.794997942e-08 	5.515390502e-05
0.3567923551 	0.04757146131 	-0.01385385968 	8.140468249e-09 	0.02908068699 	-2.73102367e-08 	5.543587195e-05
0.3569781408 	0.04768192294 	-0.01388809378 	4.159654074e-09 	0.02914923844 	-2.433883027e-08 	5.556655008e-05
0.357163919 	0.04767862854 	-0.01389056369 	-5.72750435e-09 	0.02914748004 	-8.737861409e-09 	5.556319808e-05
0.3573496891 	0.0475742481 	-0.0138646655 	-2.154924649e-08 	0.02908332713 	1.966628875e-08 	5.544090481e-05
0.3575354505 	0.04738000966 	-0.01381344659 	-4.328397598e-08 	0.02896377797 	6.092059725e-08 	5.521301088e-05
0.3577212023 	0.04710596257 	-0.01373966318 	-7.086182883e-08 	0.02879508801 	1.149506161e-07 	5.489144092e-05
0.357906944 	0.04676117629 	-0.01364582988 	-1.041676842e-07 	0.02858290698 	1.815708526e-07 	5.448696492e-05
0.3580926748 	0.04635386053 	-0.0135342204 	-1.430559656e-07 	0.02833233221 	2.60512146e-07 	5.400929975e-05
0.358278394 	0.04582372005 	-0.01338810955 	-1.912095092e-07 	0.02800632771 	3.598249993e-07 	5.338784457e-05
0.3585669344 	0.04507351439 	-0.01318044822 	-2.669641276e-07 	0.02754534327 	5.164410455e-07 	5.250908011e-05
0.3588608649 	0.04413923572 	-0.01292078366 	-3.604269389e-07 	0.02697170922 	7.119513739e-07 	5.141557417e-05
0.3591602827 	0.04309680358 	-0.01262996687 	-4.678171021e-07 	0.02633234184 	9.38006954e-07 	5.019676224e-05
0.3594652866 	0.04195853384 	-0.01231150448 	-5.885421312e-07 	0.02563491721 	1.193387593e-06 	4.886727705e-05
0.3597759769 	0.04073583531 	-0.01196871127 	-7.216097578e-07 	0.02488656984 	1.476135851e-06 	4.744071899e-05
0.3600924555 	0.03943954574 	-0.01160480282 	-8.653945476e-07 	0.02409408534 	1.783233444e-06 	4.593002325e-05
0.3604148257 	0.0380804383 	-0.01122309731 	-1.017080954e-06 	0.02326422132 	2.109843645e-06 	4.434807178e-05
0.3607431925 	0.0366754037 	-0.01082906239 	-1.16286321e-06 	0.02240749409 	2.430950395e-06 	4.271491158e-05
0.3610776623 	0.03525031199 	-0.01043119429 	-1.285012613e-06 	0.0215399865 	2.713824049e-06 	4.106120099e-05
0.3614183433 	0.03382971223 	-0.01003762023 	-1.3816777e-06 	0.0206771038 	2.955354788e-06 	3.941630675e-05
0.3617653449 	0.0324327854 	-0.009654596368 	-1.452095679e-06 	0.01983083045 	3.153612922e-06 	3.780307454e-05
0.3621187783 	0.03107798087 	-0.009288119776 	-1.485399015e-06 	0.01901292682 	3.286842836e-06 	3.624392289e-05
0.3624787563 	0.02978220368 	-0.008942975084 	-1.486874512e-06 	0.01823427409 	3.352428632e-06 	3.475959436e-05
0.362845393 	0.028530491 	-0.008592025211 	-1.783643767e-06 	0.01751660623 	3.194380197e-06 	3.339151996e-05
0.3632188042 	0.02729216841 	-0.008203466514 	-2.140140533e-06 	0.01687619048 	2.987655959e-06 	3.217070956e-05
0.3635991072 	0.02608860829 	-0.007808177285 	-2.18510411e-06 	0.01629059089 	2.929453576e-06 	3.105439397e-05
0.3639864209 	0.02494490524 	-0.007433846137 	-2.223540356e-06 	0.01574516168 	2.799379219e-06 	3.001465431e-05
0.3643808655 	0.02385764728 	-0.007073477629 	-2.270702878e-06 	0.01524871431 	2.581570032e-06 	2.906828763e-05
0.3647825629 	0.02282988805 	-0.006727188154 	-2.294653635e-06 	0.01480479118 	2.284708043e-06 	2.822204677e-05
0.3651916363 	0.0218653391 	-0.006396400574 	-2.295129795e-06 	0.01441583532 	1.913729307e-06 	2.74805888e-05
0.3656082104 	0.02096677922 	-0.006081962051 	-2.273655792e-06 	0.01408286678 	1.473470053e-06 	2.684585821e-05
0.3660324115 	0.02013580243 	-0.005784387453 	-2.231902415e-06 	0.01380598824 	9.701940227e-07 	2.631805077e-05
0.3664643669 	0.01937267195 	-0.005503916045 	-2.17153871e-06 	0.01358445199 	4.121140309e-07 	2.589574109e-05
0.3669042055 	0.01867589117 	-0.005240314539 	-2.09250463e-06 	0.01341629314 	-1.930573365e-07 	2.55751836e-05
0.3673532781 	0.0180387913 	-0.00499184286 	-1.993767629e-06 	0.0132991088 	-8.474150155e-07 	2.535179768e-05
0.3678226155 	0.01745570604 	-0.004757725579 	-1.867776382e-06 	0.01323194234 	-1.559200424e-06 	2.522375972e-05
0.3683005872 	0.01692880661 	-0.004542138009 	-1.654001347e-06 	0.01321424704 	-2.289582882e-06 	2.519002757e-05
0.3687873492 	0.01645892598 	-0.004349194801 	-1.310343669e-06 	0.01324476734 	-2.854575608e-06 	2.524820774e-05
0.3692830603 	0.0160409156 	-0.004175612146 	-1.064861077e-06 	0.01332201617 	-3.353051985e-06 	2.539546548e-05
0.369787882 	0.01566808551 	-0.004013731496 	-9.080270644e-07 	0.01344199802 	-3.735152221e-06 	2.562418423e-05
0.3703019789 	0.01533539884 	-0.003860016305 	-7.627699507e-07 	0.01359710598 	-3.980909527e-06 	2.591986313e-05
0.3708255181 	0.01503834662 	-0.003714717441 	-6.252297951e-07 	0.01377990694 	-4.122485031e-06 	2.626833256e-05
0.3713586698 	0.01477142275 	-0.00357726473 	-5.07376267e-07 	0.01398540691 	-4.186604589e-06 	2.666007262e-05
0.3719016073 	0.01452943913 	-0.0034466066 	-4.068583668e-07 	0.01421001033 	-4.185250042e-06 	2.708822915e-05
0.3724545069 	0.01430803311 	-0.003321821148 	-3.218020595e-07 	0.01445076122 	-4.126578722e-06 	2.754716727e-05
0.3730175478 	0.01410355148 	-0.00320209866 	-2.504709712e-07 	0.0147051691 	-4.017266922e-06 	2.803213939e-05
0.3735909124 	0.01391293118 	-0.003086696919 	-1.912859929e-07 	0.01497112786 	-3.862763154e-06 	2.853913072e-05
0.3741747866 	0.0137336203 	-0.002974942203 	-1.428437629e-07 	0.01524683273 	-3.667481382e-06 	2.906470082e-05
0.3747693591 	0.01356350403 	-0.002866215936 	-1.038766881e-07 	0.01553071015 	-3.435092316e-06 	2.960585008e-05
0.3753748222 	0.01340084224 	-0.002759945596 	-7.321764186e-08 	0.01582136546 	-3.168758384e-06 	3.015991989e-05
0.3759913715 	0.01324421602 	-0.002655597251 	-4.976919039e-08 	0.01611754314 	-2.871304432e-06 	3.072451687e-05
0.3766192059 	0.01309248241 	-0.002552669535 	-3.24782003e-08 	0.01641809639 	-2.545338766e-06 	3.12974549e-05
0.3772585279 	0.0129447357 	-0.002450689152 	-2.031565788e-08 	0.0167219646 	-2.193338391e-06 	3.187671216e-05
0.3779095436 	0.01280027531 	-0.002349206054 	-1.2262067e-08 	0.01702815219 	-1.817705786e-06 	3.24603908e-05
0.3785724626 	0.01265857575 	-0.002247794054 	-7.297314432e-09 	0.0173357252 	-1.420806665e-06 	3.304671044e-05
0.379247498 	0.0125192679 	-0.002146036699 	-4.396442501e-09 	0.01764377261 	-1.00498633e-06 	3.363393442e-05
0.3799348671 	0.01238207979 	-0.002043589803 	-2.527203135e-09 	0.01795157873 	-5.725807772e-07 	3.422069845e-05
0.3806347904 	0.01224691509 	-0.001939933341 	-6.568470982e-10 	0.01825809899 	-1.25909783e-07 	3.480501125e-05
0.3808310927 	0.0122101272 	-0.001910894545 	1.312199829e-06 	0.01834218458 	3.386113734e-06 	3.496530175e-05
0.3813466422 	0.01211329991 	-0.001834506451 	-2.973429589e-09 	0.01856350722 	-3.264797666e-07 	3.538720422e-05
0.3820801772 	0.01198034993 	-0.001726503728 	-8.597338437e-09 	0.01886951653 	-7.936335907e-07 	3.597054301e-05
0.3828382826 	0.01184819955 	-0.001615041479 	-1.700393514e-08 	0.01917506272 	-1.277524352e-06 	3.655299898e-05
0.3836101777 	0.01171796764 	-0.001500556552 	-2.91382697e-08 	0.01947722514 	-1.767706694e-06 	3.712900453e-05
0.3843961079 	0.01159032796 	-0.001383439439 	-4.59477117e-08 	0.01977442353 	-2.26203774e-06 	3.769554727e-05
0.3851963225 	0.01146553406 	-0.001263290939 	-6.830551834e-08 	0.02006587196 	-2.758577315e-06 	3.825112897e-05
0.3860110754 	0.01134381713 	-0.001139916927 	-9.697450331e-08 	0.02035108531 	-3.255642678e-06 	3.87948249e-05
0.3868406247 	0.01122544379 	-0.001013109001 	-1.325944176e-07 	0.02062951449 	-3.751826805e-06 	3.93255883e-05
0.3876852333 	0.01111066535 	-0.0008827058252 	-1.756536835e-07 	0.02090070979 	-4.24605972e-06 	3.984256191e-05
0.3885451683 	0.01099976535 	-0.0007485450857 	-2.265185095e-07 	0.02116412292 	-4.737448178e-06 	4.034470055e-05
0.3894207017 	0.01089288724 	-0.0006106084312 	-2.852664215e-07 	0.02141966011 	-5.225794249e-06 	4.083182546e-05
0.3903121102 	0.01077674495 	-0.0004512527583 	-3.565896362e-07 	0.02169943988 	-5.706676864e-06 	4.136516346e-05
0.3916794299 	0.0106394775 	-0.0002518114847 	-4.646504354e-07 	0.02203027777 	-6.438399374e-06 	4.199583244e-05
0.3930606337 	0.0104940495 	-3.140046079e-05 	-5.883793733e-07 	0.02237902271 	-7.153870461e-06 	4.266063721e-05
0.3944558643 	0.01035265121 	0.0001907140446 	-6.891042876e-07 	0.02271488365 	-7.522130487e-06 	4.330088151e-05
0.3958652666 	0.01021327291 	0.0004144812713 	-6.694146107e-07 	0.02304221186 	-6.687324418e-06 	4.392486007e-05
0.3973226541 	0.01007450154 	0.0006411457675 	-6.285925314e-07 	0.02336391507 	-5.852216197e-06 	4.453811579e-05
0.3987982205 	0.009937045392 	0.0008697275248 	-5.690733329e-07 	0.02367749318 	-5.036796936e-06 	4.513588283e-05
0.4002886278 	0.009800541202 	0.001097266997 	-4.942552825e-07 	0.02398318629 	-4.23719365e-06 	4.571861884e-05
0.401794029 	0.009664345908 	0.001323468365 	-4.086939391e-07 	0.02428157037 	-3.445359978e-06 	4.628742184e-05
0.4033145791 	0.009527992472 	0.001547874385 	-3.166742326e-07 	0.02457352303 	-2.656335868e-06 	4.684396476e-05
0.404850435 	0.009391254451 	0.001770265428 	-2.214869653e-07 	0.02485933839 	-1.866143169e-06 	4.738880826e-05
0.4064017559 	0.009253846318 	0.00199037679 	-1.256082857e-07 	0.02513962651 	-1.072655802e-06 	4.792311533e-05
0.4079687029 	0.009115945316 	0.002208528655 	-3.119821899e-08 	0.02541382432 	-2.733372127e-07 	4.844581256e-05
0.4085056593 	0.009068597182 	0.002281819785 	3.104285513e-06 	0.02550546605 	2.814449985e-06 	4.862050718e-05
0.4095500387 	0.008976303194 	0.002424590835 	-6.221652793e-08 	0.02568416817 	-5.21694743e-07 	4.896116308e-05
0.4111722932 	0.008832787672 	0.002639258796 	-1.525870235e-07 	0.02595615946 	-1.347100944e-06 	4.947965408e-05
0.4128244561 	0.008687909137 	0.002852325451 	-2.332943349e-07 	0.02622337037 	-2.176314352e-06 	4.998903233e-05
0.4144931395 	0.008545067056 	0.00307643029 	-4.411044228e-07 	0.02647792023 	-2.960364644e-06 	5.047427512e-05
0.4161785171 	0.008452556579 	0.003326344005 	-8.683520025e-07 	0.02666445601 	-3.042220734e-06 	5.082986416e-05
0.4178807647 	0.008462744138 	0.003598318756 	-1.331084607e-06 	0.02671990404 	-1.982853774e-06 	5.093556351e-05
0.4196000609 	0.008540374219 	0.003884425805 	-1.788917964e-06 	0.02668382891 	-1.331035141e-06 	5.086679429e-05
0.4213365867 	0.008637315963 	0.004168732631 	-1.968172458e-06 	0.02661106567 	-1.246846062e-06 	5.072808734e-05
0.4230905257 	0.008738439721 	0.004436503099 	-1.866932639e-06 	0.02652156586 	-1.242069196e-06 	5.055747582e-05
0.4248808085 	0.008842088885 	0.004683706472 	-1.484445485e-06 	0.02641996321 	-1.106748771e-06 	5.036379292e-05
0.4267111345 	0.008946461001 	0.004910691618 	-9.898099441e-07 	0.02630754935 	-8.856117109e-07 	5.014950087e-05
0.4285596439 	0.009048385392 	0.005115305774 	-5.745782927e-07 	0.02618720595 	-7.228510335e-07 	4.99200929e-05
0.430426532 	0.00914516986 	0.005296136414 	-2.503492358e-07 	0.02606270315 	-6.024520946e-07 	4.968275595e-05
0.432311997 	0.009235069245 	0.005453876275 	-2.13887571e-08 	0.02593694611 	-5.044051963e-07 	4.944302809e-05
0.4342162403 	0.00931663505 	0.005589361728 	1.141389328e-07 	0.02581287982 	-4.114359754e-07 	4.920652325e-05
0.4361394662 	0.009389098718 	0.005704647345 	1.63079866e-07 	0.02569208555 	-3.103918936e-07 	4.897625581e-05
0.438086583 	0.009451945525 	0.005801044934 	1.357436302e-07 	0.02557676827 	-1.922778249e-07 	4.875642902e-05
0.4400903286 	0.009506001158 	0.005881477271 	4.240819577e-08 	0.02546724928 	-5.086549219e-08 	4.854765537e-05
0.4407568964 	0.009520964826 	0.005903397681 	5.256538078e-07 	0.02543328523 	-3.116097882e-06 	4.848291046e-05
0.4421124636 	0.009551541994 	0.005948072104 	8.87696584e-08 	0.02536396393 	-1.045130579e-07 	4.83507648e-05
0.4441539424 	0.0095890431 	0.006002159354 	2.545754959e-07 	0.02526832687 	-2.756639827e-07 	4.816845399e-05
0.4462156827 	0.009620126182 	0.006046527555 	4.484154437e-07 	0.02517973166 	-4.601438596e-07 	4.799956689e-05
0.4482979098 	0.009646162908 	0.006083402544 	6.589526857e-07 	0.02509744217 	-6.520576693e-07 	4.784270024e-05
0.4504008528 	0.009668232446 	0.006114465226 	8.774977537e-07 	0.02502078244 	-8.462329707e-07 	4.769656549e-05
0.4525441768 	0.009687452954 	0.006141005778 	1.100112365e-06 	0.02494927611 	-1.040540301e-06 	4.756025456e-05
0.454731616 	0.009705198569 	0.006164828877 	1.323148128e-06 	0.02488170396 	-1.232993956e-06 	4.743144327e-05
0.4569406477 	0.009721989469 	0.006186654859 	1.541415715e-06 	0.02481796955 	-1.420153941e-06 	4.730994776e-05
0.4591715173 	0.009738153035 	0.006206747743 	1.753500733e-06 	0.02475835372 	-1.601295897e-06 	4.719630341e-05
0.4614244743 	0.009754349595 	0.006225920057 	1.576930762e-06 	0.02470222348 	-1.430305047e-06 	4.708930358e-05
0.4636997726 	0.009770834144 	0.006244524298 	1.375389457e-06 	0.02464928687 	-1.241122023e-06 	4.69883917e-05
0.4660138631 	0.009787823793 	0.006262599273 	1.170784097e-06 	0.02459965958 	-1.05218785e-06 	4.689378829e-05
0.4683768474 	0.009805989967 	0.006280905301 	9.643405526e-07 	0.02455257695 	-8.640098119e-07 	4.680403571e-05
0.4707631028 	0.009825323108 	0.006299562226 	7.602612768e-07 	0.02450800605 	-6.799065243e-07 	4.671907117e-05
0.4731729021 	0.009845516358 	0.006318079182 	5.593687212e-07 	0.02446672063 	-4.996881316e-07 	4.66403697e-05
0.4756065229 	0.00986690722 	0.006337009094 	3.621490705e-07 	0.02442794095 	-3.23434728e-07 	4.656644485e-05
0.4780642477 	0.009889181908 	0.006355886894 	1.68881952e-07 	0.02439226943 	-1.508716012e-07 	4.649844501e-05
0.4802716443 	0.009909899738 	0.006372664699 	-9.967668941e-08 	0.02436346259 	-8.356904008e-07 	4.644353117e-05
0.4805791243 	0.009912787614 	0.006374982503 	2.280518132e-08 	0.02435942477 	-2.109302804e-08 	4.643583396e-05
0.4831257177 	0.009938079133 	0.006394791369 	2.068297025e-07 	0.02432846412 	-1.915455611e-07 	4.637681435e-05
0.4856974442 	0.0099644276 	0.006414709379 	3.862222569e-07 	0.02430047402 	-3.582999757e-07 	4.632345746e-05
0.4882946084 	0.009991961326 	0.006434979921 	5.609997029e-07 	0.02427503673 	-5.216241886e-07 	4.62749669e-05
0.4909175204 	0.01002049737 	0.006455350451 	7.311823215e-07 	0.0242524949 	-6.816587524e-07 	4.623199591e-05
0.4935914432 	0.01005031687 	0.006475921624 	8.98848676e-07 	0.02423282032 	-8.40280124e-07 	4.619449069e-05
0.4963073025 	0.0100818092 	0.006497208968 	1.062865063e-06 	0.02421521318 	-9.969102222e-07 	4.616092659e-05
0.4990499663 	0.01011448323 	0.006518738138 	1.222008937e-06 	0.02420026126 	-1.15048123e-06 	4.613242407e-05
0.5018197696 	0.01014831851 	0.006540620727 	1.376330111e-06 	0.0241876598 	-1.301240361e-06 	4.610840219e-05
0.5046170535 	0.01018310806 	0.006562533065 	1.506544837e-06 	0.02417795015 	-1.430775079e-06 	4.60898929e-05
0.5074731508 	0.01021933537 	0.006584748692 	1.33144445e-06 	0.02417088333 	-1.270311993e-06 	4.607642158e-05
0.5103654706 	0.0102572761 	0.006607697879 	1.160690269e-06 	0.02416563988 	-1.113273677e-06 	4.60664261e-05
0.5132863965 	0.01029633575 	0.006630874735 	9.94951036e-07 	0.02416281283 	-9.597627673e-07 	4.606103697e-05
0.5162362976 	0.01033650838 	0.006654312628 	8.341172312e-07 	0.02416227414 	-8.095840256e-07 	4.606001007e-05
0.5192259846 	0.01037785328 	0.006677876769 	6.774021334e-07 	0.0241643883 	-6.617104627e-07 	4.606404024e-05
0.522272157 	0.01042090032 	0.006702008946 	5.239771153e-07 	0.02416847984 	-5.153324633e-07 	4.607183987e-05
0.5253484873 	0.01046546561 	0.00672666223 	3.757112694e-07 	0.02417436831 	-3.722892295e-07 	4.608306492e-05
0.5284553749 	0.01051120317 	0.006751648121 	2.325593373e-07 	0.02418212446 	-2.322932541e-07 	4.609785029e-05
0.5315944582 	0.01055802344 	0.006776717316 	9.436034475e-08 	0.02419230874 	-9.504693777e-08 	4.611726437e-05
0.5338265938 	0.01059184754 	0.006794522506 	-2.424261171e-07 	0.02420074843 	-1.719964593e-06 	4.613335276e-05
0.5347983671 	0.01060656927 	0.006802233506 	3.950832904e-08 	0.0242043856 	-4.157767793e-08 	4.614028621e-05
0.5380331266 	0.01065689225 	0.006828388798 	1.654865391e-07 	0.02421758978 	-1.758353231e-07 	4.616545705e-05
0.5413001689 	0.01070842093 	0.006854871298 	2.862277246e-07 	0.02423234087 	-3.072346826e-07 	4.619357674e-05
0.5446007731 	0.0107611362 	0.00688149724 	4.018526454e-07 	0.02424910175 	-4.359630775e-07 	4.622552762e-05
0.5479665339 	0.01081567722 	0.006908615254 	5.137412543e-07 	0.02426739817 	-5.635277435e-07 	4.626040569e-05
0.5513659018 	0.01087212675 	0.006936499095 	6.200447869e-07 	0.02428632575 	-6.883317963e-07 	4.629648691e-05
0.5547993447 	0.01092981891 	0.006964653719 	7.209355533e-07 	0.02430652656 	-8.104588426e-07 	4.633499528e-05
0.5582741879 	0.01098897246 	0.006993080117 	8.167567388e-07 	0.0243281235 	-9.303201277e-07 	4.637616504e-05
0.5618076284 	0.0110500964 	0.007022083007 	9.079309573e-07 	0.02435054727 	-1.048467929e-06 	4.641891098e-05
0.5653765506 	0.01111309394 	0.007051776239 	9.932968184e-07 	0.02437313012 	-1.164013411e-06 	4.646196017e-05
0.5689814607 	0.01117743059 	0.00708169178 	1.073091867e-06 	0.02439664399 	-1.276936199e-06 	4.650678414e-05
0.5726399359 	0.01124360669 	0.007112030026 	1.133302253e-06 	0.02442079104 	-1.370260404e-06 	4.655281514e-05
0.5763462671 	0.01131191377 	0.007143067003 	1.026639605e-06 	0.02444475205 	-1.262364684e-06 	4.659849148e-05
0.5800900842 	0.01138191287 	0.007174561082 	9.250520963e-07 	0.02446863971 	-1.15774857e-06 	4.6644028e-05
0.5838760648 	0.01145357482 	0.007206351048 	8.28300352e-07 	0.02449277948 	-1.055931123e-06 	4.66900451e-05
0.5877219169 	0.01152743149 	0.007238713525 	7.358822224e-07 	0.02451654812 	-9.562748918e-07 	4.673535473e-05
0.5916068205 	0.01160340463 	0.007271740749 	6.48518583e-07 	0.02453924104 	-8.599826585e-07 	4.677861375e-05
0.5955313545 	0.01168100866 	0.007305005946 	5.662005691e-07 	0.02456164021 	-7.667916506e-07 	4.682131279e-05
0.5995159326 	0.01176083496 	0.007338754225 	4.883059232e-07 	0.02458321098 	-6.759021698e-07 	4.686243267e-05
0.6035443405 	0.01184300879 	0.007373186956 	4.153784239e-07 	0.02460300971 	-5.883185307e-07 	4.690017455e-05
0.6076140506 	0.01192696784 	0.00740787815 	3.474606421e-07 	0.02462176188 	-5.040137971e-07 	4.693592141e-05
0.6117400776 	0.01201318201 	0.007442981997 	2.840940229e-07 	0.02463905054 	-4.224342307e-07 	4.69688784e-05
0.6159146912 	0.01210185225 	0.007478695226 	2.255658155e-07 	0.02465395438 	-3.442168646e-07 	4.699728926e-05
0.6201323578 	0.01219248598 	0.007514663124 	1.719109828e-07 	0.02466702911 	-2.695053045e-07 	4.702221334e-05
0.624405768 	0.01228545073 	0.007550975831 	1.22751803e-07 	0.02467791721 	-1.978947779e-07 	4.704296908e-05
0.6287296122 	0.01238094024 	0.00758779365 	7.827326755e-08 	0.02468573612 	-1.299264707e-07 	4.70578741e-05
0.6330983433 	0.01247849819 	0.007624787189 	3.841909968e-08 	0.02469101103 	-6.573506087e-08 	4.706792953e-05
0.6375243826 	0.01257847926 	0.007662041001 	2.845617158e-09 	0.02469331086 	-5.024372624e-09 	4.707231364e-05
0.6379202885 	0.0125875461 	0.007665368671 	-6.530420767e-08 	0.02469318452 	-6.700146928e-07 	4.707207281e-05
0.6420004271 	0.01268096671 	0.007699615966 	2.742820876e-08 	0.02469184186 	-5.193035993e-08 	4.706951332e-05
0.6465232803 	0.01278554723 	0.007737217274 	5.351895373e-08 	0.02468719243 	-1.048411091e-07 	4.706065022e-05
0.6511063536 	0.01289260262 	0.0077749583 	7.581623733e-08 	0.02467874548 	-1.538649587e-07 	4.704454799e-05
0.6557388531 	0.01300201575 	0.007812780883 	9.425664867e-08 	0.02466610849 	-1.984634975e-07 	4.702045838e-05
0.660422338 	0.01311348924 	0.007850430845 	1.091685802e-07 	0.02464970793 	-2.388068549e-07 	4.698919434e-05
0.665165319 	0.01322700631 	0.007887904948 	1.207617738e-07 	0.0246288752 	-2.748060689e-07 	4.694948137e-05
0.6699055951 	0.01334119165 	0.007924677486 	1.290862875e-07 	0.02460406005 	-3.059158818e-07 	4.69021768e-05
0.6745962236 	0.01345497024 	0.007960341223 	1.345265479e-07 	0.02457572715 	-3.322566058e-07 	4.684816642e-05
0.6792376453 	0.01356810827 	0.007994874719 	1.373803136e-07 	0.02454360699 	-3.538486218e-07 	4.678693646e-05
0.683825733 	0.01368018312 	0.008028100929 	1.380655124e-07 	0.02450839967 	-3.710638137e-07 	4.671982153e-05
0.6883675362 	0.01379131663 	0.008060076256 	1.36967141e-07 	0.02447004542 	-3.843225173e-07 	4.664670766e-05
0.6928591181 	0.01390138155 	0.008090804786 	1.342920235e-07 	0.02442848812 	-3.936687367e-07 	4.656748791e-05
0.6972995107 	0.0140100145 	0.008120147633 	1.304004289e-07 	0.02438447967 	-3.995664697e-07 	4.648359556e-05
0.7016955919 	0.01411739795 	0.008148200214 	1.255343715e-07 	0.02433783461 	-4.022976602e-07 	4.639467712e-05
0.7060419018 	0.01422333447 	0.008174939886 	1.19857269e-07 	0.02428870067 	-4.019699719e-07 	4.630101418e-05
0.7103394253 	0.01432761297 	0.008200306378 	1.136318832e-07 	0.02423764551 	-3.990210417e-07 	4.620368885e-05
0.7145929543 	0.01443043029 	0.008224406195 	1.069930978e-07 	0.02418442296 	-3.936175202e-07 	4.610223188e-05
0.7187984672 	0.01453159861 	0.008247219691 	1.000659578e-07 	0.02412926318 	-3.859145053e-07 	4.5997082e-05
0.7229570291 	0.01463102811 	0.008268742193 	9.302252086e-08 	0.02407256449 	-3.762821168e-07 	4.588899854e-05
0.7270723394 	0.0147289227 	0.008289077756 	8.59370759e-08 	0.02401407591 	-3.648412377e-07 	4.577750305e-05
0.7311414373 	0.01482514766 	0.008308224662 	7.888834227e-08 	0.0239539797 	-3.517380966e-07 	4.566294296e-05
0.7351650003 	0.01491964352 	0.008326194069 	7.198572128e-08 	0.02389263562 	-3.372863022e-07 	4.55460041e-05
0.7391464853 	0.01501263134 	0.008343086049 	6.527039642e-08 	0.0238298136 	-3.216044527e-07 	4.542624787e-05
0.7430834556 	0.01510404869 	0.008358918816 	5.877717621e-08 	0.02376557421 	-3.047886745e-07 	4.530378974e-05
0.7469765096 	0.01519380455 	0.008373697492 	5.257465452e-08 	0.02370032111 	-2.871069712e-07 	4.517939919e-05
0.7508280447 	0.01528212422 	0.008387515204 	4.668458451e-08 	0.02363387759 	-2.686966235e-07 	4.505273939e-05
0.7546370775 	0.01536902533 	0.008400406573 	4.110989382e-08 	0.02356617078 	-2.495951327e-07 	4.492367138e-05
0.7584037601 	0.01545437871 	0.008412368539 	3.588843195e-08 	0.02349763383 	-2.300220919e-07 	4.47930209e-05
0.7621294977 	0.0155383792 	0.008423480918 	3.103020996e-08 	0.02342818869 	-2.101333639e-07 	4.466063917e-05
0.7658146819 	0.01562111977 	0.008433790809 	2.652069422e-08 	0.02335768043 	-1.899344368e-07 	4.452623083e-05
0.7694590036 	0.01570248155 	0.008443297033 	2.23708168e-08 	0.02328644606 	-1.695775141e-07 	4.439043832e-05
0.773063084 	0.01578256299 	0.008452053717 	1.858206058e-08 	0.02321458641 	-1.492160973e-07 	4.425345385e-05
0.7766284048 	0.01586152194 	0.008460119425 	1.513676185e-08 	0.02314194627 	-1.28883223e-07 	4.411498156e-05
0.7801542793 	0.01593932661 	0.008467507109 	1.202232152e-08 	0.02306861956 	-1.086379956e-07 	4.397520047e-05
0.7836411951 	0.01601593871 	0.008474239314 	9.233055643e-09 	0.02299490509 	-8.861066029e-08 	4.38346802e-05
0.7870900882 	0.01609152805 	0.008480377491 	6.753461758e-09 	0.02292072892 	-6.889010792e-08 	4.369327981e-05
0.7905013293 	0.01616617327 	0.008485953283 	4.55912081e-09 	0.02284600482 	-4.947030382e-08 	4.355083491e-05
0.7938749387 	0.0162398065 	0.008490975502 	2.635440555e-09 	0.02277097278 	-3.043582651e-08 	4.340780298e-05
0.7972113697 	0.01631248296 	0.008495485071 	9.657852884e-10 	0.02269578276 	-1.18753023e-08 	4.32644699e-05
0.7993670608 	0.01635942737 	0.00849812613 	-4.688038991e-07 	0.02264650001 	-2.560574954e-06 	4.317052328e-05
0.8005115188 	0.0163843539 	0.008499529416 	4.705754551e-10 	0.02262032993 	-6.007213727e-09 	4.312063585e-05
0.8037753446 	0.0164554522 	0.008503127153 	1.692670064e-09 	0.02254461145 	-2.305658069e-08 	4.297629537e-05
0.8070032442 	0.01652573173 	0.008506295461 	2.71897979e-09 	0.02246887433 	-3.951208768e-08 	4.283191938e-05
0.8101956416 	0.0165952785 	0.008509076917 	3.569794092e-09 	0.02239319831 	-5.531605286e-08 	4.268765985e-05
0.8133533493 	0.01666422109 	0.008511508333 	4.267319875e-09 	0.02231749443 	-7.045228583e-08 	4.254334722e-05
0.8164763566 	0.01673257746 	0.008513605336 	4.834285748e-09 	0.02224180918 	-8.492019443e-08 	4.239907009e-05
0.8195650428 	0.01680032947 	0.008515388386 	5.291160782e-09 	0.02216633349 	-9.867874277e-08 	4.225519245e-05
0.8226198062 	0.01686755832 	0.008516895626 	5.657202182e-09 	0.02209113624 	-1.116906286e-07 	4.211184559e-05
0.8256412934 	0.01693438219 	0.008518158073 	5.951539211e-09 	0.02201614488 	-1.239445861e-07 	4.196889121e-05
0.8286296259 	0.01700082804 	0.008519191134 	6.194078435e-09 	0.02194139918 	-1.354482138e-07 	4.182640514e-05
0.8315851548 	0.01706688798 	0.008520013985 	6.403174361e-09 	0.02186705337 	-1.461780816e-07 	4.168468135e-05
0.8345082558 	0.01713262097 	0.008520659216 	6.595322414e-09 	0.02179319666 	-1.561124703e-07 	4.154388994e-05
0.8373994246 	0.01719813553 	0.008521155157 	6.785316471e-09 	0.02171978429 	-1.652371883e-07 	4.140394556e-05
0.840258936 	0.01726347737 	0.00852151636 	6.989024449e-09 	0.02164682005 	-1.735688283e-07 	4.126485543e-05
0.843087083 	0.01732863652 	0.008521759045 	7.221531865e-09 	0.02157444023 	-1.81102554e-07 	4.112687938e-05
0.8458842206 	0.01739364824 	0.008521909829 	7.495734096e-09 	0.02150274645 	-1.878343023e-07 	4.099021112e-05
0.8486507275 	0.01745859655 	0.008521995067 	7.8221037e-09 	0.02143174303 	-1.937576704e-07 	4.085485886e-05
0.8513870014 	0.01752355036 	0.008522029558 	8.211013252e-09 	0.02136139762 	-1.988908782e-07 	4.072076096e-05
0.8540932784 	0.01758851396 	0.008522027975 	8.672710862e-09 	0.02129180279 	-2.032505424e-07 	4.058809387e-05
0.8567698952 	0.01765350952 	0.008522009329 	9.214966718e-09 	0.02122303967 	-2.068446091e-07 	4.045701225e-05
0.859417184 	0.01771858407 	0.008521996461 	9.843445903e-09 	0.02115516284 	-2.096786977e-07 	4.032762015e-05
0.8620355136 	0.01778381752 	0.008522008145 	1.056146125e-08 	0.02108815006 	-2.117560466e-07 	4.019987517e-05
0.8646251844 	0.01784925401 	0.008522053266 	1.137277358e-08 	0.02102198998 	-2.130969797e-07 	4.007375566e-05
0.8671864803 	0.01791489374 	0.008522146258 	1.228014182e-08 	0.02095677532 	-2.137191292e-07 	3.994943839e-05
0.869719717 	0.01798076222 	0.008522302571 	1.328370935e-08 	0.02089255838 	-2.136384349e-07 	3.982702307e-05
0.8722252062 	0.01804689281 	0.008522538712 	1.438201039e-08 	0.02082938159 	-2.12874006e-07 	3.970659055e-05
0.8747032823 	0.0181133377 	0.008522866986 	1.557154536e-08 	0.020767238 	-2.114497726e-07 	3.958812758e-05
0.8771542268 	0.01818011642 	0.008523292269 	1.684900729e-08 	0.020706134 	-2.094064116e-07 	3.947164637e-05
0.8795783229 	0.01824721781 	0.008523826283 	1.820902147e-08 	0.02064615269 	-2.067890078e-07 	3.935730534e-05
0.8819758673 	0.01831465291 	0.008524479486 	1.964334773e-08 	0.02058733376 	-2.036396855e-07 	3.92451801e-05
0.8843471534 	0.01838243752 	0.008525262537 	2.114196134e-08 	0.0205297074 	-1.999997612e-07 	3.913532824e-05
0.8866924807 	0.01845060698 	0.008526183602 	2.269250386e-08 	0.02047326479 	-1.959077463e-07 	3.902773294e-05
0.8890121322 	0.01851918104 	0.008527242879 	2.428265468e-08 	0.02041798252 	-1.914079763e-07 	3.892234957e-05
0.8913063745 	0.01858815199 	0.008528445629 	2.589804792e-08 	0.0203638954 	-1.865499253e-07 	3.881924448e-05
0.8935754874 	0.01865752396 	0.008529797113 	2.752159548e-08 	0.02031101946 	-1.813823708e-07 	3.871844824e-05
0.8958197471 	0.01872730367 	0.008531298608 	2.913451008e-08 	0.02025934803 	-1.759542974e-07 	3.861994814e-05
0.8980394268 	0.01879750138 	0.008532952376 	3.07153029e-08 	0.02020887275 	-1.703219423e-07 	3.852372823e-05
0.9002348058 	0.01886812805 	0.008534754602 	3.224046991e-08 	0.02015955854 	-1.645491579e-07 	3.842972163e-05