0.4709477638 	0.03831651032 	-5.751942444e-06 	-1.91500777e-09
0.4711221554 	0.1061570856 	-1.594504837e-05 	-4.915682272e-09
0.471296547 	0.2121275345 	-3.320811004e-05 	-1.000199158e-08
0.4714709388 	0.3177866882 	-5.290746108e-05 	-1.602901922e-08
0.4716453306 	0.4227209648 	-7.351939242e-05 	-2.28489217e-08
0.4718197225 	0.5260222916 	-9.197280752e-05 	-3.051428085e-08
0.4719941144 	0.6262635769 	-0.0001071666102 	-3.895342758e-08
0.4721685065 	0.7218075122 	-0.0001221361777 	-4.798239713e-08
0.4723428986 	0.8112941033 	-0.0001399145714 	-5.746050168e-08
0.4725172908 	0.8939688962 	-0.0001589207592 	-6.740866336e-08
0.4726916831 	0.9697020185 	-0.0001774230004 	-7.757575492e-08
0.4728660755 	1.038859598 	-0.0001973534484 	-8.794686585e-08
0.4730404679 	1.102131099 	-0.0002159503322 	-9.875135004e-08
0.4732148605 	1.160240285 	-0.000230080728 	-1.096281622e-07
0.4733892531 	1.213753639 	-0.0002435508262 	-1.204993571e-07
0.4735636458 	1.263133132 	-0.000257782854 	-1.314365298e-07
0.4737380385 	1.308802099 	-0.000271444541 	-1.423101493e-07
0.4739124314 	1.351146184 	-0.0002845783933 	-1.531100625e-07
0.4740868243 	1.390511839 	-0.0002972684053 	-1.637955354e-07
0.4742612173 	1.427207436 	-0.0003095639201 	-1.743467008e-07
0.4744356104 	1.461505958 	-0.000321497905 	-1.847525814e-07
0.4746100035 	1.493648429 	-0.0003331008825 	-1.950093501e-07
0.4747843968 	1.523847191 	-0.0003444007664 	-2.051186544e-07
0.4749587901 	1.552289063 	-0.000355422493 	-2.150861071e-07
0.4751331835 	1.579138616 	-0.0003661882207 	-2.249198676e-07
0.475307577 	1.604541163 	-0.0003767177009 	-2.346294198e-07
0.4754819705 	1.628625323 	-0.0003870289034 	-2.442245542e-07
0.4756563641 	1.651505276 	-0.0003971384452 	-2.537146539e-07
0.4758307578 	1.673282853 	-0.0004070561884 	-2.631086403e-07
0.4760051516 	1.69404962 	-0.0004167728845 	-2.724149533e-07
0.4761795455 	1.71657457 	-0.0004276393376 	-2.828041195e-07
0.4764505135 	1.743191978 	-0.0004410181188 	-2.958609461e-07
0.4767265746 	1.771020597 	-0.0004555715187 	-3.101078027e-07
0.4770078244 	1.797629079 	-0.000470009843 	-3.244553788e-07
0.4772943605 	1.823122861 	-0.0004843893111 	-3.389088835e-07
0.4775862823 	1.847597165 	-0.0004987275498 	-3.534745266e-07
0.477883691 	1.871137378 	-0.000513031855 	-3.681596909e-07
0.4781866897 	1.893819939 	-0.000527309407 	-3.829719371e-07
0.4784953834 	1.915713338 	-0.0005415669552 	-3.979186909e-07
0.4788098793 	1.936879053 	-0.000555810343 	-4.130070062e-07
0.4791302864 	1.957372401 	-0.0005700446124 	-4.282433219e-07
0.4794567158 	1.977243272 	-0.0005842741588 	-4.436333254e-07
0.4797892807 	1.996536771 	-0.0005985028419 	-4.591819693e-07
0.4801280965 	2.015293771 	-0.0006127340699 	-4.748936002e-07
0.4804732805 	2.033551393 	-0.0006269708808 	-4.907720576e-07
0.4808249525 	2.051343421 	-0.000641216013 	-5.068207445e-07
0.4811832346 	2.068700664 	-0.0006554719125 	-5.230427288e-07
0.4815482508 	2.085651267 	-0.0006697398929 	-5.394402726e-07
0.4819201278 	2.102223031 	-0.0006840242875 	-5.560188091e-07
0.4822991814 	2.118442748 	-0.0006983318045 	-5.728037825e-07
0.4826854948 	2.134331059 	-0.000712662505 	-5.897996608e-07
0.4830790692 	2.149904354 	-0.0007270133711 	-6.069949438e-07
0.4834800412 	2.165179644 	-0.0007413845498 	-6.24391459e-07
0.4838885498 	2.180173892 	-0.0007557771163 	-6.419926064e-07
0.4843047367 	2.194902753 	-0.000770191704 	-6.598018202e-07
0.4847287461 	2.209380694 	-0.0007846287379 	-6.778224235e-07
0.4851607251 	2.223621095 	-0.0007990884479 	-6.960576542e-07
0.4856008235 	2.237636349 	-0.0008135708598 	-7.145106813e-07
0.486049194 	2.251437946 	-0.0008280757905 	-7.331846099e-07
0.486505992 	2.265036551 	-0.0008426028442 	-7.520824806e-07
0.4869713759 	2.278442076 	-0.0008571514057 	-7.71207275e-07
0.4874455071 	2.291663744 	-0.000871720632 	-7.905619292e-07
0.4879285501 	2.304710146 	-0.0008863094419 	-8.101493558e-07
0.4884206723 	2.317589296 	-0.0009009165053 	-8.299724651e-07
0.4889220444 	2.330308681 	-0.0009155402318 	-8.500341817e-07
0.4894328402 	2.3428753 	-0.000930178761 	-8.70337446e-07
0.489953237 	2.35529571 	-0.0009448299538 	-8.908852047e-07
0.4904834151 	2.367576063 	-0.0009594913893 	-9.116803986e-07
0.4910235584 	2.379722133 	-0.0009741603734 	-9.327259716e-07
0.4915738543 	2.391739355 	-0.0009888339361 	-9.540249203e-07
0.4921344935 	2.403632851 	-0.001003508476 	-9.755800976e-07
0.4927056705 	2.415408064 	-0.001018180755 	-9.973957383e-07
0.4932877038 	2.427071783 	-0.001032851361 	-1.019496708e-06
0.493881014 	2.438629197 	-0.001047517672 	-1.041916079e-06
0.494485476 	2.450082024 	-0.001062170747 	-1.064609561e-06
0.4951012995 	2.461432545 	-0.001076803745 	-1.08757683e-06
0.4957286979 	2.472684481 	-0.001091411527 	-1.110820237e-06
0.4963678888 	2.48384138 	-0.001105988392 	-1.134342005e-06
0.4970190939 	2.494906629 	-0.001120528229 	-1.158144177e-06
0.4976825391 	2.505883471 	-0.00113502452 	-1.182228716e-06
0.4983584543 	2.516775017 	-0.001149470311 	-1.206597613e-06
0.499047074 	2.527584266 	-0.001163858194 	-1.231252973e-06
0.499748637 	2.538314128 	-0.001178180298 	-1.256197034e-06
0.5004633866 	2.548967448 	-0.001192428292 	-1.281432143e-06
0.5011915706 	2.559547041 	-0.001206593416 	-1.306960678e-06
0.5019334415 	2.570055735 	-0.00122066652 	-1.332784977e-06
0.5026892566 	2.580496422 	-0.001234637852 	-1.358907114e-06
0.5034592781 	2.590872421 	-0.001248497058 	-1.385329385e-06
0.5042438613 	2.601188784 	-0.00126223841 	-1.412074072e-06
0.5050436692 	2.611450172 	-0.001275856652 	-1.439202026e-06
0.5058585101 	2.62295685 	-0.001291044936 	-1.468866966e-06
0.5071094171 	2.636870537 	-0.001309245312 	-1.508322212e-06
0.5083742844 	2.651723967 	-0.001328438009 	-1.549997719e-06
0.5096532679 	2.666232333 	-0.001346892853 	-1.591674635e-06
0.5109465251 	2.6804126 	-0.001364587018 	-1.633345447e-06
0.5122542152 	2.69428125 	-0.001381501414 	-1.675003114e-06
0.5135764994 	2.707853904 	-0.001397617006 	-1.71664042e-06
0.5149135406 	2.721147058 	-0.001412921453 	-1.758262122e-06
0.5162662944 	2.734176121 	-0.00142740032 	-1.799993058e-06
0.5176342307 	2.746951461 	-0.001441030734 	-1.841710458e-06
0.5190174329 	2.759482231 	-0.001453792034 	-1.883385537e-06
0.5204160715 	2.771778534 	-0.001465665687 	-1.925016814e-06
0.5218303186 	2.783849814 	-0.001476633536 	-1.966615225e-06
0.5232603485 	2.795704839 	-0.001486675012 	-2.008177124e-06
0.5247063373 	2.807352219 	-0.001495768485 	-2.049702816e-06
0.5261686128 	2.818801748 	-0.001503895146 	-2.091222899e-06
0.5276479262 	2.830062676 	-0.00151103135 	-2.132818118e-06
0.5291437481 	2.841142013 	-0.001517146889 	-2.17435578e-06
0.5306562627 	2.852048151 	-0.001522212057 	-2.215833642e-06
0.5321856561 	2.862792091 	-0.001526193626 	-2.257253392e-06
0.5337321168 	2.87338625 	-0.001529054082 	-2.298617976e-06
0.5352958352 	2.883844444 	-0.001530751068 	-2.339930029e-06
0.5368770803 	2.894182323 	-0.001531243569 	-2.381209979e-06
0.5384767466 	2.904414321 	-0.001530490975 	-2.422557522e-06
0.5400942639 	2.914548682 	-0.001528460691 	-2.463820088e-06
0.5417298313 	2.924585985 	-0.001525146355 	-2.504971069e-06
0.5433836504 	2.934514429 	-0.001520584418 	-2.545951724e-06
0.5450559248 	2.944302776 	-0.001514877259 	-2.586652562e-06
0.5467468603 	2.953896962 	-0.001508204151 	-2.626903669e-06
0.5484571216 	2.963219371 	-0.001500808952 	-2.666532901e-06
0.5501868379 	2.972171352 	-0.001492970073 	-2.705198348e-06
0.551935856 	2.980644126 	-0.001484964084 	-2.742502554e-06
0.5537043912 	2.988537463 	-0.001477013898 	-2.778112596e-06
0.5554926614 	2.995781431 	-0.001469223153 	-2.811900618e-06
0.5573008867 	3.002358593 	-0.001461125362 	-2.84394923e-06
0.5591296733 	3.00832265 	-0.001453855046 	-2.874357167e-06
0.560979278 	3.013812184 	-0.001447517993 	-2.903871006e-06
0.5628495219 	3.018986064 	-0.001439919894 	-2.933033378e-06
0.5647406352 	3.023925639 	-0.001432078117 	-2.96157812e-06
0.5666528508 	3.028648584 	-0.001424827171 	-2.989866312e-06
0.5685864042 	3.033160395 	-0.001417330764 	-3.018023543e-06
0.570542153 	3.03746501 	-0.001409658839 	-3.045778446e-06
0.572519863 	3.041565388 	-0.00140185634 	-3.07298869e-06
0.5745196412 	3.045464653 	-0.001393933111 	-3.099580216e-06
0.5765417339 	3.049166561 	-0.001385896559 	-3.125508565e-06
0.5785863901 	3.052675369 	-0.00137775825 	-3.150740678e-06
0.580654223 	3.055995727 	-0.001369532386 	-3.175296271e-06
0.5827454845 	3.059132244 	-0.001361234376 	-3.199116228e-06
0.584860081 	3.062089584 	-0.001352881095 	-3.222129296e-06
0.5869982727 	3.064872856 	-0.001344489157 	-3.244322709e-06
0.5891603231 	3.067487586 	-0.001336074374 	-3.26568613e-06
0.5913468362 	3.069939445 	-0.001327651674 	-3.286247695e-06
0.5935580815 	3.072233873 	-0.001319234762 	-3.305956121e-06
0.5957940003 	3.074376084 	-0.001310836771 	-3.32475392e-06
0.5980548679 	3.076371316 	-0.001302469148 	-3.342634784e-06
0.6003409626 	3.078224866 	-0.001294142159 	-3.359593861e-06
0.6026530526 	3.079941901 	-0.001285864749 	-3.375666961e-06
0.6049910812 	3.081527241 	-0.001277644849 	-3.390766986e-06
0.6073551978 	3.082985545 	-0.001269489943 	-3.404872938e-06
0.6097456934 	3.08432143 	-0.001261406164 	-3.417982984e-06
0.6121630337 	3.085539407 	-0.001253398653 	-3.430112205e-06
0.6146077555 	3.086643737 	-0.00124547161 	-3.441239243e-06
0.6170797555 	3.087638403 	-0.001237628936 	-3.451302426e-06
0.6195793382 	3.088527239 	-0.001229873772 	-3.460302646e-06
0.6221068308 	3.089313961 	-0.001222208553 	-3.468243351e-06
0.6246630389 	3.090002058 	-0.001214634983 	-3.475138694e-06
0.6272477691 	3.090594737 	-0.001207154636 	-3.480906098e-06
0.6298613396 	3.091095025 	-0.001199768947 	-3.485548939e-06
0.6325040724 	3.091505793 	-0.001192478916 	-3.489071027e-06
0.6351767681 	3.091829695 	-0.001185285122 	-3.491484862e-06
0.637879297 	3.092069147 	-0.001178188316 	-3.49271323e-06
0.6406119808 	3.092226386 	-0.001171189254 	-3.492761553e-06
0.6433751986 	3.092303466 	-0.001164289419 	-3.491636458e-06
0.6461696471 	3.092302265 	-0.001157489175 	-3.489333643e-06
0.6489952759 	3.092224449 	-0.001150789178 	-3.48579188e-06
0.651852433 	3.09207149 	-0.001144191879 	-3.481017862e-06
0.6547416225 	3.091844699 	-0.001137698823 	-3.475032178e-06
0.6576632951 	3.091545217 	-0.001131312035 	-3.467788563e-06
0.6606175679 	3.091174034 	-0.001125034445 	-3.459264885e-06
0.6636048046 	3.090731971 	-0.001118869571 	-3.44947387e-06
0.6666256648 	3.090219679 	-0.001112821062 	-3.438420204e-06
0.669680296 	3.089637683 	-0.001106893244 	-3.426048189e-06
0.6727690111 	3.088986368 	-0.001101091598 	-3.412368468e-06
0.6758923155 	3.088265954 	-0.001095421893 	-3.397399027e-06
0.6790506612 	3.087476534 	-0.001089890397 	-3.381097971e-06
0.6822442482 	3.086618095 	-0.001084504625 	-3.363458125e-06
0.6854734979 	3.085690473 	-0.001079272748 	-3.344502294e-06
0.6887390312 	3.084693368 	-0.001074203331 	-3.324212824e-06
0.6920410019 	3.083626401 	-0.001069306031 	-3.302565009e-06
0.6953798168 	3.08248906 	-0.001064591455 	-3.27958545e-06
0.698756113 	3.08128069 	-0.001060070508 	-3.255274034e-06
0.7021701015 	3.080000569 	-0.00105575496 	-3.229598935e-06
0.7056221843 	3.078647852 	-0.00105165759 	-3.20259053e-06
0.7091129689 	3.07722156 	-0.001047791315 	-3.174255619e-06
0.7126427354 	3.075720641 	-0.001044169649 	-3.14456547e-06
0.7162118886 	3.074143929 	-0.001040806871 	-3.113554253e-06
0.7198210316 	3.072490123 	-0.001037717061 	-3.081229012e-06
0.723470467 	3.07075785 	-0.001034914542 	-3.047569243e-06
0.7271606282 	3.068945618 	-0.001032413804 	-3.012615136e-06
0.7308921198 	3.067051796 	-0.001030228705 	-2.976366423e-06
0.7346652493 	3.065080039 	-0.001028377131 	-2.938895912e-06
0.7384384104 	3.06304659 	-0.001026880008 	-2.900607965e-06
0.7421700295 	3.060969616 	-0.001025744634 	-2.861882073e-06
0.7458604665 	3.05885643 	-0.001024961979 	-2.822865033e-06
0.7495102185 	3.056708801 	-0.001024517682 	-2.783645302e-06
0.7531197524 	3.054528318 	-0.001024396411 	-2.744256649e-06
0.756689452 	3.052316425 	-0.001024582953 	-2.704773711e-06
0.7602197968 	3.050074405 	-0.001025061993 	-2.665275295e-06
0.7637112218 	3.047803412 	-0.001025818645 	-2.625796345e-06
0.7671641163 	3.045504488 	-0.001026839556 	-2.586413158e-06
0.7705789354 	3.043178547 	-0.001028112631 	-2.547203885e-06
0.7739561018 	3.040826406 	-0.001029628184 	-2.50821046e-06
0.7772959987 	3.038448802 	-0.001031386026 	-2.469514259e-06
0.7805990549 	3.036046315 	-0.001033425932 	-2.431209622e-06
0.7838656901 	3.03361914 	-0.001035649253 	-2.393262754e-06
0.7870962757 	3.03116541 	-0.001038004858 	-2.355961521e-06
0.7902912146 	3.028667554 	-0.001040681752 	-2.319169663e-06
0.7934509267 	3.026074025 	-0.001043364545 	-2.28216617e-06
0.7965757693 	3.023312512 	-0.001045420548 	-2.24476713e-06
0.7996661275 	3.020325294 	-0.001046780677 	-2.206785941e-06
0.802722403 	3.017084245 	-0.001047510118 	-2.168173913e-06
0.8057449565 	3.01358826 	-0.001047553947 	-2.12926394e-06
0.8087341544 	3.009858661 	-0.001046958248 	-2.09037092e-06
0.811690371 	3.00593198 	-0.001045758007 	-2.051765593e-06
0.8146139778 	3.001851502 	-0.001043966737 	-2.013621936e-06
0.8175053211 	2.997659623 	-0.001041585441 	-1.976046912e-06
0.8203647569 	2.993392487 	-0.001038614847 	-1.939087095e-06
0.8231926472 	2.989077348 	-0.001035063836 	-1.902737973e-06
0.8259893348 	2.984732243 	-0.001030952911 	-1.866960325e-06
0.8287551595 	2.980367105 	-0.001026313048 	-1.831724688e-06
0.831490462 	2.975985545 	-0.001021181581 	-1.797004725e-06
0.8341955884 	2.971586741 	-0.001015597584 	-1.762771789e-06
0.8368708632 	2.967167096 	-0.001009598045 	-1.729002289e-06
0.8395166151 	2.962721515 	-0.001003215118 	-1.695691357e-06
0.8421331699 	2.958244305 	-0.0009964744754 	-1.662839028e-06
0.8447208566 	2.953729756 	-0.0009893949679 	-1.630440372e-06
0.8472799872 	2.94917247 	-0.0009819892897 	-1.598492196e-06
0.8498108765 	2.944567488 	-0.0009742650591 	-1.567000481e-06
0.8523138363 	2.939910306 	-0.0009662260762 	-1.535970679e-06
0.8547891789 	2.935196821 	-0.0009578737086 	-1.505402163e-06
0.8572372056 	2.930423259 	-0.0009492083122 	-1.475290578e-06
0.8596582172 	2.925586081 	-0.0009402303676 	-1.445638686e-06
0.8620525118 	2.920681899 	-0.0009309412981 	-1.416448228e-06
0.8644203861 	2.915707424 	-0.0009213440606 	-1.387718191e-06
0.8667621311 	2.910659424 	-0.0009114436287 	-1.359440774e-06
0.8690780339 	2.905534711 	-0.0009012472757 	-1.331614648e-06
0.8713683797 	2.900330124 	-0.0008907645885 	-1.304238858e-06
0.8736334505 	2.895042542 	-0.0008800074059 	-1.277311817e-06
0.8758735272 	2.889668895 	-0.0008689896962 	-1.250827018e-06
0.8780888836 	2.88420618 	-0.000857727451 	-1.224778407e-06
0.8802797925 	2.878651481 	-0.0008462384475 	-1.199163323e-06
0.8824465238 	2.873001974 	-0.0008345419957 	-1.173978614e-06
0.8845893445 	2.867254944 	-0.0008226586575 	-1.14922036e-06
0.8867085191 	2.861407789 	-0.0008106100061 	-1.124880085e-06
0.8888043077 	2.855458024 	-0.0007984184139 	-1.100951828e-06
0.8908769682 	2.849403281 	-0.0007861067421 	-1.077430843e-06
0.892926756 	2.8432413 	-0.0007736980909 	-1.054311938e-06
0.8949539235 	2.836969923 	-0.0007612155166 	-1.031589339e-06
0.8969587209 	2.830587083 	-0.0007486817985 	-1.009253854e-06
0.8989413945 	2.824090798 	-0.0007361192498 	-9.872979973e-07
0.9009021883 	2.817479151 	-0.0007235494655 	-9.657153264e-07
0.9028413438 	2.81075028 	-0.0007109931334 	-9.444990965e-07
0.9047590998 	2.803902365 	-0.0006984698597 	-9.236422953e-07
0.9066556928 	2.796933612 	-0.0006859980066 	-9.031362418e-07
0.9085313561 	2.789842244 	-0.000673594608 	-8.829716522e-07
0.9103863205 	2.782626486 	-0.0006612752701 	-8.631411222e-07
0.9122208145 	2.775284556 	-0.0006490540807 	-8.436371485e-07
0.914035064 	2.767814648 	-0.0006369435946 	-8.244521811e-07
0.9158292924 	2.760214924 	-0.0006249547944 	-8.055785695e-07
0.9176037208 	2.752483503 	-0.0006130971118 	-7.870071119e-07
0.9193585675 	2.744618446 	-0.0006013784808 	-7.687297382e-07
0.9210940486 	2.736617747 	-0.0005898053558 	-7.507391359e-07
0.9228103778 	2.728479316 	-0.0005783827699 	-7.330281071e-07
0.9245077665 	2.72020096 	-0.0005671144158 	-7.155896557e-07
0.9261864236 	2.711780373 	-0.0005560027072 	-6.984170045e-07
0.9278465561 	2.703215108 	-0.000545048879 	-6.815026165e-07
0.9294883681 	2.69450256 	-0.0005342531038 	-6.648398779e-07
0.9311120619 	2.685639936 	-0.0005236145688 	-6.484229359e-07
0.9327178375 	2.67662423 	-0.0005131315674 	-6.322461626e-07
0.9343058925 	2.667452193 	-0.0005028015888 	-6.163041978e-07
0.9358764224 	2.658120292 	-0.0004926213946 	-6.005919843e-07
0.9374296209 	2.648624681 	-0.0004825870809 	-5.851044798e-07
0.9389656789 	2.638961153 	-0.0004726941695 	-5.698365036e-07
0.9404847858 	2.629125104 	-0.000462937677 	-5.547838556e-07
0.9419871286 	2.619111479 	-0.0004533121636 	-5.399425691e-07
0.9434728922 	2.608914731 	-0.0004438118015 	-5.253088505e-07
0.9449422596 	2.598528761 	-0.0004344304306 	-5.108790748e-07
0.9463954118 	2.58794687 	-0.0004251616089 	-4.966497837e-07
0.9478325277 	2.577161696 	-0.0004159986577 	-4.826174841e-07
0.9492537843 	2.566165159 	-0.0004069347297 	-4.687785621e-07
0.9506593566 	2.554948394 	-0.0003979628608 	-4.551299135e-07
0.9520494176 	2.543501691 	-0.0003890760088 	-4.416684525e-07
0.9534241385 	2.53181443 	-0.0003802671052 	-4.283910596e-07
0.9547836887 	2.519875021 	-0.000371529094 	-4.152945893e-07
0.9561282354 	2.50767085 	-0.000362854973 	-4.023759098e-07
0.9574579444 	2.495188238 	-0.0003542378247 	-3.896319288e-07
0.9587729793 	2.482412423 	-0.0003456708357 	-3.770593513e-07
0.9600735021 	2.469327579 	-0.0003371473368 	-3.64654882e-07
0.9613596729 	2.455916889 	-0.000328661463 	-3.524151682e-07
0.9626316501 	2.442162699 	-0.0003202092215 	-3.403375162e-07
0.9638895903 	2.429256589 	-0.0003124934263 	-3.293113473e-07
0.9647090145 	2.418565408 	-0.0003062516012 	-3.206865385e-07
0.9655133219 	2.409014019 	-0.0003007876229 	-3.131011669e-07
0.9663027912 	2.399393809 	-0.0002953909343 	-3.056651029e-07
0.9670776964 	2.389701316 	-0.0002900577354 	-2.983737091e-07
0.9678383059 	2.379933602 	-0.0002847856409 	-2.912232691e-07
0.9685848837 	2.37008808 	-0.0002795727206 	-2.842100174e-07
0.9693176884 	2.360162367 	-0.0002744171559 	-2.773302173e-07
0.9700369743 	2.350154187 	-0.0002693172143 	-2.705802145e-07
0.9707429906 	2.340061287 	-0.0002642712335 	-2.639564356e-07
0.9714359823 	2.329881387 	-0.0002592775982 	-2.574553992e-07
0.9721161895 	2.319612134 	-0.0002543347222 	-2.510737257e-07
0.9727838481 	2.309251071 	-0.0002494410406 	-2.448081452e-07
0.9734391897 	2.298795617 	-0.0002445950073 	-2.386555026e-07
0.9740824414 	2.28824305 	-0.0002397950969 	-2.326127618e-07
0.9747138263 	2.277590484 	-0.0002350398104 	-2.266770062e-07
0.9753335633 	2.266834867 	-0.0002303276821 	-2.208454389e-07
0.9759418673 	2.255972956 	-0.0002256572876 	-2.151153801e-07
0.9765389492 	2.245001316 	-0.0002210272515 	-2.094842627e-07
0.977125016 	2.233916297 	-0.0002164362545 	-2.03949626e-07
0.977700271 	2.222714021 	-0.0002118830389 	-1.985091081e-07
0.9782649135 	2.21139037 	-0.0002073664113 	-1.931604361e-07
0.9788191394 	2.199940961 	-0.000202885245 	-1.879014069e-07
0.9793631409 	2.188361126 	-0.0001984384795 	-1.827299001e-07
0.9798971065 	2.176645891 	-0.0001940251176 	-1.776438721e-07
0.9804212214 	2.164789948 	-0.000189644222 	-1.72641352e-07
0.9809356674 	2.152787625 	-0.0001852949119 	-1.677204484e-07
0.9814406227 	2.140632854 	-0.0001809763588 	-1.628793579e-07
0.9819362625 	2.128319136 	-0.000176687784 	-1.581163738e-07
0.9824227587 	2.115839502 	-0.0001724284575 	-1.534298905e-07
0.9829002799 	2.10318647 	-0.000168197698 	-1.488184021e-07
0.9833689917 	2.090351995 	-0.0001639948745 	-1.442804933e-07
0.9838290566 	2.077327425 	-0.000159819409 	-1.398148235e-07
0.9842806342 	2.064103436 	-0.0001556707787 	-1.354201082e-07
0.9847238809 	2.050669978 	-0.0001515485191 	-1.310951025e-07
0.9851589505 	2.037016201 	-0.0001474522247 	-1.26838589e-07
0.9855859939 	2.023130386 	-0.0001433815507 	-1.22649375e-07
0.9860051591 	2.008999859 	-0.0001393362126 	-1.185262977e-07
0.9864165915 	1.994610904 	-0.0001353159865 	-1.144682356e-07
0.9868204336 	1.979948657 	-0.0001313207092 	-1.104741248e-07
0.9872168256 	1.964997 	-0.0001273502791 	-1.065429744e-07
0.9876059049 	1.949738431 	-0.0001234046579 	-1.0267388e-07
0.9879878064 	1.934153926 	-0.0001194838735 	-9.886603278e-08
0.9883626624 	1.918222782 	-0.000115588024 	-9.511872497e-08
0.9887306031 	1.901922439 	-0.0001117172819 	-9.14313487e-08
0.9890917559 	1.885228277 	-0.0001078718994 	-8.780338829e-08
0.989446246 	1.868113391 	-0.000104052214 	-8.423441037e-08
0.9897941965 	1.850548329 	-0.0001002586534 	-8.072404737e-08
0.9901357279 	1.832500794 	-9.649173975e-05 	-7.727198123e-08
0.9904709586 	1.813935305 	-9.275209328e-05 	-7.387792959e-08
0.9908000049 	1.794812803 	-8.904043391e-05 	-7.054163655e-08
0.991122981 	1.775090203 	-8.535758125e-05 	-6.726286952e-08
0.9914399986 	1.754719869 	-8.170445223e-05 	-6.404142286e-08
0.9917511679 	1.733649017 	-7.808206387e-05 	-6.087712826e-08
0.9920565967 	1.711819024 	-7.449156427e-05 	-5.776987078e-08
0.9923563908 	1.68916464 	-7.093419422e-05 	-5.471960977e-08
0.9926506543 	1.665613115 	-6.741063918e-05 	-5.172640349e-08
0.9929394891 	1.641083261 	-6.392059746e-05 	-4.879042596e-08
0.9932229954 	1.615484606 	-6.047358533e-05 	-4.591198186e-08
0.9935012716 	1.588716935 	-5.711761212e-05 	-4.309148442e-08
0.993774414 	1.563119672 	-5.408224565e-05 	-4.056008689e-08
0.9939502075 	1.541461952 	-5.157919044e-05 	-3.854715052e-08
0.994126001 	1.521498212 	-4.937105204e-05 	-3.678110947e-08
0.9943017945 	1.500568309 	-4.718281435e-05 	-3.502030048e-08
0.9944775881 	1.47858658 	-4.49920996e-05 	-3.326560846e-08
0.9946533816 	1.455458088 	-4.279539372e-05 	-3.151810118e-08
0.9948291751 	1.431076834 	-4.059471822e-05 	-2.97789689e-08
0.9950049687 	1.405324022 	-3.839163358e-05 	-2.804955185e-08
0.9951807622 	1.378066204 	-3.618756312e-05 	-2.633137102e-08
0.9953565558 	1.349153077 	-3.398431107e-05 	-2.462614978e-08
0.9955323493 	1.3184153 	-3.178409456e-05 	-2.293584403e-08
0.9957081429 	1.285662646 	-2.958934517e-05 	-2.126269261e-08
0.9958839365 	1.250681873 	-2.74025734e-05 	-1.960927035e-08
0.9960597301 	1.213234445 	-2.523494895e-05 	-1.797860206e-08
0.9962355236 	1.17305495 	-2.312245383e-05 	-1.6374198e-08
0.9964113172 	1.129850595 	-2.107786641e-05 	-1.479973048e-08
0.9965871108 	1.083302311 	-1.826909486e-05 	-1.325480555e-08
0.9967629044 	1.033064173 	-1.514257362e-05 	-1.176296062e-08
0.996938698 	0.9787213185 	-1.459260404e-05 	-1.03206012e-08
0.9971144916 	0.91973669 	-1.520077858e-05 	-8.903206378e-09
0.9972902852 	0.8555561896 	-1.402347383e-05 	-7.55599532e-09
0.9974660788 	0.7858181613 	-1.284277797e-05 	-6.293155204e-09
0.9976418724 	0.7104723339 	-1.153995762e-05 	-5.101372362e-09
0.9978176661 	0.6298724126 	-8.023693421e-06 	-3.996335995e-09
0.9979934597 	0.5448444223 	-3.177464233e-06 	-2.990171443e-09
0.9981692533 	0.4565786439 	3.236521117e-07 	-2.106885351e-09
0.998345047 	0.3663318837 	1.091476146e-06 	-1.369298112e-09
0.9985208406 	0.2751046458 	3.769689494e-07 	-7.861058198e-10
0.9986966343 	0.1834954707 	-1.496191031e-07 	-3.599790172e-10
0.9988724279 	0.09176691988 	-1.191733871e-07 	-9.225470092e-11
0.9990482216 	0.03841934116 	-3.766173167e-09 	1.82775034e-12
