3.60871192e-38 	0.03470917521 	-1.404736265e-15 	5.768820409e-19 	-2.265429261e-15 	-9.891077762e-17 	-4.318537815e-18
0.0003187685652 	0.03471529042 	-0.0002231512785 	-1.532817233e-08 	0.03870013532 	-3.144044218e-07 	7.377321407e-05
0.0006375366988 	0.03472352847 	-0.0004149294505 	-2.008650516e-08 	0.03888781808 	-2.970955462e-07 	7.413098956e-05
0.0009563044003 	0.03473034553 	-0.0005335371798 	-2.267038956e-08 	0.03890716131 	-2.846083571e-07 	7.416786315e-05
0.001275071669 	0.03474068551 	-0.0006586462934 	-2.548585586e-08 	0.03893170923 	-2.720453794e-07 	7.42146583e-05
0.001593838505 	0.03475334129 	-0.0007882123354 	-2.827691292e-08 	0.03893426914 	-2.602315642e-07 	7.42195382e-05
0.001912604907 	0.03476868999 	-0.0009206225524 	-3.088418348e-08 	0.03893675608 	-2.484663674e-07 	7.4224279e-05
0.002231370875 	0.03478669247 	-0.001054732458 	-3.321035206e-08 	0.0389387223 	-2.36744303e-07 	7.422802716e-05
0.002550136408 	0.03480733251 	-0.001189884205 	-3.52029593e-08 	0.03894062615 	-2.25039922e-07 	7.423165642e-05
0.002868901507 	0.03483058108 	-0.001325640874 	-3.682963407e-08 	0.03894246034 	-2.133448361e-07 	7.423515291e-05
0.003187666171 	0.0348564087 	-0.001461703392 	-3.807019254e-08 	0.03894435216 	-2.016463625e-07 	7.423875925e-05
0.003506430399 	0.03488478157 	-0.001597852845 	-3.891162362e-08 	0.03894637034 	-1.899336675e-07 	7.424260646e-05
0.003825194192 	0.03491566192 	-0.001733922868 	-3.934556178e-08 	0.03894856337 	-1.78196918e-07 	7.424678698e-05
0.004143957549 	0.03494900816 	-0.001869781829 	-3.936693726e-08 	0.03895096658 	-1.664266263e-07 	7.425136815e-05
0.00446272047 	0.03498477537 	-0.002005322369 	-3.897309194e-08 	0.03895361013 	-1.546129644e-07 	7.425640751e-05
0.004781482955 	0.03502291648 	-0.002140454742 	-3.816311059e-08 	0.03895652269 	-1.427463558e-07 	7.426195966e-05
0.005100245004 	0.03506338221 	-0.002275102208 	-3.693747419e-08 	0.03895973191 	-1.308176447e-07 	7.426807732e-05
0.005419006617 	0.03510612056 	-0.002409198062 	-3.529779915e-08 	0.03896326425 	-1.188178034e-07 	7.427481094e-05
0.005737767794 	0.0351510772 	-0.002542683583 	-3.324664649e-08 	0.03896714557 	-1.067379176e-07 	7.428220981e-05
0.006056528535 	0.03519819576 	-0.002675506579 	-3.078738445e-08 	0.03897140146 	-9.456918105e-08 	7.429032273e-05
0.006375288839 	0.03524741815 	-0.002807620332 	-2.792408483e-08 	0.03897605743 	-8.230289522e-08 	7.429919829e-05
0.006694048708 	0.03529868486 	-0.002938982834 	-2.466144249e-08 	0.03898113888 	-6.993047205e-08 	7.430888496e-05
0.007012808141 	0.03535193522 	-0.003069556196 	-2.100471094e-08 	0.03898667112 	-5.744343751e-08 	7.431943095e-05
0.007331567139 	0.03540710774 	-0.003199306197 	-1.695964974e-08 	0.03899267943 	-4.483343118e-08 	7.433088445e-05
0.007650325701 	0.03546414044 	-0.003328201979 	-1.253248192e-08 	0.03899918974 	-3.209220705e-08 	7.43432949e-05
0.007969083828 	0.03552297133 	-0.003456215999 	-7.729857096e-09 	0.03900622714 	-1.9211674e-08 	7.435671015e-05
0.008287841521 	0.03558353888 	-0.003583323774 	-2.558808681e-09 	0.03901380186 	-6.183910358e-09 	7.437114967e-05
0.008437852995 	0.03561283144 	-0.003642703452 	2.366197274e-07 	0.03901760728 	-3.067163127e-05 	7.437840386e-05
0.008606598778 	0.03564578327 	-0.003709495079 	-3.041278282e-09 	0.03902189163 	-7.117134041e-09 	7.438657103e-05
0.008925355602 	0.03570966039 	-0.003834779374 	-9.060226362e-09 	0.0390306176 	-2.068946136e-08 	7.440320514e-05
0.009244111993 	0.03577404362 	-0.003955163713 	-1.539936648e-08 	0.03904044092 	-3.443092354e-08 	7.442193113e-05
0.00956286795 	0.03583947386 	-0.004055608478 	-2.17629311e-08 	0.03905459262 	-4.835428538e-08 	7.444890819e-05
0.0100581404 	0.0359082012 	-0.004128727768 	-3.105032421e-08 	0.03907632786 	-7.012707683e-08 	7.44903416e-05
0.01056272042 	0.03597932591 	-0.004189435748 	-3.988312583e-08 	0.03910298808 	-9.264322513e-08 	7.45411634e-05
0.01107678291 	0.0360519831 	-0.004251142801 	-4.846196527e-08 	0.0391313622 	-1.159281477e-07 	7.459525235e-05
0.01160050605 	0.03612677231 	-0.004315726263 	-5.681979227e-08 	0.03916120478 	-1.400352485e-07 	7.465214061e-05
0.01213407137 	0.03620370557 	-0.004382936606 	-6.495001263e-08 	0.03919257695 	-1.650143497e-07 	7.471194469e-05
0.01267766381 	0.03628281093 	-0.004452601783 	-7.284286184e-08 	0.03922562128 	-1.909138201e-07 	7.477493635e-05
0.0132314718 	0.03636412239 	-0.004524578693 	-8.048522737e-08 	0.03926044285 	-2.177858633e-07 	7.484131596e-05
0.01379568728 	0.03644768048 	-0.004598753158 	-8.78613313e-08 	0.03929713853 	-2.45685804e-07 	7.491126811e-05
0.01437050582 	0.03653353167 	-0.004675034988 	-9.495303774e-08 	0.03933580493 	-2.746716995e-07 	7.498497701e-05
0.01495612667 	0.03662172795 	-0.004753354125 	-1.017400999e-07 	0.03937653876 	-3.048042598e-07 	7.506262702e-05
0.01555275281 	0.03671232657 	-0.004833657535 	-1.082003639e-07 	0.03941943612 	-3.36146825e-07 	7.514440132e-05
0.01616059102 	0.03680538964 	-0.004915906682 	-1.143099382e-07 	0.03946459235 	-3.687652737e-07 	7.523048164e-05
0.016779852 	0.03690098383 	-0.005000075378 	-1.200433264e-07 	0.03951210193 	-4.027278863e-07 	7.53210481e-05
0.01741075039 	0.03699917998 	-0.005086148041 	-1.253735387e-07 	0.03956205851 	-4.381051581e-07 	7.541627922e-05
0.01805350486 	0.03710005272 	-0.005174118002 	-1.302721534e-07 	0.03961455356 	-4.74969663e-07 	7.551634938e-05
0.0187083382 	0.03720367983 	-0.005263985659 	-1.347094443e-07 	0.03966967872 	-5.133955784e-07 	7.562143326e-05
0.01937547738 	0.03731016042 	-0.005355811501 	-1.386555528e-07 	0.039727522 	-5.534586657e-07 	7.573169863e-05
0.02005515364 	0.03741960922 	-0.005449520462 	-1.420598063e-07 	0.03978823097 	-5.952422407e-07 	7.584742679e-05
0.02074973487 	0.03753219306 	-0.005545055973 	-1.449220116e-07 	0.03985199464 	-6.38891519e-07 	7.596897807e-05
0.02145891096 	0.03764805885 	-0.005642644574 	-1.472124078e-07 	0.03991887741 	-6.845363864e-07 	7.609647522e-05
0.02218141421 	0.03776720027 	-0.005742319842 	-1.488731989e-07 	0.03998887218 	-7.322404366e-07 	7.62299047e-05
0.02291749506 	0.037889638 	-0.005844022136 	-1.498734347e-07 	0.04006202587 	-7.821022341e-07 	7.636935597e-05
0.02366740864 	0.03801548282 	-0.00594782299 	-1.50177489e-07 	0.04013841454 	-8.34209409e-07 	7.651497401e-05
0.02443141485 	0.03814482787 	-0.006053754026 	-1.497473524e-07 	0.04021811088 	-8.886313879e-07 	7.666689738e-05
0.02520977851 	0.03827776196 	-0.006161849282 	-1.485392623e-07 	0.04030117734 	-9.454670964e-07 	7.682524515e-05
0.0260027694 	0.03841437547 	-0.006272145389 	-1.465077027e-07 	0.04038767443 	-1.004829221e-06 	7.699013263e-05
0.02681066235 	0.03855476114 	-0.006384680949 	-1.436071079e-07 	0.04047766098 	-1.066814865e-06 	7.7161672e-05
0.02763373738 	0.03869901124 	-0.006499496017 	-1.397898915e-07 	0.04057119082 	-1.131517377e-06 	7.733996587e-05
0.02847227976 	0.03884721733 	-0.00661663202 	-1.350063284e-07 	0.04066831221 	-1.199027923e-06 	7.752510625e-05
0.02932658012 	0.03899947006 	-0.006736131611 	-1.292039019e-07 	0.04076906753 	-1.269435393e-06 	7.77171739e-05
0.03019693454 	0.039155859 	-0.006858038605 	-1.223278835e-07 	0.04087349301 	-1.342825921e-06 	7.791623787e-05
0.03108364468 	0.03931647245 	-0.006982397853 	-1.143211637e-07 	0.04098161843 	-1.419282424e-06 	7.812235498e-05
0.03198701785 	0.03948139734 	-0.007109255145 	-1.051241324e-07 	0.04109346695 	-1.498884164e-06 	7.833556934e-05
0.03290736715 	0.03965071913 	-0.007238657111 	-9.467457846e-08 	0.04120905487 	-1.581706389e-06 	7.855591204e-05
0.03384501154 	0.0398245218 	-0.007370651154 	-8.290760174e-08 	0.04132839144 	-1.667820015e-06 	7.878340072e-05
0.034800276 	0.04000288784 	-0.007505285367 	-6.975552947e-08 	0.04145147879 	-1.757291369e-06 	7.901803942e-05
0.03577349159 	0.04018589823 	-0.0076426085 	-5.514784426e-08 	0.04157831181 	-1.850181966e-06 	7.925981841e-05
0.0367649956 	0.04037363257 	-0.007782669824 	-3.901111094e-08 	0.04170887764 	-1.946548374e-06 	7.950871317e-05
0.03777513166 	0.04056616896 	-0.007925518925 	-2.12689367e-08 	0.0418431561 	-2.046442101e-06 	7.976468522e-05
0.03880424984 	0.04076359256 	-0.008071223597 	-1.841982584e-09 	0.04198112047 	-2.149909279e-06 	8.002768366e-05
0.0398527068 	0.04096602983 	-0.008219848774 	1.936609195e-08 	0.04212278576 	-2.257005702e-06 	8.029773708e-05
0.0409222433 	0.04117373477 	-0.008371469774 	4.186555774e-08 	0.04226830742 	-2.333650391e-06 	8.057514181e-05
0.04201573524 	0.04138699046 	-0.008526384898 	6.244343169e-08 	0.0424177101 	-2.293679275e-06 	8.085994485e-05
0.04312977606 	0.04160566771 	-0.008684548011 	8.199566921e-08 	0.04257075531 	-2.250213757e-06 	8.115169155e-05
0.04426475185 	0.04182960261 	-0.008845765551 	1.004119509e-07 	0.04272726333 	-2.203085797e-06 	8.145003933e-05
0.04542105599 	0.04205890139 	-0.009010158074 	1.17613053e-07 	0.04288715642 	-2.152176047e-06 	8.175484e-05
0.04659908922 	0.04229363483 	-0.009177775769 	1.33516232e-07 	0.04305036052 	-2.097372567e-06 	8.206595237e-05
0.04779925982 	0.0425338733 	-0.009348668322 	1.480350092e-07 	0.04321679261 	-2.038570718e-06 	8.23832182e-05
0.04902198374 	0.04277968685 	-0.00952288536 	1.610790041e-07 	0.04338636494 	-1.975673421e-06 	8.270647019e-05
0.05026768475 	0.04303114529 	-0.009700475871 	1.725539243e-07 	0.04355898335 	-1.908591248e-06 	8.303552887e-05
0.05153679457 	0.04328831851 	-0.009881488172 	1.823615544e-07 	0.0437345477 	-1.837242435e-06 	8.337020331e-05
0.05282975304 	0.04355127665 	-0.0100659697 	1.90399776e-07 	0.0439129519 	-1.761552848e-06 	8.371029129e-05
0.05414700825 	0.0438200905 	-0.01025396683 	1.96562612e-07 	0.044094084 	-1.681455912e-06 	8.405557942e-05
0.05548901673 	0.04409483195 	-0.01044552467 	2.007402886e-07 	0.04427782606 	-1.596892507e-06 	8.440584285e-05
0.05685624356 	0.04437557455 	-0.01064068667 	2.028193344e-07 	0.0444640531 	-1.50781094e-06 	8.476084336e-05
0.05824916257 	0.04466240048 	-0.0108395053 	2.026829594e-07 	0.04465263341 	-1.41416709e-06 	8.512032983e-05
0.0596682565 	0.04495544412 	-0.0110420593 	2.002152949e-07 	0.04484345771 	-1.315928863e-06 	8.548409398e-05
0.0611150311 	0.04525501883 	-0.01124844287 	1.952892588e-07 	0.04503664379 	-1.212941602e-06 	8.585236034e-05
0.06259447225 	0.04556126586 	-0.01145855701 	1.877103865e-07 	0.04523228743 	-1.104600151e-06 	8.622531151e-05
0.0641017149 	0.04591312651 	-0.01169767467 	1.791368e-07 	0.04545548307 	-9.930040722e-07 	8.665078443e-05
0.0664155543 	0.04635101783 	-0.0119917692 	1.574069899e-07 	0.04573066559 	-8.133727169e-07 	8.717535879e-05
0.0687552027 	0.04683432936 	-0.01231408857 	1.304119971e-07 	0.04602912719 	-6.279635161e-07 	8.774430956e-05
0.07112094796 	0.04732506259 	-0.01264013908 	9.656907867e-08 	0.04632517315 	-4.358213825e-07 	8.830865544e-05
0.07351308118 	0.04782318592 	-0.01296999997 	5.583833969e-08 	0.04661845766 	-2.373610721e-07 	8.886773724e-05
0.07593189667 	0.04832839032 	-0.01330338926 	8.201739454e-09 	0.0469087701 	-3.297912892e-08 	8.942115344e-05
0.076319773 	0.04840956778 	-0.01335677029 	6.446247322e-07 	0.04695429975 	-8.507315594e-06 	8.95079456e-05
0.07837769205 	0.0488403901 	-0.01364007119 	4.710108274e-08 	0.04719595934 	-1.791843686e-07 	8.996861594e-05
0.08085076825 	0.04935911779 	-0.01397987396 	1.095338547e-07 	0.04748005022 	-3.96894352e-07 	9.051017212e-05
0.08336052852 	0.04988478088 	-0.01432297496 	1.792555265e-07 	0.04776105528 	-6.20384663e-07 	9.104584587e-05
0.0858992737 	0.05041654082 	-0.01466887851 	2.559506428e-07 	0.04803843716 	-8.482240849e-07 	9.157461283e-05
0.0884663388 	0.05095325066 	-0.01501675472 	3.39503107e-07 	0.04831167893 	-1.079931789e-06 	9.209548758e-05
0.09106203972 	0.05149434051 	-0.01536629526 	4.298180165e-07 	0.04858045352 	-1.315152645e-06 	9.260784664e-05
0.0936866959 	0.05203920968 	-0.01571716602 	5.267777482e-07 	0.04884445342 	-1.553535064e-06 	9.311110384e-05
0.09634063034 	0.05258720832 	-0.01606901902 	6.302393219e-07 	0.04910334593 	-1.794726299e-06 	9.360462491e-05
0.09902416965 	0.05313770888 	-0.01642152904 	7.400377005e-07 	0.04935681393 	-2.038373521e-06 	9.408780537e-05
0.1017393693 	0.0536903876 	-0.0167745435 	8.560860784e-07 	0.04960471556 	-2.284307259e-06 	9.456037478e-05
0.1044931515 	0.05424485805 	-0.01712799709 	9.784194313e-07 	0.04984674172 	-2.532682045e-06 	9.50217439e-05
0.1072776549 	0.05479971138 	-0.01748114276 	1.106391624e-06 	0.05008218606 	-2.782169951e-06 	9.547056625e-05
0.1100932221 	0.05535350749 	-0.01783315936 	1.239653429e-06 	0.050310427 	-3.032341373e-06 	9.590565692e-05
0.1129401996 	0.05590527334 	-0.01818363166 	1.377865657e-06 	0.05053095184 	-3.282761518e-06 	9.632603856e-05
0.115818938 	0.0564539345 	-0.01853207861 	1.520652196e-06 	0.05074323432 	-3.532975927e-06 	9.673070796e-05
0.1187297916 	0.05699838454 	-0.01887801293 	1.489299911e-06 	0.05094671982 	-3.378073484e-06 	9.711860788e-05
0.1216740008 	0.05753777711 	-0.01922109267 	1.41521258e-06 	0.05114098506 	-3.13722654e-06 	9.748893142e-05
0.1246600133 	0.05807125818 	-0.01956108819 	1.333792541e-06 	0.05132547114 	-2.892494221e-06 	9.784061317e-05
0.1276793401 	0.05859696705 	-0.01989711364 	1.245851185e-06 	0.05149929364 	-2.645655032e-06 	9.817196716e-05
0.130732353 	0.05911297372 	-0.02022818222 	1.15166044e-06 	0.05166163404 	-2.397115687e-06 	9.848143309e-05
0.1338194279 	0.05961777925 	-0.02055367981 	1.051572382e-06 	0.05181173413 	-2.147309887e-06 	9.876756557e-05
0.1369409448 	0.06010977706 	-0.02087292461 	9.459685726e-07 	0.05194880963 	-1.896695916e-06 	9.902886958e-05
0.1400972879 	0.06058742176 	-0.0211852614 	8.352705289e-07 	0.0520720983 	-1.645760361e-06 	9.926389205e-05
0.1432941265 	0.06104928278 	-0.02149017579 	7.196391139e-07 	0.05218079582 	-1.394433281e-06 	9.947109974e-05
0.1465309181 	0.06149342612 	-0.02178686153 	5.997141293e-07 	0.05227393145 	-1.143623108e-06 	9.964864214e-05
0.1498038247 	0.06191747833 	-0.02207416916 	4.762499034e-07 	0.05235045727 	-8.944188413e-07 	9.979452162e-05
0.1531132491 	0.06231921913 	-0.02235099745 	3.496460669e-07 	0.05240919304 	-6.474380171e-07 	9.990648832e-05
0.1564595988 	0.06269605762 	-0.02261565719 	2.206253449e-07 	0.05244892253 	-4.043804712e-07 	9.998222377e-05
0.1598432858 	0.0630435843 	-0.02286501335 	8.989973396e-08 	0.05247236626 	-1.659355295e-07 	0.000100026914
0.1622451615 	0.06325538238 	-0.02302517547 	3.380637651e-06 	0.05248282327 	-1.424863836e-05 	0.000100046848
0.1632691727 	0.06334562051 	-0.02309348961 	3.967216765e-08 	0.05248731504 	-7.218705108e-08 	0.0001000554106
0.166738053 	0.06355861755 	-0.02332988173 	1.758604042e-07 	0.0525122565 	-3.162507835e-07 	0.0001001029559
0.1702456402 	0.06369926076 	-0.02356602232 	3.05002933e-07 	0.05253898423 	-5.543347101e-07 	0.0001001539064
0.1737923664 	0.06381363659 	-0.02377538846 	4.359294857e-07 	0.05254391139 	-7.850016066e-07 	0.0001001632989
0.1773786681 	0.06390009531 	-0.02397105649 	5.644515227e-07 	0.05252326972 	-1.006456141e-06 	0.0001001239502
0.1810049869 	0.06395710052 	-0.02415193378 	6.902397529e-07 	0.05247491421 	-1.219184648e-06 	0.0001000317711
0.1846789635 	0.06398304629 	-0.02431739616 	8.122461142e-07 	0.05239842229 	-1.421904081e-06 	9.988595628e-05
0.1883955412 	0.06397617286 	-0.02446617406 	9.291119469e-07 	0.05229259759 	-1.61266466e-06 	9.968422498e-05
0.1921535922 	0.06393472619 	-0.02459695091 	1.039669649e-06 	0.05215627894 	-1.79011394e-06 	9.942436375e-05
0.1959535793 	0.063856936 	-0.02470858462 	1.142785374e-06 	0.05198829409 	-1.953017918e-06 	9.910413794e-05
0.1997959703 	0.06374095514 	-0.02479989611 	1.237287964e-06 	0.05178742531 	-2.100108309e-06 	9.872122621e-05
0.2036854422 	0.06358480881 	-0.02486974518 	1.322114396e-06 	0.05155235849 	-2.23028896e-06 	9.827312352e-05
0.207622447 	0.06338652942 	-0.02491692806 	1.395939812e-06 	0.05128189338 	-2.342048288e-06 	9.775754184e-05
0.211603387 	0.06314428165 	-0.02494016524 	1.457490231e-06 	0.05097505021 	-2.433976898e-06 	9.717261348e-05
0.2156287526 	0.06285624109 	-0.02493828978 	1.505748322e-06 	0.05063086866 	-2.505013982e-06 	9.651650779e-05
0.2196990393 	0.06252049335 	-0.02491017429 	1.402314887e-06 	0.05024831492 	-2.326107377e-06 	9.578725403e-05
0.2238186833 	0.06213503309 	-0.02485475121 	1.24053644e-06 	0.04982629697 	-2.053538122e-06 	9.498277053e-05
0.2279881991 	0.06169808273 	-0.02477104055 	1.084662815e-06 	0.04936400685 	-1.793399605e-06 	9.410151708e-05
0.232204247 	0.06120824581 	-0.02465817764 	9.361419514e-07 	0.04886103663 	-1.547319121e-06 	9.314271604e-05
0.236467346 	0.06066424364 	-0.02451547823 	7.961745469e-07 	0.04831706239 	-1.316521273e-06 	9.210574995e-05
0.2407780212 	0.06006473779 	-0.02434233384 	6.658055484e-07 	0.04773167721 	-1.10209098e-06 	9.098984309e-05
0.2451424756 	0.05940848787 	-0.02413829904 	5.458854092e-07 	0.04710454469 	-9.048239255e-07 	8.979435421e-05
0.2495572744 	0.0586950329 	-0.02390329636 	4.375007082e-07 	0.04643601834 	-7.259798148e-07 	8.851995717e-05
0.2540213442 	0.0579244653 	-0.02363754801 	3.412810403e-07 	0.04572686972 	-5.663456389e-07 	8.716812281e-05
0.2585352349 	0.0570970384 	-0.0233414834 	2.575032847e-07 	0.04497790428 	-4.263754494e-07 	8.574038651e-05
0.2631015014 	0.05621316783 	-0.02301569745 	1.86143855e-07 	0.04418996246 	-3.062308837e-07 	8.423835042e-05
0.2677235003 	0.05527391449 	-0.02266114699 	1.269687428e-07 	0.04336433035 	-2.059492099e-07 	8.266446613e-05
0.2723970843 	0.05428180718 	-0.02227928484 	7.943964186e-08 	0.04250339264 	-1.256427215e-07 	8.102327957e-05
0.2771228288 	0.05324027749 	-0.02187171546 	4.258988809e-08 	0.04161009034 	-6.459125673e-08 	7.932039711e-05
0.2819015435 	0.05215233431 	-0.0214400409 	1.530945193e-08 	0.04068686177 	-2.150357517e-08 	7.756046685e-05
0.2856242117 	0.05128164199 	-0.02109077439 	8.137721031e-06 	0.03995509888 	-1.632760119e-05 	7.61655234e-05
0.2867395923 	0.05102069847 	-0.02098610586 	3.621945967e-09 	0.03973580211 	-4.363485693e-09 	7.574748282e-05
0.2916316387 	0.04984944169 	-0.02051222651 	1.541571843e-08 	0.03875999851 	-1.348566463e-08 	7.388732994e-05
0.2965782851 	0.04864329748 	-0.02002072602 	2.205976932e-08 	0.03776290525 	-7.846888041e-09 	7.198659307e-05
0.3015801405 	0.04740684172 	-0.0195136672 	2.495635544e-08 	0.03674770629 	1.106253006e-08 	7.005134168e-05
0.3066433776 	0.0461448742 	-0.01899299217 	2.530818775e-08 	0.03571766472 	4.173011639e-08 	6.808779616e-05
0.3117632607 	0.04486329358 	-0.01846084751 	2.405153799e-08 	0.03467686336 	8.256481229e-08 	6.610373949e-05
0.3169402875 	0.04356801851 	-0.01791911404 	2.181958369e-08 	0.03362934872 	1.320169123e-07 	6.410688546e-05
0.322175596 	0.04226440384 	-0.0173691781 	1.888462656e-08 	0.0325786964 	1.88634348e-07 	6.210405012e-05
0.3274740002 	0.04095772143 	-0.01681214307 	1.515823613e-08 	0.0315284463 	2.510445646e-07 	6.010198152e-05
0.3328315415 	0.03965384228 	-0.01624913469 	1.030065361e-08 	0.03048267633 	3.177936711e-07 	5.810845331e-05
0.3382488795 	0.03835822538 	-0.01568089317 	3.790118243e-09 	0.02944520876 	3.875192486e-07 	5.613075177e-05
0.3437284601 	0.03707568025 	-0.01510772076 	-5.059665742e-09 	0.02841944596 	4.589262771e-07 	5.417536278e-05
0.3492720762 	0.03581101604 	-0.01452982494 	-1.695464424e-08 	0.02740890812 	5.305869161e-07 	5.224899679e-05
0.3548775666 	0.03456920965 	-0.01394745928 	-3.246805819e-08 	0.02641736675 	6.009798648e-07 	5.035884335e-05
0.3605456212 	0.0333546967 	-0.01336065554 	-5.199012745e-08 	0.02544827267 	6.686192164e-07 	4.851148069e-05
0.3662803549 	0.03217149717 	-0.01276933543 	-7.562979202e-08 	0.02450484408 	7.3197714e-07 	4.671304358e-05
0.3720798471 	0.03102393043 	-0.01217372067 	-1.031423906e-07 	0.02359062111 	7.893365941e-07 	4.497028051e-05
0.3779440693 	0.02991610754 	-0.01157416221 	-1.340322381e-07 	0.02270906277 	8.391645057e-07 	4.32897853e-05
0.3838752086 	0.0288516957 	-0.01097101512 	-1.634559674e-07 	0.0218631613 	8.600521653e-07 	4.167726198e-05
0.3898747874 	0.02783431982 	-0.01036471581 	-1.791554434e-07 	0.02105558362 	8.081845341e-07 	4.013779447e-05
0.3959413294 	0.02686767941 	-0.009751464027 	-1.794899615e-07 	0.02029068762 	7.511878425e-07 	3.867969011e-05
0.4020759105 	0.02594239697 	-0.009121419138 	-1.991938777e-07 	0.01957841555 	7.01524318e-07 	3.732190158e-05
0.4082819033 	0.02499331809 	-0.008515811053 	-2.099187393e-07 	0.01894695843 	6.471614244e-07 	3.611816879e-05
0.4145571631 	0.02400811244 	-0.007928930713 	-1.899327612e-07 	0.01839778935 	5.775253916e-07 	3.50712999e-05
0.4209024622 	0.02304243103 	-0.00732425485 	-1.757421695e-07 	0.01790758761 	5.070783039e-07 	3.413683915e-05
0.4273212302 	0.02211786061 	-0.006720836786 	-1.592516169e-07 	0.01747011762 	4.39925872e-07 	3.330289975e-05
0.4338118585 	0.02124787666 	-0.006122726776 	-1.406783665e-07 	0.01708274834 	3.78044653e-07 	3.256446625e-05
0.4403749295 	0.02044272911 	-0.005531621794 	-1.210189307e-07 	0.01674498981 	3.216360999e-07 	3.19206046e-05
0.4470133871 	0.0197105093 	-0.004948039236 	-1.013698201e-07 	0.01645524459 	2.71055711e-07 	3.136826969e-05
0.4537262956 	0.01905757773 	-0.004372366567 	-8.258063076e-08 	0.01621121446 	2.266287928e-07 	3.090308044e-05
0.460514127 	0.01848797896 	-0.003804568457 	-6.539091731e-08 	0.01600960122 	1.884283612e-07 	3.051874956e-05
0.4673796373 	0.01800362823 	-0.003244941088 	-4.963071978e-08 	0.01584571884 	1.565762059e-07 	3.02063442e-05
0.4743220061 	0.01760655062 	-0.002694287205 	-3.574510316e-08 	0.01571621938 	1.291405687e-07 	2.995948224e-05
0.4813419013 	0.01729983709 	-0.002151622262 	-2.466239037e-08 	0.01562247431 	1.04333559e-07 	2.978077808e-05
0.4884419439 	0.01708525647 	-0.001615580396 	-1.567010875e-08 	0.01556634784 	8.347802341e-08 	2.967378542e-05
0.4956212291 	0.01696163083 	-0.001087440897 	-8.436435919e-09 	0.01554605317 	6.714680728e-08 	2.963509814e-05
0.5028008937 	0.01692458445 	-0.0005714253589 	-3.177520821e-09 	0.01555790032 	5.452737757e-08 	2.96576821e-05
0.5099024955 	0.01696597516 	-7.115669135e-05 	3.960044503e-10 	0.01559738255 	4.486045258e-08 	2.973294621e-05
0.5169257377 	0.01707595537 	0.0004131357539 	2.607570322e-09 	0.01565993892 	3.736980309e-08 	2.985219604e-05
0.5238719808 	0.01724506692 	0.0008824828373 	3.760540553e-09 	0.01574177851 	3.142883145e-08 	3.000820504e-05
0.5307422839 	0.01746466602 	0.001337625255 	4.132774373e-09 	0.01583973907 	2.657258181e-08 	3.01949451e-05
0.5375367778 	0.01772693481 	0.001779112645 	3.964246133e-09 	0.01595114468 	2.243683716e-08 	3.040731515e-05
0.5442567658 	0.01802489111 	0.002207524016 	3.453214481e-09 	0.01607384197 	1.874962475e-08 	3.064121028e-05
0.5509030776 	0.01835230683 	0.00262334541 	2.76334373e-09 	0.01620607334 	1.53338608e-08 	3.089328003e-05
0.5574760505 	0.01870363496 	0.00302696409 	2.018911194e-09 	0.01634640391 	1.205271947e-08 	3.116078909e-05
0.5639768449 	0.01907399047 	0.003418755787 	1.310788136e-09 	0.01649366764 	8.812541475e-09 	3.14415147e-05
0.5704062841 	0.01945905945 	0.003799029133 	7.037739921e-10 	0.01664691687 	5.571585089e-09 	3.173365032e-05
0.5767647764 	0.01985503883 	0.004168029281 	2.346547391e-10 	0.0168053816 	2.295445116e-09 	3.203572814e-05
0.5811455924 	0.02013619808 	0.004417414191 	4.095097971e-06 	0.01691897332 	-2.633220272e-07 	3.225226553e-05
0.5830533074 	0.02025863511 	0.004526014043 	9.440539886e-11 	0.01696843815 	1.042686132e-09 	3.234655925e-05
0.5892728019 	0.02066698838 	0.004873210419 	2.931908124e-10 	0.01713558321 	4.444151811e-09 	3.266518419e-05
0.5954236652 	0.02107761427 	0.005209804434 	3.434517772e-10 	0.01730640989 	7.889298154e-09 	3.299082731e-05
0.6015067106 	0.02148841635 	0.005536004936 	2.709534367e-10 	0.01748059151 	1.137256013e-08 	3.332286591e-05
0.6075229967 	0.02189763419 	0.005852020037 	1.080066137e-10 	0.01765786943 	1.486851577e-08 	3.366080688e-05
0.6134728931 	0.0223037817 	0.006158029191 	-1.075114864e-10 	0.01783803449 	1.835579212e-08 	3.400425155e-05
0.6193571321 	0.02270565999 	0.006454230446 	-3.350031145e-10 	0.01802092325 	2.182432475e-08 	3.435288837e-05
0.6251766857 	0.02310233582 	0.006740845427 	-5.329101356e-10 	0.01820640893 	2.525690469e-08 	3.470647564e-05
0.630932088 	0.02349308267 	0.007018082353 	-6.593073547e-10 	0.01839439108 	2.862644568e-08 	3.506482186e-05
0.6366239785 	0.02387737633 	0.007286155242 	-6.737297632e-10 	0.01858479446 	3.19254206e-08 	3.542778361e-05
0.6422531291 	0.02425489892 	0.007545313486 	-5.377993085e-10 	0.01877756129 	3.514839575e-08 	3.579525078e-05
0.6478203216 	0.02462549481 	0.0077958118 	-2.1519722e-10 	0.01897264983 	3.827452912e-08 	3.616714375e-05
0.6533260787 	0.02498914604 	0.008037905221 	3.271406962e-10 	0.01917002901 	4.12973572e-08 	3.654340332e-05
0.6587710783 	0.02534597886 	0.008271875993 	1.118659678e-09 	0.01936967771 	4.422034077e-08 	3.692398924e-05
0.6641561061 	0.02569624617 	0.008498031976 	2.184811374e-09 	0.01957158206 	4.704547983e-08 	3.730887506e-05
0.6694817605 	0.02604029195 	0.008716684422 	3.545707907e-09 	0.01977573345 	4.976658513e-08 	3.769804433e-05
0.6747486444 	0.02637853904 	0.008928155659 	5.212905887e-09 	0.01998214264 	5.239260698e-08 	3.809151762e-05
0.6799574061 	0.02671152655 	0.009132905617 	7.146975754e-09 	0.02019092051 	5.491949621e-08 	3.848950628e-05
0.6851087964 	0.02703998048 	0.009331463209 	9.404434451e-09 	0.02040164994 	5.767337099e-08 	3.889121513e-05
0.6902033484 	0.02736531423 	0.009525415944 	1.125489888e-08 	0.02061319382 	6.03813809e-08 	3.929447656e-05
0.6952416799 	0.0276939904 	0.009727841059 	8.27296165e-09 	0.02082469353 	6.396989696e-08 	3.969765379e-05
0.7002244109 	0.02801901007 	0.009937044764 	1.706265426e-08 	0.02104392541 	6.249523807e-08 	4.01155707e-05
0.7051522365 	0.02830837231 	0.01010289764 	2.986402893e-08 	0.02129452552 	5.859826304e-08 	4.059328415e-05
0.7100256822 	0.02857666372 	0.01023189496 	3.002489726e-08 	0.02157616485 	5.926147198e-08 	4.113016698e-05
0.714845347 	0.02886197934 	0.01036608058 	3.073120481e-08 	0.02186943726 	6.145267062e-08 	4.168922571e-05
0.7196118242 	0.0291686633 	0.01050307722 	3.206549195e-08 	0.02216762686 	6.51170308e-08 	4.225765796e-05
0.7243257496 	0.02949554841 	0.01064144045 	3.372548819e-08 	0.02246690516 	6.947993631e-08 	4.282816558e-05
0.7289876612 	0.02983884933 	0.01078069065 	3.568057994e-08 	0.02276611446 	7.436521562e-08 	4.339854167e-05
0.733598126 	0.03019399176 	0.01092030711 	3.781797417e-08 	0.02306443772 	7.948402101e-08 	4.396722873e-05
0.7381577117 	0.0305567589 	0.0110599491 	4.002657479e-08 	0.02336160189 	8.45940798e-08 	4.453370623e-05
0.7426670004 	0.03092382269 	0.01119944063 	4.221860074e-08 	0.02365769227 	8.953100574e-08 	4.509813679e-05
0.7471265425 	0.03129286204 	0.01133872742 	4.433241494e-08 	0.02395298053 	9.41992837e-08 	4.566103828e-05
0.7515368708 	0.03166245143 	0.01147782964 	4.633842037e-08 	0.02424779384 	9.85736594e-08 	4.622303438e-05
0.7558985284 	0.03203185179 	0.01161680222 	4.822716216e-08 	0.02454243222 	1.026664545e-07 	4.678469703e-05
0.7602120532 	0.03240078664 	0.01175570696 	4.999992501e-08 	0.02483712726 	1.065040489e-07 	4.734646769e-05
0.7644779982 	0.03276924801 	0.01189459626 	5.165773992e-08 	0.0251320309 	1.101031025e-07 	4.790863598e-05
0.7686968657 	0.03313734986 	0.01203350593 	5.320156378e-08 	0.02542722259 	1.134724896e-07 	4.847135338e-05
0.7728691753 	0.03350523236 	0.01217245422 	5.463348223e-08 	0.02572272534 	1.166181892e-07 	4.903466377e-05
0.7769954407 	0.03387300621 	0.01231144332 	5.595249513e-08 	0.02601852147 	1.195365841e-07 	4.959853339e-05
0.781076174 	0.03424072567 	0.01245046117 	5.715433278e-08 	0.0263145639 	1.22215855e-07 	5.016287255e-05
0.7851118841 	0.03460838033 	0.01258948296 	5.822741294e-08 	0.02661078305 	1.246285002e-07 	5.072754858e-05
0.7891030575 	0.03497589666 	0.01272847217 	5.91609037e-08 	0.02690708997 	1.267491886e-07 	5.129239192e-05
0.7930501855 	0.03534314435 	0.01286738099 	5.994413267e-08 	0.027203377 	1.285537254e-07 	5.185719734e-05
0.7969537543 	0.03570994285 	0.01300615023 	6.056504871e-08 	0.02749951642 	1.30015732e-07 	5.242172139e-05
0.8008142465 	0.0360760658 	0.01314470842 	6.101028555e-08 	0.0277953574 	1.311066132e-07 	5.298567653e-05
0.804632142 	0.03644124344 	0.01328297062 	6.126161898e-08 	0.02809072225 	1.317877347e-07 	5.354872402e-05
0.8084079044 	0.03680516253 	0.01342083712 	6.130235497e-08 	0.0283854028 	1.32023956e-07 	5.411046705e-05
0.8121419985 	0.03716746524 	0.01355819212 	6.111684041e-08 	0.02867915722 	1.317824531e-07 	5.467044462e-05
0.8158348843 	0.03752774677 	0.0136949025 	6.068887753e-08 	0.02897170693 	1.310292262e-07 	5.522812568e-05
0.8194870164 	0.03788555215 	0.01383081643 	6.000185774e-08 	0.02926273369 	1.297293396e-07 	5.578290357e-05
0.823098849 	0.03824037281 	0.01396576213 	5.90370635e-08 	0.02955187673 	1.278432219e-07 	5.633409058e-05
0.8266708229 	0.03859164311 	0.01409954658 	5.777521756e-08 	0.02983873023 	1.253299842e-07 	5.688091306e-05
0.8302033774 	0.03893873753 	0.01423195472 	5.620000305e-08 	0.03012284144 	1.221550252e-07 	5.7422508e-05
0.8336969477 	0.0392809686 	0.01436274853 	5.429566021e-08 	0.03040370898 	1.182847892e-07 	5.79579196e-05
0.8371519639 	0.03961758558 	0.01449166643 	5.204721746e-08 	0.03068078143 	1.136871857e-07 	5.848609669e-05
0.8405688521 	0.03994777439 	0.01461842285 	4.944071726e-08 	0.03095345625 	1.083319668e-07 	5.900589069e-05
0.8439480343 	0.04027065877 	0.01474270802 	4.646191511e-08 	0.03122107919 	1.021877582e-07 	5.951605438e-05
0.8472899247 	0.04058530268 	0.01486418825 	4.310009217e-08 	0.03148294452 	9.523035137e-08 	6.001524248e-05
0.8505949349 	0.04089071393 	0.01498250672 	3.934798924e-08 	0.03173829645 	8.744267248e-08 	6.050201424e-05
0.853863472 	0.04118584826 	0.01509728466 	3.52015237e-08 	0.03198633163 	7.881440328e-08 	6.097483823e-05
0.8570959383 	0.04146961346 	0.01520812333 	3.066030767e-08 	0.0322262033 	6.934347307e-08 	6.14321003e-05
0.8602927321 	0.04174087283 	0.0153146064 	2.5728013e-08 	0.03245702691 	5.903722314e-08 	6.187211425e-05