0.4709558481 	3.074294688e-06 	-2.3221132e-08 	3.989761616e-13 	3.068201283e-06 	-3.761103874e-11 	5.848844407e-09
0.4711314108 	3.454392479e-05 	-1.016554645e-06 	1.743985207e-11 	3.443505349e-05 	-4.2198635e-10 	6.564278268e-08
0.4713069734 	0.0001931313273 	-1.310405248e-05 	2.231122798e-10 	0.0001914456267 	-2.340867793e-09 	3.64948574e-07
0.471482536 	0.0006470385616 	-7.885683872e-05 	1.314107918e-09 	0.0006315251484 	-7.661567755e-09 	1.203862456e-06
0.4716580986 	0.00160942097 	-0.0002965479941 	4.733265538e-09 	0.001524812466 	-1.815607905e-08 	2.906716361e-06
0.4718336613 	0.00328618837 	-0.0007989869383 	1.190992789e-08 	0.002986033433 	-3.437080093e-08 	5.692209648e-06
0.4720092239 	0.005770990456 	-0.001672243281 	2.276450433e-08 	0.00501400083 	-5.491496013e-08 	9.558079152e-06
0.4721847865 	0.008947621638 	-0.002884297889 	3.535709738e-08 	0.007479910286 	-7.698381368e-08 	1.425878794e-05
0.4723603491 	0.01252476278 	-0.004302855351 	4.731676165e-08 	0.0101805777 	-9.778462464e-08 	1.940701065e-05
0.4725359118 	0.01618167022 	-0.005775226886 	5.725341133e-08 	0.0129157038 	-1.156420713e-07 	2.462092119e-05
0.4727114744 	0.01968480016 	-0.007191762004 	6.502500425e-08 	0.0155367309 	-1.300398531e-07 	2.96173273e-05
0.472887037 	0.02288386335 	-0.008439173333 	6.893289986e-08 	0.01798075424 	-1.420585835e-07 	3.427631508e-05
0.4730625996 	0.02575073762 	-0.009503470334 	7.141351172e-08 	0.02022437806 	-1.519402605e-07 	3.855328565e-05
0.4732381623 	0.02832845053 	-0.01045461842 	7.49251203e-08 	0.02224842421 	-1.594042089e-07 	4.241168017e-05
0.4734137249 	0.03063186072 	-0.01130471637 	7.763369161e-08 	0.02405740521 	-1.651581148e-07 	4.586010074e-05
0.4735892875 	0.03267963097 	-0.01206026208 	7.968762409e-08 	0.02566514238 	-1.695175482e-07 	4.892489464e-05
0.4737648501 	0.03449526403 	-0.01273008377 	8.123775386e-08 	0.02709041395 	-1.728029689e-07 	5.164185839e-05
0.4739404128 	0.03610357186 	-0.01332339467 	8.238531399e-08 	0.02835279534 	-1.752278283e-07 	5.404830816e-05
0.4741159754 	0.03752860311 	-0.01384910253 	8.321436946e-08 	0.02947116994 	-1.769669965e-07 	5.618024099e-05
0.474291538 	0.03879258171 	-0.01431538934 	8.377659418e-08 	0.03046298988 	-1.781569272e-07 	5.807092547e-05
0.4744671006 	0.03991546923 	-0.01472943902 	8.41272528e-08 	0.03134393783 	-1.789030464e-07 	5.975025709e-05
0.4746426632 	0.04091487929 	-0.01509779119 	8.43152598e-08 	0.03212785249 	-1.792860403e-07 	6.124461632e-05
0.4748182259 	0.04180617256 	-0.01542627887 	8.436159442e-08 	0.03282680211 	-1.793680967e-07 	6.257700857e-05
0.4749937885 	0.04260265802 	-0.01571978879 	8.428944539e-08 	0.03345124317 	-1.791980027e-07 	6.376736678e-05
0.4751693511 	0.04331583764 	-0.01598255358 	8.411698666e-08 	0.03401021266 	-1.788141846e-07 	6.483291799e-05
0.4753449137 	0.04395564192 	-0.01621823244 	8.385860819e-08 	0.03451151334 	-1.782471624e-07 	6.578853641e-05
0.4755204764 	0.0445306486 	-0.01642998871 	8.352583683e-08 	0.03496188571 	-1.775214321e-07 	6.664707131e-05
0.475696039 	0.04504827881 	-0.0166205587 	8.31280123e-08 	0.03536715778 	-1.766568697e-07 	6.741963252e-05
0.4758716016 	0.04551496856 	-0.0167923091 	8.267277935e-08 	0.03573236905 	-1.75669766e-07 	6.81158267e-05
0.4760471642 	0.04593631689 	-0.01694731718 	8.216651145e-08 	0.03606194245 	-1.745737289e-07 	6.874408522e-05
0.4762227269 	0.04636729658 	-0.01710583454 	8.153503111e-08 	0.03639893496 	-1.732083296e-07 	6.938648659e-05
0.4764955107 	0.04684100915 	-0.01727997011 	8.067000243e-08 	0.03676906491 	-1.713399442e-07 	7.009205715e-05
0.4767734216 	0.04729465446 	-0.01744656124 	7.961835011e-08 	0.03712307209 	-1.690704815e-07 	7.076689323e-05
0.4770565557 	0.04768831429 	-0.01759097337 	7.84603239e-08 	0.03742985483 	-1.665732634e-07 	7.13517064e-05
0.4773450114 	0.04802860194 	-0.01771566778 	7.719952501e-08 	0.03769465209 	-1.638559908e-07 	7.185648357e-05
0.4776388886 	0.04832121344 	-0.01782273463 	7.583813107e-08 	0.03792191237 	-1.609233191e-07 	7.228970483e-05
0.4779382892 	0.04857103508 	-0.01791397536 	7.437720114e-08 	0.03811546953 	-1.577775121e-07 	7.265867857e-05
0.4782433171 	0.04878225866 	-0.017990938 	7.28168964e-08 	0.03827861815 	-1.544189178e-07 	7.296968518e-05
0.4785540779 	0.04895848681 	-0.0180549528 	7.115664785e-08 	0.03841418922 	-1.508463286e-07 	7.322812132e-05
0.4788706795 	0.04910282331 	-0.01810716562 	6.939529208e-08 	0.03852462132 	-1.470572712e-07 	7.34386356e-05
0.4791932316 	0.04921794893 	-0.01814856618 	6.753117075e-08 	0.03861202074 	-1.430482195e-07 	7.360524319e-05
0.4795218461 	0.04930618458 	-0.01818001138 	6.556220075e-08 	0.03867821106 	-1.388147436e-07 	7.373142033e-05
0.4798566368 	0.0493695437 	-0.01820224462 	6.348592236e-08 	0.03872477433 	-1.343516133e-07 	7.382018287e-05
0.48019772 	0.04940977587 	-0.01821591191 	6.129953095e-08 	0.03875308532 	-1.296528647e-07 	7.387415149e-05
0.4805452138 	0.04942840315 	-0.01822157526 	5.899989651e-08 	0.03876434008 	-1.247118429e-07 	7.389560618e-05
0.4808992388 	0.04942675051 	-0.01821972394 	5.658357417e-08 	0.03875957979 	-1.195212236e-07 	7.388653175e-05
0.4812599177 	0.04940597136 	-0.0182107839 	5.404680803e-08 	0.03873971089 	-1.140730219e-07 	7.38486561e-05
0.4816273755 	0.04936706906 	-0.01819512567 	5.13855301e-08 	0.03870552191 	-1.0835859e-07 	7.378348239e-05
0.4820017397 	0.04931091514 	-0.01817307115 	4.859535573e-08 	0.03865769781 	-1.023686079e-07 	7.369231639e-05
0.48238314 	0.04923826468 	-0.01814489923 	4.567157645e-08 	0.03859683213 	-9.609306857e-08 	7.357628947e-05
0.4827717088 	0.0491497695 	-0.01811085072 	4.260915112e-08 	0.03852343724 	-8.952125923e-08 	7.343637841e-05
0.4831675807 	0.04904598935 	-0.0180711324 	3.940269589e-08 	0.03843795322 	-8.264174111e-08 	7.327342211e-05
0.4835708931 	0.04892740149 	-0.01802592066 	3.604647369e-08 	0.03834075538 	-7.544232749e-08 	7.308813601e-05
0.4839817856 	0.04879440892 	-0.01797536447 	3.253438358e-08 	0.03823216076 	-6.791006212e-08 	7.288112449e-05
0.4844004009 	0.04864734749 	-0.01791958803 	2.885995061e-08 	0.03811243369 	-6.003119862e-08 	7.265289142e-05
0.4848268841 	0.04848649197 	-0.01785869306 	2.501631656e-08 	0.03798179062 	-5.179118215e-08 	7.240384941e-05
0.485261383 	0.04831206135 	-0.01779276068 	2.099623224e-08 	0.03784040427 	-4.317463431e-08 	7.213432773e-05
0.4857040484 	0.04812422338 	-0.01772185318 	1.679205186e-08 	0.03768840728 	-3.416534288e-08 	7.184457922e-05
0.4861550336 	0.04792309856 	-0.01764601547 	1.239573019e-08 	0.03752589534 	-2.474625752e-08 	7.15347863e-05
0.4866144951 	0.04770876362 	-0.01756527635 	7.798823268e-09 	0.03735292996 	-1.489949328e-08 	7.120506621e-05
0.4870825921 	0.04748125451 	-0.0174796497 	2.99249346e-09 	0.03716954087 	-4.606343396e-09 	7.085547564e-05
0.487559487 	0.04724056905 	-0.0173891354 	-2.032480206e-09 	0.03697572818 	6.152696405e-09 	7.048601478e-05
0.4880453452 	0.04698666937 	-0.01729372028 	-7.285685463e-09 	0.03677146426 	1.739789036e-08 	7.009663099e-05
0.4885403351 	0.04671948391 	-0.01719337891 	-1.277705295e-08 	0.03655669548 	2.915020955e-08 	6.968722199e-05
0.4890446283 	0.04643890942 	-0.0170880743 	-1.8516824e-08 	0.03633134372 	4.143126091e-08 	6.925763891e-05
0.4895583997 	0.04614481264 	-0.01697775858 	-2.451550901e-08 	0.03609530786 	5.426319649e-08 	6.880768894e-05
0.4900818274 	0.04583703198 	-0.01686237362 	-3.078383529e-08 	0.03584846507 	6.76686004e-08 	6.833713798e-05
0.4906150929 	0.04551537908 	-0.01674185166 	-3.733268339e-08 	0.03559067216 	8.167035185e-08 	6.784571305e-05
0.4911583811 	0.04517964031 	-0.01661611587 	-4.417301091e-08 	0.03532176681 	9.629146201e-08 	6.733310472e-05
0.4917118805 	0.04482957834 	-0.01648508094 	-5.131576296e-08 	0.03504156887 	1.115548835e-07 	6.679896957e-05
0.4922757829 	0.04446493366 	-0.01634865369 	-5.877176873e-08 	0.03474988163 	1.274832908e-07 	6.624293261e-05
0.4928502838 	0.04408542616 	-0.01620673369 	-6.655162361e-08 	0.03444649313 	1.44098831e-07 	6.566458982e-05
0.4934355824 	0.0436907568 	-0.01605921388 	-7.466555742e-08 	0.03413117759 	1.614228439e-07 	6.506351075e-05
0.4940318817 	0.04328060925 	-0.01590598123 	-8.31232908e-08 	0.03380369672 	1.794755562e-07 	6.44392412e-05
0.4946393885 	0.04285465148 	-0.01574691735 	-9.193388486e-08 	0.03346380116 	1.982757561e-07 	6.37913058e-05
0.4952583133 	0.04241253736 	-0.01558189912 	-1.011055946e-07 	0.03311123177 	2.178404699e-07 	6.311921055e-05
0.4958888709 	0.0419539079 	-0.01541079921 	-1.106457442e-07 	0.03274572073 	2.381846783e-07 	6.242244492e-05
0.4965312797 	0.04147839217 	-0.01523348642 	-1.205606536e-07 	0.03236699239 	2.593211333e-07 	6.170048344e-05
0.4971857627 	0.04098560764 	-0.01504982584 	-1.308556546e-07 	0.03197476357 	2.812603666e-07 	6.095278629e-05
0.4978525466 	0.04047515967 	-0.01485967867 	-1.415352374e-07 	0.03156874322 	3.040109891e-07 	6.017879866e-05
0.4985318627 	0.03994664023 	-0.01466290171 	-1.526033563e-07 	0.03114863127 	3.27580357e-07 	5.937794852e-05
0.4992239466 	0.03939962554 	-0.01445934643 	-1.640638701e-07 	0.03071411668 	3.519755788e-07 	5.854964295e-05
0.4999290382 	0.03883367341 	-0.01424885785 	-1.75920995e-07 	0.03026487498 	3.772046055e-07 	5.769326339e-05
0.5006473819 	0.03824832101 	-0.01403127357 	-1.881794738e-07 	0.02980056601 	4.032767641e-07 	5.680816146e-05
0.501379227 	0.0376430853 	-0.01380642369 	-2.00843921e-07 	0.02932083371 	4.30201536e-07 	5.589365836e-05
0.502124827 	0.03701746982 	-0.01357413312 	-2.139164969e-07 	0.02882531061 	4.579837026e-07 	5.494905359e-05
0.5028844406 	0.03637098409 	-0.01333422849 	-2.273916969e-07 	0.02831363217 	4.866122181e-07 	5.397365229e-05
0.5036583311 	0.03570318525 	-0.01308655285 	-2.412467109e-07 	0.02778546747 	5.160395557e-07 	5.296682357e-05
0.5044467669 	0.03501375614 	-0.01283099279 	-2.554254451e-07 	0.02724057588 	5.461477037e-07 	5.192810875e-05
0.5052500214 	0.03430263936 	-0.01256752545 	-2.698166855e-07 	0.02667890583 	5.767022819e-07 	5.085740954e-05
0.506068373 	0.03347556066 	-0.01226127276 	-2.860336243e-07 	0.02602610581 	6.111331235e-07 	4.961299126e-05
0.507324668 	0.03243479817 	-0.01187620034 	-3.049866214e-07 	0.0252054439 	6.513477716e-07 	4.804858157e-05
0.5085949819 	0.03127979659 	-0.01144926515 	-3.228548309e-07 	0.02429574843 	6.892266359e-07 	4.631444916e-05
0.5098794711 	0.03011877128 	-0.0110205446 	-3.354662335e-07 	0.02338237843 	7.159703542e-07 	4.457331209e-05
0.5111782938 	0.0289697604 	-0.01059669832 	-3.414287445e-07 	0.02247944566 	7.286998882e-07 	4.285207128e-05
0.5124916099 	0.02785109062 	-0.01018438241 	-3.411180603e-07 	0.02160106277 	7.282485781e-07 	4.117762934e-05
0.5138195812 	0.02677801252 	-0.009789294248 	-3.344587367e-07 	0.02075931774 	7.144113636e-07 	3.957302937e-05
0.5151623712 	0.02576079589 	-0.009415535562 	-3.233052905e-07 	0.01996296038 	6.907490269e-07 	3.805495091e-05
0.5165201452 	0.0247882544 	-0.009040328436 	-3.74529774e-07 	0.01921978688 	6.496340584e-07 	3.663825566e-05
0.5178930705 	0.02383439212 	-0.008630860989 	-4.120374031e-07 	0.01853171314 	6.198895471e-07 	3.532659587e-05
0.5192813161 	0.02290805185 	-0.008216971725 	-3.911836675e-07 	0.01788306283 	6.082831129e-07 	3.409008809e-05
0.520685053 	0.02202277557 	-0.007824068953 	-3.920098289e-07 	0.01726553265 	5.879966369e-07 	3.291290395e-05
0.522104454 	0.02117198465 	-0.007437705203 	-3.949723233e-07 	0.01668403392 	5.642119743e-07 	3.180440575e-05
0.523539694 	0.02035638992 	-0.007057043681 	-3.966014266e-07 	0.01614002493 	5.35892359e-07 	3.076737341e-05
0.5249909497 	0.01957776111 	-0.006683146616 	-3.968967681e-07 	0.0156349612 	5.047695636e-07 	2.980458156e-05
0.5264583998 	0.01883808985 	-0.006316988739 	-3.95522787e-07 	0.01516925863 	4.710764158e-07 	2.891682302e-05
0.527942225 	0.01813939359 	-0.005959587479 	-3.924238606e-07 	0.01474312525 	4.35186257e-07 	2.810449436e-05
0.5294426081 	0.01748354969 	-0.005611857362 	-3.876144234e-07 	0.01435646794 	3.975686677e-07 	2.736741807e-05
0.5309597337 	0.01687217222 	-0.00527457737 	-3.81167778e-07 	0.01400884853 	3.587502745e-07 	2.670475886e-05
0.5324937889 	0.01630650257 	-0.004948379118 	-3.732140004e-07 	0.01369947474 	3.192735953e-07 	2.611500643e-05
0.5340449624 	0.01578733492 	-0.004633750978 	-3.639053491e-07 	0.01342722052 	2.796689488e-07 	2.559601421e-05
0.5356134452 	0.01531499464 	-0.004331056388 	-3.533908063e-07 	0.01319067632 	2.403929175e-07 	2.514509522e-05
0.5371994306 	0.01488942358 	-0.004040659028 	-3.41477252e-07 	0.0129882344 	2.018234267e-07 	2.475918466e-05
0.5388031139 	0.01451040398 	-0.003763097481 	-3.283112285e-07 	0.01281826348 	1.638973289e-07 	2.443517284e-05
0.5404246925 	0.01417707635 	-0.003497880001 	-3.160552647e-07 	0.01267954425 	1.26229155e-07 	2.417073544e-05
0.5420643661 	0.01388734839 	-0.003243151866 	-3.056170914e-07 	0.01257072528 	8.988585127e-08 	2.396329623e-05
0.5437223366 	0.01363841972 	-0.002997834355 	-2.953112801e-07 	0.01248917958 	5.677130294e-08 	2.380784746e-05
0.5453988083 	0.01342715741 	-0.00276172472 	-2.848936897e-07 	0.01243149913 	2.740620578e-08 	2.369789251e-05
0.5470939875 	0.01325017369 	-0.00253429494 	-2.750297563e-07 	0.01239448162 	1.461262207e-09 	2.362732683e-05
0.5488080831 	0.01310415845 	-0.002314818532 	-2.657886706e-07 	0.01237531 	-2.137793095e-08 	2.35907804e-05
0.5505413061 	0.0129860305 	-0.002102602614 	-2.571688777e-07 	0.01237150613 	-4.141347878e-08 	2.358352918e-05
0.5522938699 	0.01289295349 	-0.001896999393 	-2.49155362e-07 	0.01238089285 	-5.892509717e-08 	2.360142287e-05
0.5540659904 	0.01282233886 	-0.001697409279 	-2.417233928e-07 	0.01240156328 	-7.417974111e-08 	2.364082645e-05
0.5558578859 	0.01277184152 	-0.001503281162 	-2.348432325e-07 	0.01243185411 	-8.742660573e-08 	2.369856919e-05
0.5576697768 	0.01273935046 	-0.001314111028 	-2.284822485e-07 	0.01247031933 	-9.889524245e-08 	2.377189458e-05
0.5595018865 	0.01272297583 	-0.001129439873 	-2.226064152e-07 	0.01251570553 	-1.087948743e-07 	2.38584133e-05
0.5613544406 	0.01272103376 	-0.0009488512049 	-2.171813857e-07 	0.01256692917 	-1.173144579e-07 	2.39560598e-05
0.563227667 	0.01273202966 	-0.0007719683335 	-2.121732477e-07 	0.01262305578 	-1.246235182e-07 	2.406305271e-05
0.5651217966 	0.01275464107 	-0.0005984515681 	-2.075490879e-07 	0.01268328105 	-1.308727258e-07 	2.417785881e-05
0.5670370626 	0.01278770059 	-0.0004279954512 	-2.032770059e-07 	0.01274691442 	-1.362005983e-07 	2.429916171e-05
0.5689737009 	0.01283017932 	-0.0002603257006 	-1.993279363e-07 	0.01281336365 	-1.4070387e-07 	2.44258324e-05
0.5709319499 	0.01288117156 	-9.521503773e-05 	-1.956193245e-07 	0.01288211738 	-1.445165695e-07 	2.455689612e-05
0.5729120508 	0.01293988108 	6.755252977e-05 	-1.921733956e-07 	0.012952743 	-1.477379527e-07 	2.469152819e-05
0.5749142474 	0.01300560325 	0.0002282119378 	-1.890736503e-07 	0.01302487302 	-1.503825952e-07 	2.482902806e-05
0.5769387863 	0.01307771878 	0.0003869423659 	-1.861853463e-07 	0.01309818402 	-1.525664534e-07 	2.496877919e-05
0.5789859169 	0.01315568363 	0.0005438735949 	-1.834359592e-07 	0.01317240584 	-1.543546584e-07 	2.511026661e-05
0.5810558911 	0.01323901377 	0.000699136904 	-1.808689212e-07 	0.01324730878 	-1.557661577e-07 	2.525305244e-05
0.583148964 	0.01332728052 	0.0008528541566 	-1.78462679e-07 	0.01332269118 	-1.568684902e-07 	2.539675224e-05
0.5852653933 	0.01342010218 	0.001005130888 	-1.761971801e-07 	0.01339838478 	-1.576942181e-07 	2.554104528e-05
0.5874054395 	0.01351713737 	0.001156056598 	-1.740560818e-07 	0.01347424538 	-1.582742054e-07 	2.568565667e-05
0.5895693664 	0.01361807963 	0.001305708942 	-1.720253738e-07 	0.01355014876 	-1.586379223e-07 	2.583034961e-05
0.5917574402 	0.01372265242 	0.001454154741 	-1.700914918e-07 	0.0136259894 	-1.588093427e-07 	2.597492294e-05
0.5939699306 	0.01383060482 	0.001601450668 	-1.682416938e-07 	0.01370167702 	-1.588091067e-07 	2.611920459e-05
0.5962071099 	0.01394170775 	0.001747644079 	-1.664640594e-07 	0.01377713445 	-1.586549293e-07 	2.626304742e-05
0.5984692536 	0.0140557507 	0.001892773783 	-1.647474379e-07 	0.01385229572 	-1.583619782e-07 	2.640632569e-05
0.6007566404 	0.0141725389 	0.002036870756 	-1.630813786e-07 	0.0139271044 	-1.579431975e-07 	2.654893182e-05
0.6030695519 	0.01429189086 	0.002179958787 	-1.614560618e-07 	0.01400151224 	-1.574096052e-07 	2.669077385e-05
0.6054082729 	0.01441363622 	0.002322055059 	-1.598622334e-07 	0.01407547796 	-1.567705499e-07 	2.683177306e-05
0.6077730914 	0.01453761389 	0.002463170684 	-1.582911463e-07 	0.01414896619 	-1.560339291e-07 	2.697186206e-05
0.6101642987 	0.01466367046 	0.002603311187 	-1.567345086e-07 	0.01422194665 	-1.552063784e-07 	2.711098311e-05
0.6125821893 	0.01479165879 	0.002742476941 	-1.551844389e-07 	0.01429439336 	-1.542934337e-07 	2.724908666e-05
0.6150270608 	0.01492143683 	0.002880663583 	-1.536334277e-07 	0.01436628397 	-1.532996714e-07 	2.738613014e-05
0.6174992144 	0.01505286659 	0.003017862378 	-1.520743072e-07 	0.01443759925 	-1.522288296e-07 	2.752207689e-05
0.6199989545 	0.01518581326 	0.003154060572 	-1.505002255e-07 	0.01450832258 	-1.510839134e-07 	2.765689522e-05
0.622526589 	0.01532014445 	0.00328924172 	-1.489046286e-07 	0.01457843955 	-1.49867286e-07 	2.779055765e-05
0.625082429 	0.01545572961 	0.003423385988 	-1.472812467e-07 	0.01464793758 	-1.485807487e-07 	2.792304022e-05
0.6276667894 	0.01559243947 	0.003556470447 	-1.456240869e-07 	0.01471680566 	-1.472256106e-07 	2.805432191e-05
0.6302799884 	0.01573014566 	0.003688469355 	-1.439274307e-07 	0.01478503404 	-1.458027511e-07 	2.818438416e-05
0.6329223478 	0.01586872041 	0.003819354422 	-1.421858359e-07 	0.01485261402 	-1.443126742e-07 	2.83132104e-05
0.6355941931 	0.01600803624 	0.003949095076 	-1.403941435e-07 	0.01491953781 	-1.427555582e-07 	2.844078573e-05
0.6382958531 	0.01614796587 	0.004077658713 	-1.385474881e-07 	0.01498579828 	-1.411313e-07 	2.856709662e-05
0.6410276607 	0.01628838209 	0.004205010954 	-1.366413126e-07 	0.01505138894 	-1.39439556e-07 	2.869213064e-05
0.6437899523 	0.01642915777 	0.004331115886 	-1.346713859e-07 	0.01511630373 	-1.376797793e-07 	2.881587627e-05
0.646583068 	0.01657016585 	0.004455936308 	-1.326338236e-07 	0.01518053702 	-1.358512553e-07 	2.893832278e-05
0.6494073518 	0.01671127946 	0.004579433969 	-1.305251115e-07 	0.01524408352 	-1.339531342e-07 	2.905946006e-05
0.6522631514 	0.01685237205 	0.004701569804 	-1.283421314e-07 	0.01530693822 	-1.319844627e-07 	2.91792786e-05
0.6551508186 	0.01699331757 	0.004822304168 	-1.260821882e-07 	0.01536909644 	-1.299442142e-07 	2.929776944e-05
0.658070709 	0.0171339907 	0.004941597059 	-1.23743039e-07 	0.01543055377 	-1.278313181e-07 	2.941492419e-05
0.6610231822 	0.0172742671 	0.00505940834 	-1.213229217e-07 	0.01549130612 	-1.256446885e-07 	2.953073505e-05
0.6640086017 	0.01741402368 	0.005175697952 	-1.188205857e-07 	0.01555134977 	-1.233832516e-07 	2.964519494e-05
0.6670273351 	0.01755313894 	0.005290426113 	-1.162353204e-07 	0.01561068143 	-1.210459735e-07 	2.975829756e-05
0.6700797543 	0.01769149325 	0.005403553507 	-1.135669841e-07 	0.01566929829 	-1.186318871e-07 	2.987003759e-05
0.6731662352 	0.01782896921 	0.005515041457 	-1.108160307e-07 	0.01572719817 	-1.161401181e-07 	2.998041087e-05
0.6762871577 	0.017965452 	0.005624852082 	-1.079835341e-07 	0.01578437962 	-1.135699106e-07 	3.00894146e-05
0.6794429063 	0.01810082966 	0.005732948427 	-1.050712099e-07 	0.01584084204 	-1.109206522e-07 	3.019704766e-05
0.6826338695 	0.01823499352 	0.005839294575 	-1.020814328e-07 	0.01589658585 	-1.081918978e-07 	3.030331086e-05
0.6858604404 	0.01836783841 	0.005943855726 	-9.901724962e-08 	0.01595161269 	-1.053833922e-07 	3.04082073e-05
0.6891230163 	0.01849926307 	0.006046598247 	-9.588238631e-08 	0.01600592557 	-1.024950921e-07 	3.051174275e-05
0.6924219988 	0.01862917039 	0.006147489695 	-9.268124799e-08 	0.01605952913 	-9.952718565e-08 	3.061392604e-05
0.6957577944 	0.01875746769 	0.006246498788 	-8.941891086e-08 	0.01611242985 	-9.648011078e-08 	3.071476952e-05
0.6991308138 	0.018884067 	0.006343595359 	-8.610110432e-08 	0.01616463632 	-9.335457192e-08 	3.081428956e-05
0.7025414724 	0.01900888527 	0.00643875025 	-8.273418179e-08 	0.01621615949 	-9.01515541e-08 	3.091250703e-05
0.7059901901 	0.01913184463 	0.006531935183 	-7.932507811e-08 	0.01626701297 	-8.687233529e-08 	3.10094479e-05
0.7094773917 	0.01925287257 	0.00662312258 	-7.58812518e-08 	0.01631721336 	-8.351849635e-08 	3.11051438e-05
0.7130035066 	0.01937190219 	0.00671228535 	-7.241060958e-08 	0.01636678055 	-8.009192877e-08 	3.119963264e-05
0.7165689691 	0.01948887242 	0.006799396647 	-6.892141098e-08 	0.01641573809 	-7.659483998e-08 	3.129295932e-05
0.7201742182 	0.01960372828 	0.006884429584 	-6.542215073e-08 	0.01646411353 	-7.302975615e-08 	3.138517636e-05
0.7238196978 	0.01971642113 	0.006967356956 	-6.192141592e-08 	0.0165119389 	-6.93995214e-08 	3.14763448e-05
0.727505857 	0.0198269091 	0.007048151021 	-5.84277179e-08 	0.0165592511 	-6.570729888e-08 	3.1566535e-05
0.7312331497 	0.01993515785 	0.007126783537 	-5.494928409e-08 	0.0166060919 	-6.195656552e-08 	3.165582659e-05
0.7350020349 	0.02004086811 	0.007203031761 	-5.150272234e-08 	0.01665238474 	-5.816126071e-08 	3.17440736e-05
0.7387709215 	0.0201431947 	0.007276282733 	-4.812283791e-08 	0.01669780326 	-5.435798501e-08 	3.183065392e-05
0.7424982157 	0.02024140539 	0.007346011212 	-4.484133617e-08 	0.01674205505 	-5.058344266e-08 	3.191501014e-05
0.7461843763 	0.02033543272 	0.007412171 	-4.166718266e-08 	0.01678512812 	-4.685180645e-08 	3.199711939e-05
0.7498298574 	0.02042548672 	0.007474911128 	-3.859846323e-08 	0.01682712642 	-4.316674122e-08 	3.207717981e-05
0.7534351078 	0.02051177519 	0.007534373675 	-3.563176337e-08 	0.01686814948 	-3.953144904e-08 	3.215538116e-05
0.7570005716 	0.02059450333 	0.007590694165 	-3.276228844e-08 	0.01690829291 	-3.594866093e-08 	3.223190569e-05
0.7605266877 	0.02067387379 	0.007644002318 	-2.998399326e-08 	0.01694764846 	-3.242061786e-08 	3.230692832e-05
0.7640138905 	0.02075008664 	0.007694422803 	-2.728973804e-08 	0.01698630408 	-2.894905572e-08 	3.238061668e-05
0.7674626093 	0.02082333947 	0.007742075992 	-2.467146486e-08 	0.017024344 	-2.553518682e-08 	3.245313134e-05
0.770873269 	0.02089382739 	0.007787078654 	-2.212039227e-08 	0.01706184888 	-2.217967872e-08 	3.252462607e-05
0.7742462894 	0.02096174303 	0.00782954459 	-1.962722493e-08 	0.01709889592 	-1.888263126e-08 	3.259524801e-05
0.777582086 	0.02102727653 	0.007869585223 	-1.718237438e-08 	0.01713555902 	-1.564355175e-08 	3.266513807e-05
0.7808810695 	0.02109061552 	0.007907310109 	-1.477618487e-08 	0.01717190898 	-1.246132479e-08 	3.273443121e-05
0.7841436462 	0.02115194502 	0.007942827354 	-1.239913978e-08 	0.01720801363 	-9.334171447e-09 	3.280325669e-05
0.787370218 	0.0212114473 	0.007976243811 	-1.004211355e-08 	0.01724393802 	-6.259788088e-09 	3.287173857e-05
0.7905611821 	0.02126930151 	0.008007665644 	-7.6968647e-09 	0.01727974642 	-3.235671438e-09 	3.293999933e-05
0.7937169314 	0.02132568624 	0.008037207113 	-5.359536245e-09 	0.01731551029 	-2.601297519e-10 	3.300817521e-05
0.7968378547 	0.02138079492 	0.008065006511 	-3.018493717e-09 	0.01735127239 	2.699317931e-09 	3.307634771e-05
0.7999243362 	0.02143490414 	0.008091306781 	-7.305424292e-10 	0.01738691902 	5.619609362e-09 	3.314430009e-05
0.8029767561 	0.02148889546 	0.008117509407 	1.159493961e-09 	0.01742218909 	8.623052432e-09 	3.321153465e-05
0.8059954902 	0.02154391132 	0.008145184046 	4.546113065e-09 	0.01745662899 	1.133547868e-08 	3.327718667e-05
0.8089809102 	0.02159724624 	0.008167696587 	7.90571084e-09 	0.01749152615 	1.408308966e-08 	3.334371036e-05
0.8119333839 	0.02164889866 	0.008184120269 	9.40262653e-09 	0.01752712839 	1.726304732e-08 	3.341157813e-05
0.8148532749 	0.02170190475 	0.00820057504 	1.092754894e-08 	0.01756233162 	2.048049184e-08 	3.347868526e-05
0.8177409426 	0.02175606603 	0.008217120063 	1.249293864e-08 	0.01759737199 	2.377481768e-08 	3.354548195e-05
0.8205967427 	0.02181119887 	0.008233786351 	1.408703364e-08 	0.01763240394 	2.712772798e-08 	3.361226258e-05
0.8234210268 	0.02186715017 	0.00825064526 	1.571965188e-08 	0.01766765828 	3.056788181e-08 	3.367946716e-05
0.8262141429 	0.02192380037 	0.008267723737 	1.738816645e-08 	0.01770324959 	3.40932702e-08 	3.374731408e-05
0.8289764348 	0.02198106335 	0.008285039433 	1.908805573e-08 	0.01773925816 	3.769525666e-08 	3.381595643e-05
0.8317082427 	0.02203888224 	0.00830260648 	2.081488088e-08 	0.01777574589 	4.136348304e-08 	3.388551219e-05
0.8344099031 	0.02209722455 	0.008320437828 	2.256529546e-08 	0.01781276388 	4.508866025e-08 	3.395607875e-05
0.8370817486 	0.02215607785 	0.008338545943 	2.433744428e-08 	0.01785035567 	4.886396856e-08 	3.402773915e-05
0.8397241082 	0.02221544667 	0.00835694292 	2.61310738e-08 	0.01788855859 	5.268576227e-08 	3.410056454e-05
0.8423373074 	0.02227535048 	0.00837564031 	2.794741229e-08 	0.017927404 	5.655367826e-08 	3.417461469e-05
0.844921668 	0.02233582273 	0.008394649028 	2.978893484e-08 	0.01796691743 	6.047039524e-08 	3.424993828e-05
0.8474775082 	0.02239691042 	0.008413979532 	3.165909256e-08 	0.01800711929 	6.444124378e-08 	3.432657418e-05
0.8500051427 	0.02245867397 	0.008433642332 	3.356205456e-08 	0.0180480263 	6.847377718e-08 	3.440455432e-05
0.8525048829 	0.02252118688 	0.008453648766 	3.550248371e-08 	0.01808965384 	7.257734925e-08 	3.448390797e-05
0.8549770366 	0.02258453517 	0.008474011972 	3.748535096e-08 	0.01813201874 	7.676271972e-08 	3.456466724e-05
0.8574219081 	0.02264881618 	0.008494747904 	3.951578471e-08 	0.01817514247 	8.104168168e-08 	3.464687307e-05
0.8598397987 	0.02271413701 	0.008515876295 	4.159894453e-08 	0.01821905433 	8.542668802e-08 	3.473058128e-05
0.862231006 	0.02278061247 	0.008537421454 	4.373990804e-08 	0.01826379428 	8.993045337e-08 	3.481586807e-05
0.8645958245 	0.02284836285 	0.008559412814 	4.594356347e-08 	0.01830941517 	9.456552092e-08 	3.490283416e-05
0.8669345455 	0.02291751178 	0.008581885182 	4.821450649e-08 	0.01835598414 	9.93438039e-08 	3.499160755e-05
0.8692474569 	0.02298818442 	0.008604878669 	5.055694681e-08 	0.01840358301 	1.042761353e-07 	3.508234424e-05
0.8715348435 	0.02306050619 	0.008628438318 	5.297463577e-08 	0.01845230771 	1.093718779e-07 	3.517522705e-05
0.8737969871 	0.02313460241 	0.008652613472 	5.547082892e-08 	0.01850226661 	1.14638656e-07 	3.52704626e-05
0.8760341663 	0.02321059869 	0.008677456967 	5.804829723e-08 	0.0185535782 	1.200822662e-07 	3.536827675e-05
0.8782466565 	0.02328862239 	0.008703024249 	6.070939595e-08 	0.0186063682 	1.257068056e-07 	3.546890916e-05
0.8804347301 	0.02336880474 	0.008729372539 	6.3456193e-08 	0.01866076657 	1.315150301e-07 	3.557260758e-05
0.8825986568 	0.02345128375 	0.008756560166 	6.629064947e-08 	0.01871690483 	1.375089189e-07 	3.567962269e-05
0.8847387028 	0.02353620749 	0.008784646196 	6.921483691e-08 	0.01877491394 	1.436903927e-07 	3.57902042e-05
0.8868551318 	0.02362373753 	0.008813690422 	7.223116881e-08 	0.01883492338 	1.500621058e-07 	3.590459887e-05
0.8889482045 	0.02371405235 	0.008843753794 	7.534262058e-08 	0.01889706127 	1.566282202e-07 	3.602305095e-05
0.8910181784 	0.02380735048 	0.008874899299 	7.855291263e-08 	0.01896145598 	1.633950716e-07 	3.614580517e-05
0.8930653087 	0.02390385315 	0.008907193241 	8.186663532e-08 	0.01902823903 	1.703716482e-07 	3.627311221e-05
0.8950898473 	0.02400380632 	0.008940706879 	8.528930246e-08 	0.0190975491 	1.775698299e-07 	3.640523648e-05
0.8970920436 	0.02410748216 	0.008975518289 	8.882732821e-08 	0.01916953705 	1.850043676e-07 	3.654246551e-05
0.8990721441 	0.02421517982 	0.00901171434 	9.24879313e-08 	0.01924437128 	1.926926104e-07 	3.668512035e-05
0.9010303927 	0.02432722568 	0.009049392626 	9.627897647e-08 	0.0193222433 	2.00654015e-07 	3.683356606e-05
0.9029670306 	0.02444397318 	0.009088663227 	1.002087656e-07 	0.01940337288 	2.089094822e-07 	3.69882216e-05
0.9048822962 	0.02456580234 	0.009129650163 	1.042857908e-07 	0.01948801247 	2.1748057e-07 	3.714956818e-05
0.9067764254 	0.02469311909 	0.009172492434 	1.085184619e-07 	0.01957645041 	2.263886369e-07 	3.731815547e-05
0.9086496514 	0.02482635464 	0.00921734458 	1.129148224e-07 	0.01966901284 	2.356539802e-07 	3.74946052e-05
0.910502205 	0.0249659647 	0.009264376711 	1.174822732e-07 	0.01976606409 	2.452950557e-07 	3.767961185e-05
0.9123343142 	0.02511242875 	0.00931377402 	1.222273242e-07 	0.01986800546 	2.553278759e-07 	3.787394044e-05
0.9141462048 	0.02526624899 	0.00936573579 	1.271553815e-07 	0.01997527275 	2.657656408e-07 	3.807842169e-05
0.9159380997 	0.02542794891 	0.009420473964 	1.322705421e-07 	0.02008833243 	2.766185376e-07 	3.829394488e-05
0.9177102197 	0.02559807117 	0.009478211341 	1.375753152e-07 	0.02020767708 	2.878934452e-07 	3.852144895e-05
0.9194627831 	0.02577717437 	0.009539179439 	1.430701323e-07 	0.02033381996 	2.995930917e-07 	3.876191234e-05
0.9211960055 	0.02596582873 	0.00960361607 	1.487524896e-07 	0.02046728917 	3.117141488e-07 	3.901634176e-05
0.9229101006 	0.0261646102 	0.009671762578 	1.546158199e-07 	0.02060862117 	3.242444233e-07 	3.928575981e-05
0.9246052793 	0.02637409321 	0.009743860675 	1.606484324e-07 	0.02075835355 	3.371600669e-07 	3.957119134e-05
0.9262817504 	0.02659484183 	0.009820148038 	1.668354034e-07 	0.02091701529 	3.50429468e-07 	3.987364472e-05
0.9279397204 	0.02682739962 	0.009900857966 	1.73137279e-07 	0.02108512569 	3.639685734e-07 	4.019410988e-05
0.9295793934 	0.02707227716 	0.009986207307 	1.795377365e-07 	0.02126316818 	3.77744157e-07 	4.053350834e-05
0.9312009714 	0.02732993971 	0.01007639508 	1.860089397e-07 	0.02145158738 	3.917018498e-07 	4.08926877e-05
0.9328046541 	0.02760078703 	0.01017160489 	1.924633097e-07 	0.02165079543 	4.056538878e-07 	4.127243362e-05
0.9343906389 	0.02788513532 	0.01027198431 	1.988501232e-07 	0.02186112778 	4.194871165e-07 	4.167338553e-05
0.9359591211 	0.02818320404 	0.01037764328 	2.051073028e-07 	0.02208283827 	4.330685788e-07 	4.209602735e-05