1.140892492e-36 	0.03064511154 	-1.251924409e-15 	-7.208519308e-23 	5.114403724e-29 	2.944848565e-36 	1.695629352e-43
0.0003225556171 	0.03065346848 	-0.0002318933268 	1.152811525e-08 	0.03501481245 	-4.470471714e-07 	6.67479644e-05
0.000645110925 	0.03066245261 	-0.0004035378451 	2.012225832e-08 	0.03522598332 	-4.435923084e-07 	6.715051476e-05
0.0009676659232 	0.03066758624 	-0.0005130329476 	2.467884785e-08 	0.03524817417 	-4.364704085e-07 	6.71928167e-05
0.001290220611 	0.03067694473 	-0.0006296850606 	2.940766477e-08 	0.03527638351 	-4.294147583e-07 	6.724659153e-05
0.001612774989 	0.03068786236 	-0.0007512074816 	3.419234751e-08 	0.03527873533 	-4.218070489e-07 	6.725107475e-05
0.001935329056 	0.03070113612 	-0.0008758878027 	3.893163354e-08 	0.03528076869 	-4.141547262e-07 	6.72549509e-05
0.002257882812 	0.03071671083 	-0.001002530352 	4.355438133e-08 	0.0352820116 	-4.064547516e-07 	6.725732024e-05
0.002580436257 	0.03073458939 	-0.001130475497 	4.802033681e-08 	0.03528301374 	-3.987213547e-07 	6.725923059e-05
0.00290298939 	0.03075475583 	-0.001259295122 	5.230310507e-08 	0.03528374318 	-3.909567489e-07 	6.72606211e-05
0.003225542212 	0.03077720084 	-0.001388705826 	5.638482777e-08 	0.03528433522 	-3.83166615e-07 	6.726174971e-05
0.003548094721 	0.03080191098 	-0.001518506155 	6.025304676e-08 	0.03528485698 	-3.753560781e-07 	6.726274433e-05
0.003870646918 	0.03082886484 	-0.00164854966 	6.390007312e-08 	0.03528535405 	-3.675304868e-07 	6.726369188e-05
0.004193198803 	0.03085803632 	-0.001778726265 	6.731978824e-08 	0.03528585515 	-3.596894383e-07 	6.726464712e-05
0.004515750376 	0.03088940097 	-0.001908947836 	7.050639027e-08 	0.03528637386 	-3.51833021e-07 	6.726563591e-05
0.004838301637 	0.03092293499 	-0.002039142835 	7.345706702e-08 	0.03528691904 	-3.43971925e-07 	6.726667518e-05
0.005160852584 	0.03095861765 	-0.002169253205 	7.617039013e-08 	0.03528750725 	-3.361137074e-07 	6.726779647e-05
0.00548340322 	0.03099642906 	-0.00229922969 	7.8644985e-08 	0.03528815726 	-3.28259017e-07 	6.726903557e-05
0.005805953543 	0.03103634564 	-0.002429029792 	8.088047481e-08 	0.03528888438 	-3.204093766e-07 	6.727042167e-05
0.006128503553 	0.03107834135 	-0.002558616382 	8.287718042e-08 	0.03528970183 	-3.125667493e-07 	6.727197996e-05
0.006451053251 	0.03112238832 	-0.002687956569 	8.463603534e-08 	0.0352906216 	-3.047334035e-07 	6.727373329e-05
0.006773602636 	0.03116845724 	-0.002817020875 	8.615848527e-08 	0.03529165494 	-2.969116847e-07 	6.727570312e-05
0.00709615171 	0.03121651762 	-0.002945782608 	8.744643549e-08 	0.03529281263 	-2.891038974e-07 	6.727791001e-05
0.007418700471 	0.03126653797 	-0.003074217389 	8.850221489e-08 	0.03529410545 	-2.813122689e-07 	6.728037448e-05
0.00774124892 	0.03131848601 	-0.003202302868 	8.932855943e-08 	0.0352955451 	-2.735389718e-07 	6.728311885e-05
0.008063797057 	0.03137232894 	-0.003330018761 	8.992859874e-08 	0.03529714224 	-2.657859898e-07 	6.728616344e-05
0.008386344883 	0.03142803359 	-0.003457346542 	9.030580153e-08 	0.03529888967 	-2.580543096e-07 	6.728949453e-05
0.008708892398 	0.03148556447 	-0.003584260897 	9.046347199e-08 	0.03530074018 	-2.503430082e-07 	6.729302211e-05
0.009031439602 	0.03154490531 	-0.00371080673 	9.040627029e-08 	0.03530283529 	-2.426598227e-07 	6.729701599e-05
0.009353986494 	0.03160467101 	-0.003832405459 	9.002270608e-08 	0.03530571802 	-2.350286682e-07 	6.730251125e-05
0.009676533077 	0.03166264305 	-0.003930390848 	8.880780155e-08 	0.03531202939 	-2.274997054e-07 	6.731454249e-05
0.01017769553 	0.0317185543 	-0.003994469227 	8.493957426e-08 	0.03532419602 	-2.16066064e-07 	6.733773547e-05
0.01068827656 	0.03177380875 	-0.004042672403 	8.049221628e-08 	0.03533988702 	-2.045189803e-07 	6.736764688e-05
0.01120845316 	0.03183002347 	-0.004091698775 	7.593634764e-08 	0.03535632348 	-1.927977383e-07 	6.739897934e-05
0.01173840565 	0.03188791956 	-0.004143718805 	7.131764528e-08 	0.03537312581 	-1.808815256e-07 	6.743100924e-05
0.01227831774 	0.03194745561 	-0.004198416772 	6.66254526e-08 	0.0353902834 	-1.687644734e-07 	6.746371638e-05
0.01282837659 	0.03200860859 	-0.004255556543 	6.185098044e-08 	0.0354078939 	-1.564433016e-07 	6.749728689e-05
0.01338877288 	0.03207136183 	-0.004314934421 	5.698653761e-08 	0.03542600683 	-1.439127299e-07 	6.753181517e-05
0.01395970086 	0.03213570576 	-0.004376380123 	5.20254898e-08 	0.03544465975 	-1.311666336e-07 	6.756737282e-05
0.01454135846 	0.03220163683 	-0.004439751185 	4.696201267e-08 	0.03546388871 	-1.181983789e-07 	6.760402856e-05
0.0151339473 	0.03226915666 	-0.004504928589 	4.179091848e-08 	0.03548372921 	-1.05000864e-07 	6.764185007e-05
0.0157376728 	0.03233827148 	-0.004571813278 	3.650750718e-08 	0.03550421568 	-9.15665218e-08 	6.768090297e-05
0.01635274424 	0.0324089916 	-0.004640323309 	3.110742708e-08 	0.03552538154 	-7.788732309e-08 	6.772125099e-05
0.01697937483 	0.03248133106 	-0.004710391442 	2.558656188e-08 	0.03554725944 	-6.395478052e-08 	6.776295635e-05
0.01761778179 	0.03255530725 	-0.004781963179 	1.994094958e-08 	0.03556988157 	-4.975996002e-08 	6.78060804e-05
0.01826818643 	0.03263094066 	-0.00485499479 	1.416671643e-08 	0.03559327816 	-3.529349132e-08 	6.785068082e-05
0.0189308142 	0.03270825434 	-0.00492945149 	8.26002614e-09 	0.03561748127 	-2.054559652e-08 	6.789681866e-05
0.0196058948 	0.03278729939 	-0.005005375452 	2.21703172e-09 	0.03564251873 	-5.506091682e-09 	6.794454702e-05
0.01985315174 	0.03281633759 	-0.005033133351 	1.546387541e-06 	0.03565184124 	-1.922416308e-05 	6.796231832e-05
0.02029366225 	0.03286807378 	-0.005082586424 	3.944459081e-09 	0.03566845051 	-9.825568851e-09 	6.79939802e-05
0.02099588292 	0.03295061699 	-0.005160969152 	1.026572178e-08 	0.03569534673 	-2.553494438e-08 	6.804525188e-05
0.0217124055 	0.03303504919 	-0.005240779965 	1.676455074e-08 	0.03572321471 	-4.163995013e-08 	6.809837598e-05
0.02244239383 	0.03312135645 	-0.005322017381 	2.342953699e-08 	0.03575205358 	-5.81143808e-08 	6.81533509e-05
0.02318610096 	0.0332095253 	-0.005404601001 	3.026803332e-08 	0.03578188529 	-7.497771884e-08 	6.821021843e-05
0.0239437847 	0.0332996156 	-0.005488588293 	3.72878051e-08 	0.03581273668 	-9.225042385e-08 	6.826902975e-05
0.02471570767 	0.0333916682 	-0.005573985073 	4.449696831e-08 	0.03584463932 	-1.099539543e-07 	6.832984504e-05
0.02550213747 	0.03348572595 	-0.005660800459 	5.190403586e-08 	0.03587762385 	-1.281107731e-07 	6.839272273e-05
0.02630334669 	0.03358183349 	-0.005749046135 	5.9517937e-08 	0.0359117217 	-1.46744385e-07 	6.84577227e-05
0.02711961307 	0.03368003712 	-0.005838735871 	6.734802874e-08 	0.03594696415 	-1.658793617e-07 	6.852490462e-05
0.02795121954 	0.03378038478 	-0.00592988527 	7.540410734e-08 	0.03598338258 	-1.855413686e-07 	6.859432827e-05
0.02879845437 	0.033882926 	-0.006022511478 	8.369641792e-08 	0.03602100838 	-2.057571875e-07 	6.866605349e-05
0.02966161124 	0.03398771184 	-0.006116632943 	9.223566356e-08 	0.03605987295 	-2.265547371e-07 	6.874014017e-05
0.03054098934 	0.03409479485 	-0.006212269193 	1.010330143e-07 	0.03610000771 	-2.479630917e-07 	6.881664817e-05
0.03143689349 	0.03420422901 	-0.006309440637 	1.101001157e-07 	0.03614144403 	-2.700124962e-07 	6.889563731e-05
0.03234963424 	0.0343160697 	-0.00640816838 	1.194490978e-07 	0.03618421324 	-2.927343826e-07 	6.897716732e-05
0.03327952795 	0.03443037368 	-0.006508474069 	1.290925848e-07 	0.03622834663 	-3.161613867e-07 	6.906129783e-05
0.03422689696 	0.03454719909 	-0.006610379737 	1.390437054e-07 	0.03627387545 	-3.403273721e-07 	6.914808842e-05
0.03519206965 	0.03466660544 	-0.006713907673 	1.493161052e-07 	0.036320831 	-3.652674662e-07 	6.923759874e-05
0.03617538056 	0.03478865367 	-0.006819080329 	1.599239606e-07 	0.03636924473 	-3.91018123e-07 	6.932988877e-05
0.03717717053 	0.03491340632 	-0.00692592013 	1.708819892e-07 	0.03641914792 	-4.176172275e-07 	6.942501811e-05
0.03819778679 	0.03504092765 	-0.007034449233 	1.822054757e-07 	0.0364705723 	-4.451043243e-07 	6.952304728e-05
0.0392375831 	0.03517129424 	-0.007144710723 	1.939102039e-07 	0.03652355183 	-4.735209542e-07 	6.962404098e-05
0.04029691988 	0.03530458938 	-0.007256717681 	2.060137088e-07 	0.03657813758 	-5.029128767e-07 	6.972809659e-05
0.04137715132 	0.03544090868 	-0.007370403801 	2.185482669e-07 	0.03663443483 	-5.33323833e-07 	6.983541479e-05
0.04248044704 	0.03558045513 	-0.007486012569 	2.315527547e-07 	0.03669246777 	-5.647849393e-07 	6.994604172e-05
0.04360447683 	0.03572320241 	-0.007603565146 	2.450077831e-07 	0.03675217382 	-5.97314353e-07 	7.005985805e-05
0.0447496303 	0.03586904941 	-0.00772287931 	2.589315567e-07 	0.03681353588 	-6.309660398e-07 	7.017683119e-05
0.04591630441 	0.0360180967 	-0.007844051582 	2.733461079e-07 	0.03687656311 	-6.657841009e-07 	7.02969786e-05
0.04710490354 	0.03617040459 	-0.007967100071 	2.882672989e-07 	0.03694127381 	-7.018132531e-07 	7.042033517e-05
0.04831583968 	0.03632603199 	-0.008092040932 	3.037195332e-07 	0.03700768162 	-7.390988956e-07 	7.054692691e-05
0.04954953259 	0.03648503651 	-0.008218891999 	3.197289525e-07 	0.0370757999 	-7.776863959e-07 	7.06767793e-05
0.05080640988 	0.03664747437 	-0.008347670676 	3.363142503e-07 	0.03714563926 	-8.176203449e-07 	7.080991253e-05
0.05208690721 	0.03681340076 	-0.008478392281 	3.53498204e-07 	0.03721720729 	-8.589450246e-07 	7.094634108e-05
0.05339146842 	0.03698286989 	-0.00861107087 	3.713067584e-07 	0.03729050836 	-9.017049085e-07 	7.108607329e-05
0.0547205457 	0.03715593466 	-0.008745720015 	3.897664025e-07 	0.03736554373 	-9.45944558e-07 	7.122911156e-05
0.05607459972 	0.03733264628 	-0.008882352679 	4.089044128e-07 	0.03744231144 	-9.917082409e-07 	7.137545216e-05
0.05745409982 	0.03751305422 	-0.009020980931 	4.287491023e-07 	0.03752080473 	-1.039039592e-06 	7.152508219e-05
0.05885952414 	0.03769721262 	-0.009161626722 	4.49330074e-07 	0.03760101091 	-1.087981477e-06 	7.167797746e-05
0.06029135983 	0.03788519453 	-0.009304320781 	4.706791362e-07 	0.03768291315 	-1.138578494e-06 	7.183410589e-05
0.06175082976 	0.03807708061 	-0.009449004262 	4.928454911e-07 	0.03776662689 	-1.190891264e-06 	7.199368754e-05
0.06324165326 	0.03827269768 	-0.009595254083 	5.159047383e-07 	0.03785231008 	-1.244967488e-06 	7.215702352e-05
0.06476049349 	0.03849508621 	-0.009757804549 	5.408545159e-07 	0.03795165686 	-1.302820944e-06 	7.23464061e-05
0.06709213948 	0.03876901258 	-0.00995324886 	5.777723187e-07 	0.03807644108 	-1.387996986e-06 	7.25842795e-05
0.06944979626 	0.0390702679 	-0.0101658755 	5.809010908e-07 	0.03821387363 	-1.391059993e-06 	7.284626413e-05
0.07183375399 	0.03937594455 	-0.01038066711 	5.648480852e-07 	0.03835207812 	-1.34794675e-06 	7.31097203e-05
0.07424430605 	0.03968616423 	-0.01059784487 	5.478056078e-07 	0.03849081065 	-1.302386802e-06 	7.337418307e-05
0.07668174913 	0.04000072468 	-0.01081717238 	5.297241755e-07 	0.03862995885 	-1.254322424e-06 	7.363943821e-05
0.0791463832 	0.04031942527 	-0.01103845899 	5.105533999e-07 	0.03876941811 	-1.203702975e-06 	7.390528631e-05
0.08163851157 	0.04064212321 	-0.01126146736 	4.902561092e-07 	0.03890918089 	-1.150505535e-06 	7.417171303e-05
0.08416496108 	0.04096887252 	-0.0114862512 	4.685852762e-07 	0.03904919369 	-1.094140522e-06 	7.443861634e-05
0.08672030433 	0.04129927753 	-0.01171258282 	4.456904408e-07 	0.03918919513 	-1.035143759e-06 	7.470549799e-05
0.08930415545 	0.0416327217 	-0.01193996399 	4.215263262e-07 	0.03932894243 	-9.735435098e-07 	7.497189518e-05
0.09191683248 	0.04196890329 	-0.01216822937 	3.960458673e-07 	0.03946823486 	-9.093279549e-07 	7.523742526e-05
0.09455865701 	0.04230749956 	-0.01239719487 	3.692031521e-07 	0.03960687773 	-8.424953744e-07 	7.550171712e-05
0.09722995422 	0.04264817032 	-0.01262667798 	3.409531264e-07 	0.03974466111 	-7.730518594e-07 	7.576437054e-05
0.0999310529 	0.04299058815 	-0.01285651142 	3.1125305e-07 	0.03988137672 	-7.010130375e-07 	7.602498847e-05
0.1026635218 	0.04333452827 	-0.01308656391 	2.800290303e-07 	0.04001689145 	-6.263169393e-07 	7.628331723e-05
0.1054324181 	0.04367981294 	-0.01331684266 	2.471154898e-07 	0.04015098939 	-5.486985834e-07 	7.653894517e-05
0.1082322065 	0.04402580717 	-0.01354703164 	2.126629558e-07 	0.04028329798 	-4.68662923e-07 	7.679116211e-05
0.1110632316 	0.0443718148 	-0.01377671363 	1.766303655e-07 	0.04041348426 	-3.862543843e-07 	7.703933335e-05
0.1139258419 	0.04471739792 	-0.01400572454 	1.389887683e-07 	0.04054124198 	-3.01532281e-07 	7.728287508e-05
0.1168203898 	0.04506206932 	-0.01423386018 	9.971221138e-08 	0.04066626336 	-2.145649912e-07 	7.752120056e-05
0.1197472317 	0.04540533798 	-0.01446092155 	5.877880777e-08 	0.04078822433 	-1.254300582e-07 	7.775369208e-05
0.12270736 	0.04574679989 	-0.01468673191 	1.61527706e-08 	0.04090686913 	-3.417508572e-08 	7.797986205e-05
0.1238093945 	0.04587145621 	-0.01476921498 	2.173953539e-06 	0.04094911617 	-1.423028988e-05 	7.806039664e-05
0.1257069328 	0.04608612412 	-0.01491125175 	2.8389453e-08 	0.04102187898 	-5.968109249e-08 	7.819910278e-05
0.128739973 	0.04642252271 	-0.01513413295 	7.463704868e-08 	0.04113278365 	-1.554773297e-07 	7.84105179e-05
0.1318068542 	0.04675512849 	-0.01535491517 	1.225530595e-07 	0.04123914753 	-2.529317892e-07 	7.861327702e-05
0.1349079538 	0.04708332017 	-0.01557337077 	1.721258129e-07 	0.04134055497 	-3.519073475e-07 	7.880658778e-05
0.1380436537 	0.0474064287 	-0.0157892368 	2.233352344e-07 	0.04143658214 	-4.522545325e-07 	7.898964227e-05
0.14121434 	0.04772380444 	-0.01600224363 	2.761539512e-07 	0.04152682251 	-5.538127337e-07 	7.916166549e-05
0.1444241869 	0.04803488125 	-0.01621221475 	3.306452776e-07 	0.04161085537 	-6.565914021e-07 	7.932185547e-05
0.1476729191 	0.04833888812 	-0.01641886595 	3.866961838e-07 	0.04168817123 	-7.60268004e-07 	7.9469241e-05
0.1509579006 	0.04863481512 	-0.01662171437 	4.441371173e-07 	0.04175823409 	-8.644517795e-07 	7.960280028e-05
0.1542795359 	0.04892174409 	-0.01682035526 	5.028722944e-07 	0.04182052026 	-9.689105952e-07 	7.972153502e-05
0.1576382339 	0.04919881641 	-0.01701444682 	5.627881392e-07 	0.04187450168 	-1.07339769e-06 	7.982443863e-05
0.1610344082 	0.0494651642 	-0.01720362704 	6.237512439e-07 	0.0419196543 	-1.177653572e-06 	7.991051206e-05
0.1644716629 	0.04971996581 	-0.01738759368 	6.856849701e-07 	0.04195542941 	-1.281530463e-06 	7.997870936e-05
0.1679506875 	0.04996224999 	-0.0175659654 	7.483657114e-07 	0.04198122421 	-1.384652234e-06 	8.002788142e-05
0.1714685328 	0.05019084741 	-0.0177381913 	8.114960772e-07 	0.04199643151 	-1.486568642e-06 	8.005687077e-05
0.1750256321 	0.05040464384 	-0.01790376722 	8.748945224e-07 	0.04200045159 	-1.587015969e-06 	8.006453416e-05
0.1786224232 	0.05060257728 	-0.01806224701 	9.384366821e-07 	0.04199266865 	-1.6857399e-06 	8.00496977e-05
0.182259349 	0.05078358764 	-0.01821315385 	1.002042122e-06 	0.04197240226 	-1.782384884e-06 	8.001106434e-05
0.1859420126 	0.05094650633 	-0.01835577838 	1.065100355e-06 	0.04193870846 	-1.876313636e-06 	7.994683458e-05
0.1896669197 	0.05108942819 	-0.01848881157 	1.126588427e-06 	0.04189193958 	-1.971060638e-06 	7.98576801e-05
0.193433393 	0.05120740298 	-0.0186064141 	1.128449015e-06 	0.04183483853 	-1.993901805e-06 	7.974882962e-05
0.1972418962 	0.05127580714 	-0.01872168317 	1.102372084e-06 	0.04177873005 	-1.921347953e-06 	7.964187128e-05
0.2010928983 	0.05128986987 	-0.01883883656 	1.06897657e-06 	0.041725256 	-1.840908929e-06 	7.953993488e-05
0.2049898859 	0.0512750668 	-0.01894298228 	9.977886934e-07 	0.04166174517 	-1.73003283e-06 	7.941886557e-05
0.2089333194 	0.05124018128 	-0.01903525195 	9.439511142e-07 	0.04158152101 	-1.615996416e-06 	7.926593602e-05
0.2129207593 	0.05118429353 	-0.01911763152 	8.883467963e-07 	0.04148256175 	-1.500377129e-06 	7.907729218e-05
0.2169526964 	0.05110658115 	-0.01918972148 	8.317262199e-07 	0.04136454932 	-1.386059013e-06 	7.885232768e-05
0.2210296273 	0.05100615859 	-0.01925090742 	7.737746105e-07 	0.04122695533 	-1.272484968e-06 	7.859003531e-05
0.2251548737 	0.05088208389 	-0.01930057161 	7.147215109e-07 	0.04106905249 	-1.159888115e-06 	7.82890286e-05
0.2293289488 	0.05073342759 	-0.01933807662 	6.548885922e-07 	0.04089015126 	-1.048790112e-06 	7.794799314e-05
0.2335496053 	0.05055931766 	-0.01936271741 	5.946393676e-07 	0.04068964841 	-9.397472962e-07 	7.756577897e-05
0.2378173632 	0.05035887191 	-0.0193738098 	5.342481436e-07 	0.04046692954 	-8.331261063e-07 	7.71412149e-05
0.2421327478 	0.0501311359 	-0.01937064854 	4.739981804e-07 	0.04022131043 	-7.292897917e-07 	7.667299661e-05
0.2465003553 	0.04987510795 	-0.0193525311 	4.141014355e-07 	0.03995207119 	-6.284817961e-07 	7.615975179e-05
0.250917877 	0.04958992089 	-0.01931872785 	3.550189998e-07 	0.03965864709 	-5.313433552e-07 	7.56004039e-05
0.2553846982 	0.04927478167 	-0.01926847674 	2.971006738e-07 	0.0393405525 	-4.383319521e-07 	7.499402721e-05
0.259901369 	0.04892885084 	-0.01920103089 	2.406650361e-07 	0.03899725675 	-3.498438368e-07 	7.433961008e-05
0.2644698782 	0.0485512286 	-0.01911561716 	1.86005837e-07 	0.03862817811 	-2.662279442e-07 	7.363604363e-05
0.2690927907 	0.04814109574 	-0.01901146425 	1.334702074e-07 	0.03823282037 	-1.879171223e-07 	7.288238189e-05
0.273767296 	0.04769787893 	-0.01888782176 	8.345032764e-08 	0.03781092378 	-1.154266922e-07 	7.207812972e-05
0.2784939697 	0.04722106272 	-0.01874393975 	3.618259888e-08 	0.03736227099 	-4.907870181e-08 	7.122287282e-05
0.2823705472 	0.04680661892 	-0.01861018791 	3.954549181e-06 	0.03697645054 	-9.069230525e-06 	7.04873918e-05
0.283273557 	0.04671006266 	-0.01857902424 	8.095202662e-09 	0.0368865633 	-1.080000556e-08 	7.031604174e-05
0.2881107851 	0.04616438113 	-0.01839227054 	4.8896404e-08 	0.0363835535 	-6.372528455e-08 	6.935716526e-05
0.2930019987 	0.04558396988 	-0.01818297476 	8.643390845e-08 	0.03585338622 	-1.095462942e-07 	6.834651907e-05
0.2979478001 	0.04496897023 	-0.01795040457 	1.210353367e-07 	0.03529631584 	-1.481978231e-07 	6.728458809e-05
0.3029487983 	0.04431953382 	-0.01769373957 	1.533697644e-07 	0.03471254073 	-1.796837086e-07 	6.617175049e-05
0.3080095909 	0.04363602882 	-0.01741211025 	1.84519421e-07 	0.0341023782 	-2.039905996e-07 	6.500861112e-05
0.3131269609 	0.04291949541 	-0.01710482573 	2.158982283e-07 	0.03346666288 	-2.213537239e-07 	6.379676103e-05
0.3183014433 	0.0421725864 	-0.016770702 	2.502851592e-07 	0.03280688155 	-2.332507645e-07 	6.253903444e-05
0.323534034 	0.04139930674 	-0.01641302858 	2.639655723e-07 	0.03212707136 	-2.351726587e-07 	6.124312727e-05
0.3288283649 	0.0405979049 	-0.01603032606 	3.211928659e-07 	0.03143277932 	-2.15068378e-07 	5.991961368e-05
0.3341817839 	0.03976207744 	-0.01560868444 	3.886553562e-07 	0.03072796324 	-1.772344743e-07 	5.857603833e-05
0.33959495 	0.03889194399 	-0.01516028545 	3.752930006e-07 	0.03001226845 	-1.386272746e-07 	5.721172514e-05
0.3450698045 	0.03799374226 	-0.01470510466 	3.567256121e-07 	0.02928231915 	-1.098534168e-07 	5.58202389e-05
0.3506078229 	0.03707514187 	-0.01424331455 	3.358021068e-07 	0.0285371412 	-8.788711272e-08 	5.439972261e-05
0.3562076492 	0.03614506803 	-0.01377725793 	3.080497864e-07 	0.0277794183 	-6.046932039e-08 	5.295529217e-05
0.3618699728 	0.03521208103 	-0.01331054288 	2.72485441e-07 	0.0270133179 	-2.24147929e-08 	5.149489189e-05
0.3675979394 	0.03428062111 	-0.01281557753 	2.058740256e-07 	0.02624423291 	2.448252801e-08 	5.002880213e-05
0.3733903722 	0.03335078519 	-0.01228763518 	1.450829114e-07 	0.02547637611 	7.601448325e-08 	4.856505366e-05
0.3792474522 	0.03242302897 	-0.01174725093 	1.133160782e-07 	0.02471510672 	1.250665743e-07 	4.711386261e-05
0.3851709504 	0.03149539225 	-0.01117836208 	5.047740677e-08 	0.02397006575 	1.786803358e-07 	4.569360745e-05
0.3911621639 	0.03052096548 	-0.01061504025 	-3.165992216e-09 	0.02326856598 	2.290748143e-07 	4.435635392e-05
0.3972202431 	0.02949230894 	-0.01005944371 	-2.525665828e-08 	0.0226164186 	2.635796263e-07 	4.311317977e-05
0.4033461698 	0.02845638394 	-0.009481145694 	-4.838115426e-08 	0.02199622166 	2.949320091e-07 	4.193091202e-05
0.4095425735 	0.0274293304 	-0.008895788026 	-6.617035124e-08 	0.02140595506 	3.252134441e-07 	4.080569982e-05
0.415808133 	0.02642181695 	-0.00830729653 	-7.91642755e-08 	0.02084652857 	3.546495971e-07 	3.973927745e-05
0.4221436196 	0.02544299238 	-0.007717952025 	-8.827246473e-08 	0.02032104072 	3.81910014e-07 	3.873755156e-05
0.4285517109 	0.02450128801 	-0.00712902282 	-9.449591526e-08 	0.01983174983 	4.063327892e-07 	3.780482712e-05
0.4350314771 	0.02360494994 	-0.006541656612 	-9.371941105e-08 	0.01938055199 	4.066160466e-07 	3.694471864e-05
0.4415835607 	0.02276166549 	-0.005956749222 	-9.056283445e-08 	0.01896879495 	3.995842487e-07 	3.615979529e-05
0.448210299 	0.02197841004 	-0.005374942506 	-8.656315374e-08 	0.018597246 	3.897981265e-07 	3.545151971e-05
0.4549112516 	0.02126149541 	-0.004796825664 	-8.214394339e-08 	0.0182661305 	3.778511988e-07 	3.482032154e-05
0.4616869897 	0.02061615218 	-0.004222833967 	-7.757920337e-08 	0.01797493933 	3.642373609e-07 	3.426523024e-05
0.4685397235 	0.02004621256 	-0.003653242411 	-7.304228788e-08 	0.01772222966 	3.494356567e-07 	3.378349537e-05
0.4754691032 	0.01955403504 	-0.003088277983 	-6.868018103e-08 	0.01750549754 	3.338810475e-07 	3.337034371e-05
0.4824758482 	0.01914086879 	-0.002528464461 	-6.430528852e-08 	0.01732134797 	3.180707292e-07 	3.301930346e-05
0.48956208 	0.01880911521 	-0.001974878225 	-6.007658111e-08 	0.01716823381 	3.018820889e-07 	3.27274253e-05
0.4967273963 	0.0185631078 	-0.00142801765 	-5.635505477e-08 	0.01705029815 	2.849741076e-07 	3.250260716e-05
0.5038929853 	0.01840507281 	-0.0008911706113 	-5.272448493e-08 	0.01697230366 	2.682303737e-07 	3.235392799e-05
0.5109803352 	0.01833125398 	-0.0003696009796 	-4.903380014e-08 	0.01693251992 	2.524711143e-07 	3.227808912e-05
0.5179894793 	0.01833399958 	0.0001353008616 	-4.547687973e-08 	0.01692589958 	2.377245251e-07 	3.22654689e-05
0.524921636 	0.01840497197 	0.0006244165798 	-4.202900468e-08 	0.0169478692 	2.239790477e-07 	3.230734911e-05
0.531777805 	0.01853608272 	0.001098430378 	-3.865138714e-08 	0.0169946167 	2.112414618e-07 	3.239646283e-05
0.538558318 	0.01871962386 	0.001557838575 	-3.53147129e-08 	0.01706287664 	1.994962432e-07 	3.252658526e-05
0.5452643442 	0.0189483942 	0.002003171369 	-3.201613001e-08 	0.01714977287 	1.887147104e-07 	3.269223363e-05
0.5518967112 	0.01921575941 	0.002434946087 	-2.87611788e-08 	0.01725285192 	1.788787979e-07 	3.288873094e-05
0.5584558909 	0.01951567962 	0.002853643322 	-2.555399675e-08 	0.01736998139 	1.699368223e-07 	3.311201227e-05
0.5649429425 	0.01984273857 	0.003259762874 	-2.240267436e-08 	0.01749932662 	1.618299826e-07 	3.335858023e-05
0.5713586812 	0.02019210723 	0.003653773961 	-1.931874857e-08 	0.0176393137 	1.545161621e-07 	3.362543451e-05
0.5777036221 	0.02055950838 	0.004036109351 	-1.631035008e-08 	0.01778859377 	1.479311259e-07 	3.391000381e-05
0.583978692 	0.02094120881 	0.004407214807 	-1.338656515e-08 	0.01794601848 	1.420090232e-07 	3.421009906e-05
0.5901847713 	0.02133395625 	0.004767511812 	-1.055737536e-08 	0.0181106144 	1.367035367e-07 	3.452386463e-05
0.5963223658 	0.02173492264 	0.005117384128 	-7.82954891e-09 	0.01828155476 	1.319557247e-07 	3.484972447e-05
0.6023922714 	0.02214169261 	0.005457221864 	-5.209519066e-09 	0.01845814357 	1.277045239e-07 	3.518635182e-05
0.6083954574 	0.02255220913 	0.00578740122 	-2.703271626e-09 	0.01863979946 	1.239059611e-07 	3.553263843e-05
0.6143323969 	0.02296471165 	0.006108261188 	-3.14230291e-10 	0.01882603291 	1.205131139e-07 	3.588765115e-05
0.6202038208 	0.02337772754 	0.006420135737 	1.95545082e-09 	0.01901643754 	1.17473612e-07 	3.625061529e-05
0.6260106295 	0.02379004166 	0.006723356525 	4.104745822e-09 	0.01921067935 	1.147442565e-07 	3.662089417e-05
0.6317534071 	0.02420064103 	0.007018224655 	6.135410238e-09 	0.0194084822 	1.122914883e-07 	3.699796137e-05
0.6374328113 	0.02460870012 	0.007305023142 	8.051073869e-09 	0.01960962049 	1.100716882e-07 	3.738138687e-05
0.6430495922 	0.02501357452 	0.007584038447 	9.856772945e-09 	0.01981391205 	1.080444362e-07 	3.777082335e-05
0.6486045051 	0.02541476189 	0.007855538216 	1.156109507e-08 	0.02002121205 	1.061833528e-07 	3.816599477e-05
0.6540981175 	0.02581187848 	0.008119766941 	1.317483087e-08 	0.02023140403 	1.044567941e-07 	3.856667912e-05
0.6595311055 	0.02620466059 	0.008376965583 	1.47102527e-08 	0.02044439683 	1.028324097e-07 	3.897270258e-05
0.6649042208 	0.02659295006 	0.008627371386 	1.618176807e-08 	0.02066012095 	1.012852731e-07 	3.938393272e-05
0.6702180788 	0.02697666823 	0.008871203266 	1.760667511e-08 	0.0208785232 	9.980195368e-08 	3.98002681e-05
0.6754732958 	0.02735580989 	0.009108667393 	1.900145939e-08 	0.02109956323 	9.8364877e-08 	4.022163184e-05
0.680670519 	0.02773044463 	0.009339970668 	2.038132949e-08 	0.02132320996 	9.696307221e-08 	4.064796467e-05
0.6858104664 	0.02810069915 	0.009565310792 	2.17600946e-08 	0.02154944312 	9.559866072e-08 	4.107922794e-05
0.6908936988 	0.02846673777 	0.009784878062 	2.314340936e-08 	0.02177828326 	9.427853504e-08 	4.151546086e-05
0.695920835 	0.02882885462 	0.009999095525 	2.447571479e-08 	0.02200992088 	9.299149306e-08 	4.195702654e-05
0.7008924939 	0.0291876303 	0.01020824867 	2.580504211e-08 	0.02224310621 	9.211864543e-08 	4.240154259e-05
0.7058093461 	0.02954522051 	0.01041597898 	2.631068311e-08 	0.02247697813 	9.141608139e-08 	4.284736747e-05
0.7106719389 	0.02991559348 	0.01064995548 	2.1292134e-08 	0.02270714493 	9.184070233e-08 	4.328612936e-05
0.7154808702 	0.03027001922 	0.01087136029 	2.841398095e-08 	0.02295291088 	8.737496893e-08 	4.375462758e-05
0.720236732 	0.03058224415 	0.01103124297 	3.943020454e-08 	0.02323725031 	8.032968278e-08 	4.429665755e-05
0.724940145 	0.03089069874 	0.01117150907 	3.77370992e-08 	0.02354986751 	7.693292707e-08 	4.489259282e-05
0.729591658 	0.03122228888 	0.01131899744 	3.629632835e-08 	0.02387774888 	7.445582995e-08 	4.551762584e-05
0.7341918387 	0.03157957859 	0.01147151009 	3.530367521e-08 	0.02421434979 	7.309057332e-08 	4.615928073e-05
0.7387412535 	0.03195943242 	0.01162742406 	3.457761255e-08 	0.0245554533 	7.231910442e-08 	4.680951882e-05
0.7432404775 	0.03235580553 	0.01178517019 	3.413004185e-08 	0.02489771384 	7.207008136e-08 	4.746196254e-05
0.7476900611 	0.03276184291 	0.01194310638 	3.386353128e-08 	0.02523805559 	7.209125376e-08 	4.811074852e-05
0.7520905407 	0.03317126812 	0.01209987082 	3.365172319e-08 	0.02557416386 	7.210156018e-08 	4.87514643e-05
0.7564424581 	0.03357907157 	0.01225448436 	3.337367449e-08 	0.02590455108 	7.1852149e-08 	4.938127416e-05
0.7607463499 	0.03398167505 	0.01240633876 	3.293265344e-08 	0.02622844776 	7.115758048e-08 	4.999871126e-05
0.7650027615 	0.03437678165 	0.01255511939 	3.226352398e-08 	0.02654559892 	6.99049213e-08 	5.060328951e-05
0.7692122007 	0.03476308517 	0.01270070587 	3.132893245e-08 	0.02685604341 	6.80405691e-08 	5.119508299e-05
0.773375186 	0.03513995673 	0.0128430814 	3.011191371e-08 	0.02715993083 	6.555102229e-08 	5.177437688e-05
0.7774922298 	0.03550716825 	0.01298226406 	2.860976514e-08 	0.02745739576 	6.244798734e-08 	5.23414277e-05
0.781563842 	0.03586467812 	0.0131182624 	2.682793522e-08 	0.02774848743 	5.875482279e-08 	5.289632934e-05
0.7855905287 	0.03621248296 	0.01325105168 	2.477655992e-08 	0.02803314243 	5.449966411e-08 	5.343896088e-05
0.7895727781 	0.0365505275 	0.01338056489 	2.246568065e-08 	0.02831118488 	4.970613767e-08 	5.396898708e-05
0.7935110805 	0.0368786609 	0.01350669358 	1.990434527e-08 	0.02858234263 	4.439266875e-08 	5.44858891e-05
0.797405921 	0.03719662493 	0.01362929376 	1.710068041e-08 	0.0288462688 	3.8573852e-08 	5.498900574e-05
0.8012577807 	0.03750406193 	0.01374819368 	1.406210705e-08 	0.02910256347 	3.226194087e-08 	5.547757461e-05
0.8050671369 	0.03780053266 	0.01386320192 	1.079616152e-08 	0.02935079251 	2.546948749e-08 	5.595076816e-05
0.8088344542 	0.03808553694 	0.0139741143 	7.310048309e-09 	0.02959050238 	1.820885204e-08 	5.64077218e-05
0.8125601965 	0.03835853267 	0.01408071979 	3.611472071e-09 	0.02982123157 	1.049432824e-08 	5.684755575e-05
0.8162448224 	0.03861895079 	0.01418280479 	-2.907305298e-10 	0.03004251847 	2.343675241e-09 	5.726939009e-05
0.8198887859 	0.03886620575 	0.01428015613 	-4.386348417e-09 	0.03025390649 	-6.221404749e-09 	5.767235441e-05
0.8234925387 	0.03909970291 	0.01437256295 	-8.663815715e-09 	0.03045494721 	-1.517549249e-08 	5.805559389e-05
0.8270565217 	0.03931884479 	0.01445981788 	-1.31104497e-08 	0.03064520187 	-2.449046772e-08 	5.841827217e-05
0.8305811736 	0.03952303885 	0.01454171776 	-1.771220716e-08 	0.03082424205 	-3.413587995e-08 	5.87595725e-05
0.8340669283 	0.0397117088 	0.01461806419 	-2.245394714e-08 	0.03099164926 	-4.408050289e-08 	5.907869717e-05
0.8375142152 	0.03988431047 	0.01468866382 	-2.731979913e-08 	0.03114701336 	-5.429426635e-08 	5.937486433e-05
0.8409234592 	0.04004035173 	0.01475332844 	-3.229350753e-08 	0.03128992977 	-6.474975533e-08 	5.964730272e-05
0.844295081 	0.04017941343 	0.01481187497 	-3.73592532e-08 	0.03141999567 	-7.542360601e-08 	5.989524448e-05
0.8476294945 	0.04030116578 	0.01486412499 	-4.250033815e-08 	0.0315368057 	-8.629204022e-08 	6.011791686e-05
0.8509271103 	0.04040537268 	0.01490990427 	-4.769848292e-08 	0.03163994904 	-9.732616817e-08 	6.031453674e-05
0.8541883344 	0.04049187594 	0.01494904256 	-5.29338903e-08 	0.03172901019 	-1.084885883e-07 	6.048431204e-05
0.8574135685 	0.0405605538 	0.01498137421 	-5.818586473e-08 	0.03180357618 	-1.197324819e-07 	6.062645555e-05
0.8606032099 	0.0406112542 	0.01500674086 	-6.343353671e-08 	0.03186325361 	-1.310029195e-07 	6.074021732e-05
0.8637576519 	0.04064371189 	0.01502499746 	-6.865506158e-08 	0.0319076979 	-1.422351948e-07 	6.082494049e-05
0.8668772823 	0.04065746901 	0.01503602393 	-7.381673812e-08 	0.03193665758 	-1.533283511e-07 	6.088014569e-05