0.3985144112 	0.02370268696 	-0.004080952906 	-1.326307525e-07
0.3985144112 	0.02370268696 	-0.004080952906 	-1.326307525e-07
0.3987124635 	0.06920407121 	-0.01193138296 	-6.268278168e-07
0.3989105207 	0.1399355165 	-0.02411414315 	-1.384223701e-06
0.3991085821 	0.2121238697 	-0.03650448327 	-2.253002051e-06
0.3993066473 	0.2855063006 	-0.04906944242 	-3.225658904e-06
0.3995047155 	0.3594788096 	-0.06170400722 	-4.288568917e-06
0.3997027863 	0.4329976345 	-0.07422771623 	-5.418424312e-06
0.399900859 	0.5047047068 	-0.08640955264 	-6.576927574e-06
0.4000989332 	0.5732718906 	-0.09802625088 	-7.715093511e-06
0.4002970082 	0.6377427904 	-0.1089169811 	-8.785667067e-06
0.4004950834 	0.6976642398 	-0.1190051569 	-9.7538463e-06
0.4006931583 	0.7530097713 	-0.1282868003 	-1.060230556e-05
0.4008912323 	0.8040242632 	-0.1368059266 	-1.13208958e-05
0.4010893049 	0.851109566 	-0.1446354236 	-1.190312265e-05
0.4012873754 	0.8947563135 	-0.1518600733 	-1.235786099e-05
0.4014854434 	0.9354254478 	-0.1585582291 	-1.270555232e-05
0.4016835082 	0.9734606896 	-0.1647920546 	-1.296623973e-05
0.4018815693 	1.009127849 	-0.1706092641 	-1.315110254e-05
0.4020796261 	1.04266187 	-0.1760504154 	-1.326546365e-05
0.4022776781 	1.074272723 	-0.1811524577 	-1.331493094e-05
0.4024757247 	1.104147493 	-0.1859483447 	-1.330465574e-05
0.4026737653 	1.132452379 	-0.1904673347 	-1.323928399e-05
0.4028717994 	1.159334336 	-0.1947352984 	-1.312297933e-05
0.4030698264 	1.184922972 	-0.1987750641 	-1.295945054e-05
0.4032678458 	1.209332745 	-0.2026068023 	-1.275198141e-05
0.4034658569 	1.232664946 	-0.206248373 	-1.250347509e-05
0.4036638593 	1.255009408 	-0.2097156252 	-1.221649934e-05
0.4038618524 	1.276446024 	-0.2130226622 	-1.189333027e-05
0.4040598357 	1.297046141 	-0.2161820875 	-1.1535994e-05
0.4042578085 	1.316873954 	-0.2192052697 	-1.114630433e-05
0.4044557703 	1.338580801 	-0.2224959709 	-1.075440163e-05
0.4047633343 	1.364529887 	-0.2263965624 	-1.001647351e-05
0.4050766481 	1.391992808 	-0.2304899264 	-9.224584976e-06
0.4053958166 	1.41858808 	-0.2344164865 	-8.352366261e-06
0.4057209459 	1.444385695 	-0.2381884646 	-7.40032093e-06
0.4060521443 	1.469448618 	-0.2418168685 	-6.368845582e-06
0.4063895215 	1.493833032 	-0.2453115186 	-5.258265356e-06
0.4067331892 	1.517589008 	-0.2486811578 	-4.068870866e-06
0.4070832607 	1.54076123 	-0.2519335782 	-2.80095146e-06
0.4074398513 	1.563389654 	-0.2550757368 	-1.454820874e-06
0.4078030778 	1.58551008 	-0.258113857 	-3.083513994e-08
0.4078108127 	1.585962571 	-0.2581753218 	-2.500697671e-06
0.4081725207 	1.607146795 	-0.2610525369 	-1.498301405e-06
0.4085488195 	1.628336322 	-0.2638977283 	-3.105032897e-06
0.4089321083 	1.649104889 	-0.2666539543 	-4.788193698e-06
0.4093225113 	1.669476011 	-0.2693252685 	-6.547157429e-06
0.4097201548 	1.689470931 	-0.2719153248 	-8.381232337e-06
0.4101251668 	1.70910886 	-0.2744274219 	-1.028965005e-05
0.4105376773 	1.728407191 	-0.2768645428 	-1.227155363e-05
0.4109578179 	1.747403449 	-0.2792320874 	-1.432625157e-05
0.4113876857 	1.76614734 	-0.2815366319 	-1.64653744e-05
0.4118269536 	1.784642658 	-0.2837790657 	-1.868959091e-05
0.4122743862 	1.802864173 	-0.2859567844 	-2.099084381e-05
0.412730134 	1.820808501 	-0.2880698405 	-2.336868531e-05
0.4131943501 	1.838486082 	-0.2901199784 	-2.582283834e-05
0.4136671905 	1.855906491 	-0.2921087873 	-2.835298375e-05
0.4141488139 	1.873078525 	-0.2940377179 	-3.09587563e-05
0.4146393819 	1.890010282 	-0.2959080962 	-3.363974112e-05
0.4151390593 	1.906709227 	-0.2977211362 	-3.639547044e-05
0.4156480135 	1.923182263 	-0.2994779507 	-3.922542041e-05
0.4161664152 	1.939435781 	-0.3011795616 	-4.212900832e-05
0.4166944381 	1.955475726 	-0.3028269093 	-4.510559005e-05
0.4172322591 	1.971307636 	-0.304420861 	-4.815445779e-05
0.4177800583 	1.986936696 	-0.3059622188 	-5.127483813e-05
0.418338019 	2.002367776 	-0.3074517264 	-5.44658905e-05
0.418906328 	2.017605472 	-0.3088900763 	-5.772670589e-05
0.4194851754 	2.032654138 	-0.3102779148 	-6.105630609e-05
0.4200747546 	2.047517924 	-0.3116158483 	-6.445364317e-05
0.4206752628 	2.0622008 	-0.3129044472 	-6.791759935e-05
0.4212869005 	2.076706583 	-0.3141442511 	-7.144698706e-05
0.421909872 	2.091038963 	-0.315335772 	-7.504054873e-05
0.4225443853 	2.105201513 	-0.3164794978 	-7.869695946e-05
0.4231906521 	2.119204369 	-0.3175764199 	-8.241509803e-05
0.4238501406 	2.133075197 	-0.318628744 	-8.620257443e-05
0.4245253395 	2.146826775 	-0.3196372856 	-9.007216651e-05
0.4252130261 	2.160435743 	-0.3206004296 	-9.399844836e-05
0.4259134289 	2.173887888 	-0.3215172041 	-9.797889059e-05
0.4266267807 	2.18718668 	-0.3223880606 	-0.0001020116502
0.4273533182 	2.200335556 	-0.3232134235 	-0.0001060948204
0.4280932826 	2.213337947 	-0.3239937079 	-0.0001102264373
0.4288469195 	2.226197274 	-0.3247293216 	-0.0001144044849
0.4296144787 	2.23891695 	-0.3254206656 	-0.0001186268973
0.430396215 	2.251500385 	-0.3260681339 	-0.0001228915608
0.4311923873 	2.263950981 	-0.3266721138 	-0.0001271963168
0.4320032595 	2.276272132 	-0.3272329854 	-0.0001315389637
0.4328291002 	2.288467219 	-0.3277511216 	-0.0001359172596
0.4336701831 	2.30053961 	-0.3282268882 	-0.0001403289249
0.4345267865 	2.312492657 	-0.3286606435 	-0.0001447716525
0.435399194 	2.324332747 	-0.3290528408 	-0.0001492432109
0.4362886099 	2.336082117 	-0.329404365 	-0.0001537473868
0.4371993628 	2.347756226 	-0.3297156232 	-0.0001583055043
0.4381268879 	2.360789857 	-0.3300249336 	-0.0001629106356
0.4395501106 	2.376513131 	-0.3303168875 	-0.0001697812991
0.4409884004 	2.393187166 	-0.3305533584 	-0.0001760480552
0.44244192 	2.409386802 	-0.3307006847 	-0.0001690610782
0.443910834 	2.425140766 	-0.3307637366 	-0.0001620112502
0.4453953093 	2.440475671 	-0.3307469525 	-0.0001549126508
0.4468955146 	2.45541594 	-0.3306544126 	-0.0001477782243
0.448411621 	2.470002826 	-0.3304896531 	-0.0001406196661
0.449951937 	2.4842766 	-0.3302552269 	-0.0001333995722
0.4515094159 	2.498234829 	-0.3299544097 	-0.0001261782738
0.4530833577 	2.511873585 	-0.3295901664 	-0.0001189711928
0.4546739418 	2.525206497 	-0.3291652097 	-0.0001117873699
0.4562813499 	2.538247539 	-0.3286819313 	-0.0001046351067
0.4579057659 	2.551009201 	-0.3281424758 	-9.752206385e-05
0.4595473762 	2.563505384 	-0.3275486416 	-9.045525101e-05
0.4612079065 	2.575761669 	-0.3269012571 	-8.343222207e-05
0.4628933738 	2.587795813 	-0.3262008735 	-7.643157965e-05
0.4645966365 	2.599596246 	-0.325449779 	-6.950398281e-05
0.4663178905 	2.611156103 	-0.3246497362 	-6.265508478e-05
0.4680573339 	2.62248029 	-0.3238018385 	-5.588979388e-05
0.4698151678 	2.633572522 	-0.3229069741 	-4.921257966e-05
0.4715915958 	2.644436586 	-0.3219657892 	-4.262747584e-05
0.4733876059 	2.655086525 	-0.3209777472 	-3.613402482e-05
0.4752105253 	2.66553273 	-0.3199420248 	-2.970543581e-05
0.477052684 	2.675760027 	-0.3188604114 	-2.33885435e-05
0.4789142958 	2.68575667 	-0.3177342334 	-1.718624599e-05
0.480795578 	2.695521552 	-0.3165639388 	-1.110089492e-05
0.4826967503 	2.705053173 	-0.315349911 	-5.134514951e-06
0.4843826563 	2.71321579 	-0.3142458758 	1.267651089e-05
0.48461787 	2.714354258 	-0.3140913722 	-7.255969043e-07
0.4865627896 	2.72342662 	-0.3127845028 	-6.586055877e-06
0.488532044 	2.732273263 	-0.3114330003 	-1.233056156e-05
0.4905221263 	2.740882361 	-0.310038797 	-1.793992368e-05
0.4925332712 	2.74924909 	-0.3086031288 	-2.341304143e-05
0.494565717 	2.757373249 	-0.3071267523 	-2.874895588e-05
0.4966197052 	2.765258763 	-0.3056097849 	-3.394671603e-05
0.4986993654 	2.772913695 	-0.3040515017 	-3.901927632e-05
0.500805203 	2.780338491 	-0.3024527326 	-4.395869267e-05
0.5029333272 	2.787527081 	-0.3008160077 	-4.874694325e-05
0.5050839924 	2.794478693 	-0.2991431212 	-5.338389579e-05
0.507257457 	2.80119658 	-0.2974352085 	-5.7869463e-05
0.5094539826 	2.807688732 	-0.2956922118 	-6.220332332e-05
0.5116800765 	2.813964284 	-0.2939135505 	-6.640276259e-05
0.5139311403 	2.820022414 	-0.2921014703 	-7.044443162e-05
0.5162060616 	2.825862011 	-0.2902585238 	-7.432457068e-05
0.5185051168 	2.83148674 	-0.2883861453 	-7.80442437e-05
0.5208285862 	2.836903192 	-0.2864847496 	-8.160426768e-05
0.523180392 	2.842119783 	-0.2845538865 	-8.50145979e-05
0.5255607218 	2.847140129 	-0.2825946438 	-8.826765544e-05
0.5279663095 	2.851964232 	-0.2806095648 	-9.135378413e-05
0.530397451 	2.856594788 	-0.2786003589 	-9.427525677e-05
0.5328544466 	2.861037623 	-0.2765673662 	-9.703378129e-05
0.5353409917 	2.865299758 	-0.2745101003 	-9.963801387e-05
0.5378573206 	2.869384568 	-0.2724295005 	-0.0001020812906
0.5404003993 	2.873292703 	-0.2703278622 	-0.0001043569781
0.5429705454 	2.877026707 	-0.2682066778 	-0.0001064683768
0.5455680808 	2.880591758 	-0.2660658119 	-0.0001084179412
0.5481981886 	2.883993236 	-0.2639046268 	-0.0001102152431
0.5508576999 	2.887232358 	-0.2617246509 	-0.0001118485788
0.5535455538 	2.890309863 	-0.2595277443 	-0.0001133192383
0.556262091 	2.893228328 	-0.2573144634 	-0.0001117141239
0.5590093701 	2.895991244 	-0.2550841878 	-0.0001074062557
0.5617900605 	2.898600476 	-0.2528368444 	-0.000103242366
0.5646004358 	2.901055056 	-0.2505740548 	-9.923209397e-05
0.5674408566 	2.903354281 	-0.2482968162 	-9.537247135e-05
0.5703118841 	2.905498161 	-0.2460043259 	-9.165890254e-05
0.5732187732 	2.907485306 	-0.2436955435 	-8.808435255e-05
0.5761567623 	2.909310523 	-0.2413715908 	-8.466123198e-05
0.5791262329 	2.910968012 	-0.2390332034 	-8.138603135e-05
0.5821275725 	2.912452392 	-0.2366793423 	-7.825387491e-05
0.5851658635 	2.913758207 	-0.2343087939 	-7.525749863e-05
0.5882368608 	2.91487987 	-0.2319225718 	-7.240605058e-05
0.591340855 	2.915815485 	-0.2295217047 	-6.969415037e-05
0.5944786826 	2.916568112 	-0.2271060449 	-6.711461312e-05
0.5976542396 	2.917145166 	-0.2246757223 	-6.466300673e-05
0.6008639663 	2.917557104 	-0.2222327409 	-6.234427463e-05
0.6041082905 	2.917817015 	-0.2197786693 	-6.015279486e-05
0.6073891503 	2.917938428 	-0.2173139432 	-5.808166747e-05
0.6107078431 	2.917933502 	-0.2148393957 	-5.61328579e-05
0.6140623721 	2.91781243 	-0.2123566577 	-5.430611636e-05
0.6174531904 	2.917583444 	-0.2098664081 	-5.259541092e-05
0.620883615 	2.91725278 	-0.2073686043 	-5.099522062e-05
0.6243517981 	2.916825022 	-0.2048642233 	-4.950924676e-05
0.6278575798 	2.91630373 	-0.2023540618 	-4.813187034e-05
0.6314026713 	2.91569144 	-0.1998380859 	-4.685601673e-05
0.6349881336 	2.91498997 	-0.1973164808 	-4.568268057e-05
0.6386125585 	2.914200763 	-0.1947900026 	-4.460884405e-05
0.642276724 	2.913324716 	-0.1922587531 	-4.362730698e-05
0.6459832748 	2.91236222 	-0.1897225154 	-4.273577345e-05
0.64973021 	2.911313534 	-0.1871819427 	-4.193366717e-05
0.6535180509 	2.910178523 	-0.1846371853 	-4.121381634e-05
0.6573495086 	2.908956517 	-0.1820879252 	-4.057205447e-05
0.6612230164 	2.907646771 	-0.1795345865 	-4.000876813e-05
0.665138934 	2.906248174 	-0.176977265 	-3.951683955e-05
0.6690995676 	2.904759031 	-0.1744156544 	-3.909173809e-05
0.6731039138 	2.903177522 	-0.1718499639 	-3.873359567e-05
0.6771522377 	2.901501384 	-0.1692801624 	-3.843535217e-05
0.681246681 	2.899727697 	-0.1667059042 	-3.81928739e-05
0.6853863423 	2.897853328 	-0.1641272481 	-3.800559558e-05
0.6895716523 	2.895874534 	-0.1615440093 	-3.78662974e-05
0.6938046212 	2.893786777 	-0.1589557512 	-3.777208964e-05
0.6980842929 	2.89159133 	-0.1563690965 	-3.772297478e-05
0.7023638346 	2.889302962 	-0.1538054504 	-3.770978845e-05
0.7065967077 	2.886938922 	-0.1512852707 	-3.772787573e-05
0.7107825189 	2.884505056 	-0.1488135284 	-3.777357936e-05
0.71492229 	2.882000624 	-0.1463884789 	-3.783971077e-05
0.7190167156 	2.879424555 	-0.1440084149 	-3.792488788e-05
0.7230657653 	2.876775659 	-0.1416717817 	-3.802414713e-05
0.7270703972 	2.874052416 	-0.1393770437 	-3.813244411e-05
0.7310311116 	2.871253157 	-0.1371227427 	-3.824939411e-05
0.7349480478 	2.868376192 	-0.134907539 	-3.837111224e-05
0.7388220362 	2.86541964 	-0.1327301336 	-3.849391539e-05
0.7426535726 	2.862381608 	-0.1305893018 	-3.861799685e-05
0.7464428493 	2.859260325 	-0.1284839351 	-3.874058938e-05
0.7501905479 	2.856053975 	-0.126412978 	-3.885881741e-05
0.7538972527 	2.85276085 	-0.1243754271 	-3.897311639e-05
0.7575631456 	2.849379531 	-0.1223704031 	-3.787610277e-05
0.7611887622 	2.845908719 	-0.1203970779 	-3.619618378e-05
0.7647748095 	2.842347312 	-0.1184546502 	-3.456477917e-05
0.7683214281 	2.838694664 	-0.1165424419 	-3.298090083e-05
0.7718290835 	2.834950415 	-0.1146598169 	-3.144473776e-05
0.7752984274 	2.831114478 	-0.1128061588 	-2.995539484e-05
0.7787297262 	2.827187256 	-0.1109809243 	-2.851085476e-05
0.7821233653 	2.823169568 	-0.1091836094 	-2.711094689e-05
0.7854798396 	2.819062531 	-0.1074137325 	-2.575535215e-05
0.788799627 	2.814867626 	-0.10567082 	-2.44420937e-05
0.7920830061 	2.810586736 	-0.1039544336 	-2.317035569e-05
0.795330395 	2.806221971 	-0.1022641431 	-2.193984535e-05
0.7985422953 	2.801775581 	-0.1005995041 	-2.074974661e-05
0.8017190362 	2.797249982 	-0.09896007441 	-1.95983145e-05
0.8048609729 	2.792647661 	-0.09734541003 	-1.848511861e-05
0.8079685004 	2.787971 	-0.09575505549 	-1.740977383e-05
0.811042089 	2.783222219 	-0.09418853157 	-1.637118792e-05
0.8140820236 	2.778403391 	-0.09264535768 	-1.536804763e-05
0.8170886756 	2.77351633 	-0.09112504611 	-1.439992643e-05
0.820062419 	2.768562469 	-0.08962709672 	-1.346635491e-05
0.8230036812 	2.763542867 	-0.08815099613 	-1.256621412e-05
0.8259127482 	2.758458241 	-0.08669623498 	-1.169836254e-05
0.8287899789 	2.753308917 	-0.0852623073 	-1.086228686e-05
0.8316357286 	2.748094782 	-0.08384870677 	-1.005743621e-05
0.8344503826 	2.74281532 	-0.08245493 	-9.282853013e-06
0.8372342416 	2.737469673 	-0.0810804828 	-8.537364173e-06
0.8399876419 	2.732056643 	-0.07972488316 	-7.820393306e-06
0.8427109212 	2.72657469 	-0.07838766126 	-7.131352692e-06
0.8454044284 	2.72102197 	-0.07706835923 	-6.469518521e-06
0.8480684794 	2.715396381 	-0.07576652946 	-5.833724116e-06
0.850703385 	2.709695601 	-0.07448173798 	-5.223326066e-06
0.8533094671 	2.703917104 	-0.07321356965 	-4.637751725e-06
0.8558870443 	2.69805817 	-0.07196161969 	-4.076426924e-06
0.8584364432 	2.692115913 	-0.07072549539 	-3.538464617e-06
0.8609579507 	2.686087333 	-0.06950481512 	-3.023051048e-06
0.8634518736 	2.679969322 	-0.06829921201 	-2.529658278e-06
0.865918515 	2.673758667 	-0.06710832949 	-2.057763279e-06
0.8683581774 	2.667452072 	-0.06593182285 	-1.606832438e-06
0.8707711573 	2.661046166 	-0.06476935509 	-1.176050253e-06
0.8731577363 	2.654537537 	-0.06362059653 	-7.648216144e-07
0.8755182041 	2.647922734 	-0.06248523067 	-3.72679075e-07
0.8778475053 	2.641213655 	-0.06136551482 	1.292557999e-07
0.8778528463 	2.64119827 	-0.06136294592 	-7.945758896e-10
0.8801617703 	2.634360518 	-0.06025301465 	-3.379345459e-07
0.8824454411 	2.627406067 	-0.05915558928 	-6.583372453e-07
0.8847041277 	2.620331389 	-0.05807037992 	-9.624948864e-07
0.8869381035 	2.613132961 	-0.05699710778 	-1.250800115e-06
0.8891476383 	2.605807276 	-0.05593549972 	-1.52363747e-06
0.8913329993 	2.59835084 	-0.0548852899 	-1.781383399e-06
0.8934944521 	2.590760182 	-0.05384622043 	-2.024499096e-06
0.8956322522 	2.583031864 	-0.05281803715 	-2.253463758e-06
0.8977466575 	2.575162488 	-0.05180049361 	-2.468615839e-06
0.8998379232 	2.56714869 	-0.05079335178 	-2.670285243e-06
0.9019063017 	2.558987146 	-0.0497963777 	-2.858793973e-06
0.9039520431 	2.550674559 	-0.04880934621 	-3.034461572e-06
0.9059753932 	2.542207651 	-0.04783203661 	-3.197699747e-06
0.9079765939 	2.533583162 	-0.04686423155 	-3.348842041e-06
0.9099558866 	2.52479783 	-0.04590572161 	-3.488170278e-06
0.9119135102 	2.515848371 	-0.04495630176 	-3.6159592e-06
0.9138497008 	2.506731454 	-0.04401577004 	-3.732476366e-06
0.9157646922 	2.497443669 	-0.04308393041 	-3.837985045e-06
0.9176587147 	2.487981492 	-0.04216058913 	-3.932807087e-06
0.9195319953 	2.47834125 	-0.04124555304 	-4.017216535e-06
0.9213847601 	2.468519085 	-0.04033863315 	-4.091448699e-06
0.9232172326 	2.458510902 	-0.03943964216 	-4.155733561e-06
0.9250296339 	2.448312322 	-0.03854839304 	-4.210294817e-06
0.9268221827 	2.437918637 	-0.03766469974 	-4.255348045e-06
0.9285950953 	2.427324748 	-0.03678837786 	-4.291116088e-06
0.9303485844 	2.41652512 	-0.03591924077 	-4.317837248e-06
0.9320828617 	2.405513727 	-0.03505710095 	-4.335699365e-06
0.9337981364 	2.394284 	-0.03420177207 	-4.344886148e-06
0.9354946155 	2.382828772 	-0.03335306621 	-4.345578985e-06
0.9371725039 	2.371140226 	-0.03251079436 	-4.337955878e-06
0.9388320042 	2.359209841 	-0.0316747671 	-4.322190914e-06
0.9404733165 	2.347028336 	-0.03084479578 	-4.298465228e-06
0.9420966385 	2.334585619 	-0.03002069007 	-4.266969909e-06
0.9437021662 	2.321870735 	-0.02920225978 	-4.227867328e-06
0.9452900935 	2.308871818 	-0.02838931725 	-4.181318085e-06
0.9468606123 	2.295576032 	-0.02758167625 	-4.127483284e-06
0.9484139124 	2.281969531 	-0.0267791535 	-4.066525855e-06
0.9499501814 	2.268037413 	-0.02598156985 	-3.998611349e-06
0.9514696049 	2.25376369 	-0.02518875318 	-3.923909403e-06
0.9529723665 	2.239131286 	-0.02440053899 	-3.842606604e-06
0.9544586475 	2.224122067 	-0.02361677213 	-3.754888438e-06
0.9559286278 	2.208716945 	-0.02283731682 	-3.660940852e-06
0.957382485 	2.192896081 	-0.02206205247 	-3.560964758e-06
0.9588203951 	2.178032518 	-0.02135585745 	-3.469634019e-06
0.9597571038 	2.165710361 	-0.0207863127 	-3.3828962e-06
0.9606765719 	2.154694489 	-0.02028879459 	-3.30899151e-06
0.9615791158 	2.143595228 	-0.0197985029 	-3.233735878e-06
0.9624650466 	2.132410377 	-0.01931532824 	-3.157273141e-06
0.9633346692 	2.121138194 	-0.01883917023 	-3.079745507e-06
0.9641882832 	2.109777243 	-0.01836993947 	-3.001294514e-06
0.9650261827 	2.098326306 	-0.01790755316 	-2.922058087e-06
0.9658486563 	2.086784309 	-0.01745193441 	-2.842171055e-06
0.9666559876 	2.075150282 	-0.01700301143 	-2.761766092e-06
0.9674484547 	2.06342333 	-0.01656071704 	-2.680973719e-06
0.9682263307 	2.051602602 	-0.01612498839 	-2.599922296e-06
0.9689898839 	2.039687279 	-0.01569576662 	-2.518737917e-06
0.9697393775 	2.027676552 	-0.01527299665 	-2.437544241e-06
0.9704750697 	2.015569605 	-0.0148566269 	-2.356462296e-06
0.9711972145 	2.003365602 	-0.01444660907 	-2.275610287e-06
0.9719060607 	1.991063668 	-0.01404289794 	-2.195103407e-06
0.9726018528 	1.978662871 	-0.01364545107 	-2.115053659e-06
0.9732848309 	1.966162212 	-0.01325422862 	-2.035569664e-06
0.9739552305 	1.953560601 	-0.01286919313 	-1.956756429e-06
0.9746132828 	1.940856841 	-0.01249030919 	-1.878715068e-06
0.9752592151 	1.928049611 	-0.01211754342 	-1.801542524e-06
0.97589325 	1.915137443 	-0.01175086406 	-1.725331582e-06
0.9765156064 	1.902118705 	-0.0113902407 	-1.650169888e-06
0.9771264991 	1.888991574 	-0.01103564424 	-1.576140162e-06
0.9777261389 	1.875754016 	-0.01068704659 	-1.503320847e-06
0.9783147328 	1.862403758 	-0.01034442048 	-1.431787089e-06
0.978892484 	1.848938261 	-0.01000773934 	-1.361612053e-06
0.9794595919 	1.835354693 	-0.009676977169 	-1.292868019e-06
0.9800162523 	1.821649893 	-0.009352108524 	-1.225626428e-06
0.9805626574 	1.807820348 	-0.009033108489 	-1.159956185e-06
0.981098996 	1.793862146 	-0.008719952649 	-1.095920159e-06
0.9816254531 	1.779770943 	-0.008412616941 	-1.033572051e-06
0.9821422107 	1.76554191 	-0.008111077346 	-9.729576418e-07
0.9826494471 	1.751169689 	-0.007815309576 	-9.14119027e-07
0.9831473377 	1.736648337 	-0.007525288915 	-8.516148604e-07
0.9836360544 	1.721971275 	-0.007240990189 	-7.893199144e-07
0.984115766 	1.707131215 	-0.006962387778 	-7.300842258e-07
0.9845866383 	1.692120094 	-0.006689455666 	-6.738357414e-07
0.9850488339 	1.676928989 	-0.006422167474 	-6.205012663e-07
0.9855025126 	1.661548032 	-0.006160496509 	-5.700065868e-07
0.985947831 	1.64596631 	-0.005904415787 	-5.222765739e-07
0.9863849432 	1.630171749 	-0.005653898064 	-4.772351507e-07
0.9868140001 	1.614150995 	-0.005408915839 	-4.348051347e-07
0.9872351501 	1.59788926 	-0.005169441404 	-3.94908095e-07
0.9876485387 	1.581370169 	-0.004935446794 	-3.574644105e-07
0.9880543088 	1.564575563 	-0.004706903775 	-3.223938869e-07
0.9884526006 	1.547485284 	-0.004483783879 	-2.896170081e-07
0.9888435519 	1.53007693 	-0.004266058401 	-2.590563925e-07
0.9892272978 	1.512325564 	-0.004053698466 	-2.306367664e-07
0.9896039709 	1.49420338 	-0.00384667519 	-2.042829813e-07
0.9899737016 	1.475679329 	-0.003644959805 	-1.799185647e-07
0.9903366176 	1.456718665 	-0.003448523742 	-1.574660419e-07
0.9906928445 	1.437282442 	-0.003257338695 	-1.368478518e-07
0.9910425054 	1.417326914 	-0.003071376728 	-1.179869779e-07
0.9913857212 	1.396802872 	-0.002890610385 	-1.008072171e-07
0.9917226107 	1.375654895 	-0.002715012537 	-8.523339669e-08
0.9920532903 	1.353820582 	-0.00254455666 	-7.119155257e-08
0.9923778745 	1.331229876 	-0.002379226301 	-5.860681533e-08
0.9926964754 	1.307804776 	-0.002219031559 	-4.739919627e-08
0.9930092033 	1.285577098 	-0.002076938835 	-3.829555606e-08
0.9932104764 	1.266893345 	-0.001964576484 	-3.172363109e-08
0.9934117513 	1.249761488 	-0.001866924638 	-2.642225494e-08
0.9936130281 	1.231887045 	-0.001770322568 	-2.15584175e-08
0.9938143068 	1.213201905 	-0.001674804682 	-1.713090106e-08
0.9940155875 	1.193630362 	-0.001580422946 	-1.313463249e-08
0.99421687 	1.173087505 	-0.001487238341 	-9.562532691e-09
0.9944181544 	1.151477659 	-0.001395316603 	-6.40645495e-09
0.9946194408 	1.128692744 	-0.001304729076 	-3.656885472e-09
0.994820729 	1.10461047 	-0.001215553821 	-1.302299261e-09
0.9950220192 	1.079092341 	-0.001127876618 	6.70603089e-10
0.9952233112 	1.051981509 	-0.001041794837 	2.270457005e-09
0.9954246052 	1.023100658 	-0.0009574274501 	3.507826041e-09
0.995625901 	0.9922498489 	-0.0008749056115 	4.448227557e-09
0.9958271988 	0.9592041333 	-0.0007941049517 	5.749339387e-09
0.9960284984 	0.9237091506 	-0.0007150033418 	5.263355407e-09
0.9962298 	0.8854596743 	-0.0006390083217 	4.102278721e-09
0.9964311034 	0.844058139 	-0.0005661838807 	6.042699392e-09
0.9966324088 	0.7990313989 	-0.000494925661 	6.650699551e-09
0.9968337161 	0.7499196703 	-0.0004264752635 	5.536659698e-09
0.9970350252 	0.6963327877 	-0.0003621061231 	5.391008807e-09
0.9972363363 	0.638011998 	-0.000301276986 	4.93754751e-09
0.9974376493 	0.5749622133 	-0.0002432949575 	4.290716345e-09
0.9976389642 	0.5076005394 	-0.0001877310231 	3.793099219e-09
0.9978402809 	0.4368257322 	-0.0001364528911 	3.58844857e-09
0.9980415996 	0.3638896937 	-9.303220638e-05 	3.302250734e-09
0.9982429202 	0.290072436 	-5.91493711e-05 	2.606557235e-09
0.9984442427 	0.2163564827 	-3.360506272e-05 	1.685866081e-09
0.9986455671 	0.1433073036 	-1.499487658e-05 	8.994212143e-10
0.9988468934 	0.07116440165 	-7.865278883e-06 	-7.958937707e-10
0.9990482216 	0.02958224643 	-7.027540082e-06 	-1.810977164e-09
0.9990482216 	0.02958224643 	-7.027540082e-06 	-1.810977164e-09
