0.1259213289 	5.705834509e-06 	-5.519011395e-08 	-4.531150346e-11 	5.4145199e-06 	-9.385224733e-09 	1.032157982e-08
0.1262793061 	0.0001488344336 	-4.928194316e-06 	-8.1386742e-09 	0.0001174668886 	-2.348051986e-07 	2.239245379e-07
0.1266372716 	0.001132797863 	-4.873074816e-05 	-1.947810441e-07 	0.0006816746565 	-1.285561308e-06 	1.299461357e-06
0.1269952209 	0.004161719722 	-0.000169942675 	-1.053619432e-06 	0.00199656827 	-3.399422509e-06 	3.80601404e-06
0.1273531494 	0.00928167091 	-0.0003597474515 	-2.622534017e-06 	0.003850923618 	-5.661497042e-06 	7.340930725e-06
0.1277110527 	0.01467765828 	-0.0005795634537 	-4.008362985e-06 	0.005800747 	-6.965949678e-06 	1.105783602e-05
0.1280689261 	0.0189553028 	-0.0007994398159 	-4.596786243e-06 	0.007438652248 	-7.106903022e-06 	1.418013865e-05
0.1284267651 	0.02196826174 	-0.001025772664 	-4.258473079e-06 	0.008553489423 	-7.121770879e-06 	1.630532816e-05
0.1287845652 	0.02384802886 	-0.001297363142 	-2.861069412e-06 	0.009305370847 	-9.168481456e-06 	1.773862313e-05
0.1291423219 	0.02479419383 	-0.001649727523 	-6.023930564e-07 	0.01003544502 	-1.378056989e-05 	1.913034742e-05
0.1295000308 	0.02500914835 	-0.002085614348 	2.05036855e-06 	0.01102830559 	-1.879621539e-05 	2.102301561e-05
0.1298576873 	0.0247888529 	-0.002585596049 	4.522188778e-06 	0.01231766869 	-2.289797068e-05 	2.348090005e-05
0.1302152869 	0.02439090936 	-0.003119679389 	6.496607388e-06 	0.01381142353 	-2.58031496e-05 	2.632841194e-05
0.1305728251 	0.02394094458 	-0.003656523636 	8.00424228e-06 	0.01542148844 	-2.724426286e-05 	2.939764314e-05
0.1309302976 	0.02350093711 	-0.004181376268 	9.068048602e-06 	0.01706036131 	-2.739905167e-05 	3.252179034e-05
0.1312876999 	0.02308653923 	-0.004688017714 	9.673967958e-06 	0.01866700313 	-2.653680404e-05 	3.558449618e-05
0.1316450274 	0.02269281776 	-0.005171395293 	9.823586212e-06 	0.02020482189 	-2.489898653e-05 	3.851600616e-05
0.1320022759 	0.02231036684 	-0.00562651334 	9.5460402e-06 	0.02165433459 	-2.267695982e-05 	4.127918025e-05
0.1323594408 	0.02193113039 	-0.006048951547 	8.891890144e-06 	0.02300674187 	-2.002035488e-05 	4.38572444e-05
0.1327165178 	0.0215496195 	-0.006435598971 	7.920569379e-06 	0.02425969659 	-1.704714928e-05 	4.624572433e-05
0.1330735024 	0.02116256069 	-0.006784932778 	6.690633049e-06 	0.02541467569 	-1.385140407e-05 	4.844743551e-05
0.1334303903 	0.0207682478 	-0.007096924657 	5.254179806e-06 	0.02647538353 	-1.050961784e-05 	5.046943945e-05
0.133787177 	0.02036600962 	-0.00737277414 	3.655619065e-06 	0.02744676862 	-7.086564778e-06 	5.232116942e-05
0.1341438583 	0.01995585488 	-0.007614520957 	1.929923661e-06 	0.02833430586 	-3.633918053e-06 	5.401306209e-05
0.1345004297 	0.01953821593 	-0.007824796536 	1.034378293e-07 	0.02914370194 	-1.893601372e-07 	5.555599598e-05
0.1345200979 	0.01951475132 	-0.007834851373 	-4.924982778e-07 	0.02918427325 	1.774698147e-06 	5.563333617e-05
0.1348448873 	0.01911588074 	-0.008020005682 	1.183511653e-06 	0.02987990562 	-3.123514432e-06 	5.695940481e-05
0.1351885373 	0.01868730267 	-0.008190594882 	2.488836826e-06 	0.03054731504 	-6.432242987e-06 	5.823167266e-05
0.1355320768 	0.01825237701 	-0.008338968401 	3.839521481e-06 	0.03115300091 	-9.723197159e-06 	5.938627827e-05
0.1358755018 	0.01781142623 	-0.008469006671 	5.232267986e-06 	0.0317042249 	-1.298608113e-05 	6.043706439e-05
0.1362188085 	0.0173653336 	-0.00858624906 	6.676964702e-06 	0.03220970815 	-1.622416834e-05 	6.140065596e-05
0.1365619928 	0.01685393943 	-0.008700293958 	8.153139055e-06 	0.03272395046 	-1.937255372e-05 	6.238094473e-05
0.1370949704 	0.01621351028 	-0.008784282845 	1.028613291e-05 	0.03326231402 	-2.407504644e-05 	6.340721531e-05
0.1376376367 	0.01555359442 	-0.008736445712 	1.15705557e-05 	0.03368228754 	-2.78958992e-05 	6.420780157e-05
0.1381901456 	0.01493372477 	-0.008579081014 	1.167108173e-05 	0.03394251531 	-3.044658827e-05 	6.470386802e-05
0.1387526518 	0.01430493952 	-0.008419970326 	1.121308725e-05 	0.03412555493 	-3.209418542e-05 	6.505279241e-05
0.1393253109 	0.01370052157 	-0.008236501662 	1.033064187e-05 	0.03420669529 	-3.265595882e-05 	6.520746848e-05
0.1399082793 	0.01318862763 	-0.007960549403 	9.064328579e-06 	0.03411585963 	-3.194219274e-05 	6.503431047e-05
0.1405017138 	0.01275215009 	-0.00763029581 	7.612672181e-06 	0.03388110506 	-3.000037308e-05 	6.458680302e-05
0.1411057722 	0.01233414552 	-0.007334997238 	6.316039804e-06 	0.03359288218 	-2.687093801e-05 	6.40373701e-05
0.1417206121 	0.01196858247 	-0.007061146689 	6.46511893e-06 	0.03323014013 	-2.397184758e-05 	6.334588292e-05
0.1423463917 	0.01166255239 	-0.00680318111 	8.392003442e-06 	0.03279804632 	-2.189902844e-05 	6.252219203e-05
0.1429832692 	0.01138916275 	-0.006583703618 	1.093093969e-05 	0.03233341812 	-1.967019363e-05 	6.163648155e-05
0.1436314025 	0.01114770236 	-0.006403586228 	1.374332176e-05 	0.03184577719 	-1.752543272e-05 	6.07069024e-05
0.1442909495 	0.01093555788 	-0.006258811689 	1.661822916e-05 	0.03134650727 	-1.554161624e-05 	5.975515516e-05
0.1449620674 	0.01074771277 	-0.006143768442 	1.941138523e-05 	0.03084294666 	-1.383502271e-05 	5.879522869e-05
0.1456449128 	0.01058004196 	-0.006053049384 	2.200285878e-05 	0.03034156591 	-1.244429392e-05 	5.783945762e-05
0.1463396412 	0.01042890888 	-0.005981389386 	2.280814591e-05 	0.02984762265 	-1.065320622e-05 	5.689786449e-05
0.1470464072 	0.01029112659 	-0.00592411484 	2.193439983e-05 	0.02936484811 	-8.791215845e-06 	5.597756204e-05
0.1477653637 	0.01016402094 	-0.005877247228 	2.069674523e-05 	0.02889580041 	-7.370190464e-06 	5.508342676e-05
0.1484966621 	0.01004540969 	-0.005837533542 	1.921278935e-05 	0.02844210374 	-6.260776269e-06 	5.42185548e-05
0.1492404515 	0.00993354569 	-0.005802427315 	1.758136347e-05 	0.02800463881 	-5.364658619e-06 	5.338462506e-05
0.1499968789 	0.009827062614 	-0.005770027798 	1.587809379e-05 	0.02758372187 	-4.610869295e-06 	5.258224039e-05
0.1507660886 	0.009724890982 	-0.005738972421 	1.415593607e-05 	0.02717925213 	-3.951099686e-06 	5.181120865e-05
0.1515482218 	0.009626235618 	-0.005708356776 	1.244847058e-05 	0.0267908472 	-3.354765007e-06 	5.107080089e-05
0.1523434163 	0.00953050908 	-0.005677638213 	1.077439338e-05 	0.02641768384 	-2.804331879e-06 	5.035944782e-05
0.153154247 	0.009436644672 	-0.005646329784 	9.136334203e-06 	0.02605619984 	-2.290150706e-06 	4.967035884e-05
0.1540028413 	0.009343474467 	-0.005613626776 	7.496690974e-06 	0.02570442253 	-1.799217735e-06 	4.899977351e-05
0.1548660003 	0.009251668885 	-0.005580071107 	5.896847975e-06 	0.0253641154 	-1.34584626e-06 	4.835105355e-05
0.1557439519 	0.009161786658 	-0.00554587676 	4.333554906e-06 	0.02503730977 	-9.329833777e-07 	4.772807117e-05
0.1566369267 	0.009073701865 	-0.00551109429 	2.80149455e-06 	0.02472335758 	-5.639822279e-07 	4.712959106e-05
0.1575451583 	0.008987260935 	-0.005475782704 	1.295981314e-06 	0.02442159373 	-2.416617543e-07 	4.655434528e-05
0.1583510363 	0.00891321698 	-0.005444545863 	1.871584535e-07 	0.02416849439 	-2.370076046e-06 	4.607186759e-05
0.1584660267 	0.008903069073 	-0.005440394633 	1.665740135e-07 	0.02413033844 	-6.04008612e-08 	4.599913174e-05
0.1593827974 	0.00882518526 	-0.005407103919 	1.472898246e-06 	0.02384264841 	-5.106337977e-07 	4.545071459e-05
0.1603152827 	0.008748828665 	-0.005373454058 	2.766314022e-06 	0.02356551349 	-9.134709556e-07 	4.492241841e-05
0.1612637283 	0.008673983428 	-0.005339561418 	4.048423115e-06 	0.02329845741 	-1.268455978e-06 	4.441333529e-05
0.1622283831 	0.008600661007 	-0.005305564994 	5.320385324e-06 	0.02304101762 	-1.575493836e-06 	4.39225835e-05
0.163209499 	0.008528903137 	-0.005271628391 	6.583195762e-06 	0.02279273974 	-1.834606811e-06 	4.344929686e-05
0.1642073315 	0.008458780243 	-0.00523793636 	7.838105196e-06 	0.0225531763 	-2.045558657e-06 	4.299262235e-05
0.165222139 	0.008390377378 	-0.005204680677 	9.087037543e-06 	0.02232189161 	-2.207405032e-06 	4.255172947e-05
0.1662541832 	0.008323750845 	-0.005172002222 	1.033213262e-05 	0.02209850777 	-2.318773071e-06 	4.212589778e-05
0.1673037291 	0.008258895419 	-0.005139956437 	1.157476982e-05 	0.0218827453 	-2.378867702e-06 	4.171459454e-05
0.1683710452 	0.008195770539 	-0.005108554034 	1.281570611e-05 	0.02167439225 	-2.387560542e-06 	4.131741572e-05
0.169456403 	0.008134329879 	-0.005077794402 	1.405566826e-05 	0.0214732641 	-2.344798538e-06 	4.093400956e-05
0.1705600777 	0.008074524837 	-0.005047670805 	1.529561776e-05 	0.02127919252 	-2.250332865e-06 	4.056405519e-05
0.1716823477 	0.008016302549 	-0.005018168101 	1.439307879e-05 	0.02109202485 	-1.830946176e-06 	4.020726158e-05
0.1728234947 	0.007959605701 	-0.004989260577 	1.295368908e-05 	0.02091162759 	-1.38713018e-06 	3.986337427e-05
0.1739838043 	0.007904366562 	-0.004960911062 	1.152203277e-05 	0.02073788035 	-9.994664219e-07 	3.953216374e-05
0.1751635651 	0.007850467533 	-0.004933051751 	1.009672573e-05 	0.02057066077 	-6.68422273e-07 	3.921339675e-05
0.1763630695 	0.007797828595 	-0.004905645143 	8.676293146e-06 	0.02040984665 	-3.945191382e-07 	3.890684034e-05
0.1775826133 	0.007746353017 	-0.004878655624 	7.258856756e-06 	0.02025478671 	-1.783217245e-07 	3.861125299e-05
0.1788397014 	0.007695398385 	-0.004851570968 	5.82297358e-06 	0.02010469844 	-2.000554672e-08 	3.832514304e-05
0.1801389661 	0.007644623923 	-0.00482417648 	4.363396843e-06 	0.01995961945 	7.797985048e-08 	3.804858216e-05
0.1814596313 	0.007594578903 	-0.004796946153 	2.903446066e-06 	0.01982028242 	1.135491329e-07 	3.778296706e-05
0.1828020077 	0.00754551545 	-0.004769984811 	1.442604738e-06 	0.01968737486 	8.671920513e-08 	3.752960831e-05
0.1841485552 	0.007498005273 	-0.00474363812 	1.625090685e-08 	0.01956241916 	-1.567403811e-07 	3.7291408e-05
0.18416605 	0.007497419762 	-0.004743286844 	1.876104444e-08 	0.01956068154 	-2.548236248e-10 	3.728809563e-05
0.18552498 	0.007454005239 	-0.004716726084 	1.458750765e-06 	0.01943396212 	5.082597231e-09 	3.704653319e-05
0.1869062846 	0.007411887091 	-0.004690803455 	2.891350188e-06 	0.01931292811 	5.834242432e-08 	3.681580873e-05
0.1883102904 	0.007371052318 	-0.004665640482 	4.315276448e-06 	0.01919725833 	1.576607767e-07 	3.659530999e-05
0.1897373279 	0.007331340333 	-0.004641272619 	5.730574006e-06 	0.01908659674 	3.010176643e-07 	3.638435822e-05
0.1911877315 	0.007293827912 	-0.004618949769 	7.138673328e-06 	0.01897994888 	4.91556065e-07 	3.618105778e-05
0.1926618398 	0.007255908466 	-0.004597713475 	8.530618607e-06 	0.01886294086 	7.342925387e-07 	3.595800796e-05
0.194917909 	0.007208550546 	-0.004567130461 	1.06214205e-05 	0.01873896061 	1.161713915e-06 	3.572166714e-05
0.1971907412 	0.007159560184 	-0.004537488317 	1.235304878e-05 	0.01860941174 	1.642808766e-06 	3.5474711e-05
0.1994804504 	0.007114743767 	-0.004511210704 	1.012611741e-05 	0.01849023162 	1.586321471e-06 	3.524752055e-05
0.2017871531 	0.007073881163 	-0.004487585004 	7.949840499e-06 	0.01838120043 	1.432417284e-06 	3.50396768e-05
0.2041725415 	0.007035012387 	-0.00446514009 	5.764677876e-06 	0.0182817775 	1.174643301e-06 	3.485014907e-05
0.2065814515 	0.006998292122 	-0.004444277283 	3.619772678e-06 	0.01819118993 	8.208604468e-07 	3.467746399e-05
0.2090075945 	0.006963895679 	-0.004425030325 	1.516968317e-06 	0.01810968324 	3.776169912e-07 	3.452208957e-05
0.2107981571 	0.006940198046 	-0.004411782558 	2.546529587e-07 	0.01805628679 	-3.433276236e-06 	3.442030111e-05
0.2114405296 	0.006932659735 	-0.004406773861 	5.502409335e-07 	0.01803474718 	1.009186466e-07 	3.437924062e-05
0.2138620629 	0.006906274893 	-0.004388659548 	2.595314615e-06 	0.01796226413 	5.273897271e-07 	3.424106779e-05
0.2163013646 	0.00688119493 	-0.004371239136 	4.616260276e-06 	0.01789716858 	1.026343419e-06 	3.411697757e-05
0.2187585689 	0.006857272493 	-0.004354440137 	6.613134803e-06 	0.01783901842 	1.592407664e-06 	3.400612721e-05
0.2212338133 	0.006834389678 	-0.004338245146 	8.586558886e-06 	0.0177873489 	2.219659278e-06 	3.390763075e-05
0.2237272386 	0.006812509746 	-0.004322691494 	1.053713839e-05 	0.01774139577 	2.900836037e-06 	3.382003131e-05
0.2262844816 	0.006791002678 	-0.004307078885 	9.394258214e-06 	0.01770114591 	2.73555169e-06 	3.374330387e-05
0.2288841363 	0.006769628961 	-0.004291426489 	7.359992927e-06 	0.01766581864 	2.251908686e-06 	3.367596028e-05
0.2315022259 	0.006748613025 	-0.004276043747 	5.350505436e-06 	0.01763483697 	1.709655649e-06 	3.361690062e-05
0.2341388985 	0.006727840911 	-0.004260774712 	3.364390736e-06 	0.01760790537 	1.116672018e-06 	3.356556149e-05
0.2367943064 	0.006707064818 	-0.004245464874 	1.40042334e-06 	0.01758444497 	4.805629991e-07 	3.352083946e-05
0.2387190331 	0.006692068399 	-0.004234308144 	2.249237811e-07 	0.01756978041 	-2.846568196e-06 	3.349288473e-05
0.2394596258 	0.006687402159 	-0.004229865853 	5.418786141e-07 	0.01756203806 	1.374989717e-07 	3.347812566e-05
0.2421211125 	0.006670681419 	-0.004213560997 	2.467719573e-06 	0.0175373903 	6.505447648e-07 	3.343114018e-05
0.2448020967 	0.006653587045 	-0.004196931885 	4.381279706e-06 	0.0175150076 	1.197351645e-06 	3.338847253e-05
0.2475350655 	0.006635840556 	-0.004179544839 	6.304415089e-06 	0.01749512437 	1.784908775e-06 	3.335056957e-05
0.2503258165 	0.006617198804 	-0.00416118409 	8.238263237e-06 	0.01747793413 	2.416799723e-06 	3.33178002e-05
0.2531363547 	0.006598073869 	-0.004142373239 	1.015430562e-05 	0.0174633537 	3.087856928e-06 	3.329000584e-05
0.2559668634 	0.006578722769 	-0.004123186744 	8.463807441e-06 	0.01745199674 	2.669368779e-06 	3.326835632e-05
0.2588175317 	0.006559210025 	-0.004103593822 	6.552943602e-06 	0.01744428477 	2.143664963e-06 	3.325365516e-05
0.2616885543 	0.006539611528 	-0.00408362719 	4.658354032e-06 	0.01744049053 	1.57972999e-06 	3.324642228e-05
0.264580132 	0.006520006372 	-0.004063360655 	2.780566112e-06 	0.01744071163 	9.763577224e-07 	3.324684376e-05
0.2675004713 	0.006500481555 	-0.004042783512 	9.143418922e-07 	0.01744503521 	3.319161051e-07 	3.325508571e-05
0.2689517363 	0.006490901217 	-0.004032300579 	4.960178626e-07 	0.0174495716 	-4.267908887e-06 	3.326373333e-05
0.2704904539 	0.006482671425 	-0.004020788643 	9.80268655e-07 	0.01745163424 	2.880585862e-07 	3.32676653e-05
0.2734881808 	0.006466654718 	-0.003997838971 	2.864933105e-06 	0.01745989054 	8.73279427e-07 	3.328340409e-05
0.2765073236 	0.006450682221 	-0.003974443117 	4.736187221e-06 	0.01747232776 	1.493613783e-06 	3.33071129e-05
0.2795481128 	0.00643470577 	-0.003950419305 	6.59450449e-06 	0.01748903335 	2.146236484e-06 	3.333895839e-05
0.2826107857 	0.006418613701 	-0.003925723104 	8.440593975e-06 	0.01750979069 	2.828563319e-06 	3.337852766e-05
0.2856955875 	0.00640249559 	-0.003900434883 	9.48366003e-06 	0.01753443603 	3.265777819e-06 	3.342550851e-05
0.2888351016 	0.00638616394 	-0.00387409088 	7.644409631e-06 	0.01756344932 	2.70045673e-06 	3.348081591e-05
0.2920349116 	0.006369357429 	-0.003846377657 	5.796238081e-06 	0.01759690736 	2.09688179e-06 	3.354459623e-05
0.2952572244 	0.006352338993 	-0.003817759817 	3.962015677e-06 	0.01763415725 	1.465159591e-06 	3.361560487e-05
0.2985023113 	0.006335248714 	-0.003788247114 	2.140868688e-06 	0.01767522056 	8.079350809e-07 	3.369388297e-05
0.3017704529 	0.006318000122 	-0.003757686134 	3.322092824e-07 	0.0177200559 	1.277333913e-07 	3.377935158e-05
0.3023784211 	0.006314811915 	-0.003751864009 	2.518561305e-07 	0.0177290305 	-1.294850491e-06 	3.379645967e-05
0.3050417129 	0.006303565615 	-0.003725604523 	1.476999352e-06 	0.01776504471 	4.732863396e-07 	3.386511275e-05
0.3083587734 	0.006289587381 	-0.003691967969 	3.294783791e-06 	0.01781339939 	1.075945092e-06 	3.395729021e-05
0.3117421337 	0.006275137124 	-0.003656436759 	5.125587987e-06 	0.01786614541 	1.70308272e-06 	3.40578388e-05
0.3151496471 	0.006260419097 	-0.003619502592 	6.944987444e-06 	0.01792253017 	2.343868719e-06 	3.416532381e-05
0.3185816398 	0.006245622654 	-0.003581242875 	8.752965397e-06 	0.0179824856 	2.995796114e-06 	3.427961552e-05
0.3220384482 	0.006230650931 	-0.003541462634 	8.812828825e-06 	0.01804597302 	3.054175578e-06 	3.44006402e-05
0.3255204201 	0.006215653115 	-0.003500273153 	7.056300433e-06 	0.01811294495 	2.472739235e-06 	3.452830731e-05
0.3290810692 	0.0062003806 	-0.003456794003 	5.282561741e-06 	0.01818434233 	1.869623949e-06 	3.466441055e-05
0.3326809016 	0.006184781704 	-0.003411144187 	3.51510816e-06 	0.01825953503 	1.254543321e-06 	3.480774873e-05
0.3363064639 	0.006169174906 	-0.003363802514 	1.760944082e-06 	0.01833797542 	6.329460924e-07 	3.495727792e-05
0.3399581467 	0.006153577979 	-0.003314545715 	2.008636164e-08 	0.01841972497 	7.261327892e-09 	3.511311528e-05
0.3400009082 	0.006153397114 	-0.003313952719 	2.40049498e-08 	0.01842071563 	-6.516774471e-08 	3.511500377e-05
0.3436167554 	0.006141310607 	-0.003263326843 	1.704163405e-06 	0.01850101757 	5.044338168e-07 	3.526808159e-05
0.3473421082 	0.006129072664 	-0.003209551123 	3.433462164e-06 	0.01858631649 	1.021223657e-06 	3.543068503e-05
0.3511193483 	0.006116712502 	-0.003153065239 	5.156958495e-06 	0.0186754002 	1.538922902e-06 	3.560050334e-05
0.3549242038 	0.006104499913 	-0.003094421308 	6.861279085e-06 	0.0187675788 	2.051492841e-06 	3.577622137e-05
0.3587571281 	0.006092512607 	-0.003033507387 	8.545538772e-06 	0.01886278569 	2.556623341e-06 	3.595771217e-05
0.3626185895 	0.006080906 	-0.002970355482 	8.804107193e-06 	0.0189610869 	2.632453393e-06 	3.614510159e-05
0.3665578315 	0.006069587872 	-0.002904045208 	7.142750837e-06 	0.01906332587 	2.132100387e-06 	3.633999748e-05
0.3705385693 	0.006058527182 	-0.002834673603 	5.497213359e-06 	0.0191688708 	1.635765151e-06 	3.654119546e-05
0.3745486816 	0.00604797568 	-0.002762763151 	3.873988368e-06 	0.01927708262 	1.147805596e-06 	3.674747726e-05
0.3785886962 	0.006038097869 	-0.002688187812 	2.273977521e-06 	0.01938803438 	6.700892906e-07 	3.695898215e-05
0.3826754965 	0.006028958252 	-0.002610533516 	6.914052957e-07 	0.01950210113 	2.024178142e-07 	3.717642508e-05
0.3845023008 	0.006025161034 	-0.002574765552 	1.411063435e-06 	0.0195537873 	-2.011486516e-06 	3.727495328e-05
0.386826837 	0.006021939535 	-0.002529276655 	8.695136343e-07 	0.01961792645 	1.995485534e-07 	3.739722033e-05
0.3910032662 	0.006016781739 	-0.002444890255 	2.390414545e-06 	0.01973506115 	5.429247165e-07 	3.762051163e-05
0.3952115833 	0.006012507157 	-0.002357399639 	3.878168206e-06 	0.01985448825 	8.704736689e-07 	3.784817287e-05
0.3994543048 	0.00600932307 	-0.00226655198 	5.331909708e-06 	0.01997650109 	1.180978089e-06 	3.808076325e-05
0.4037823229 	0.006007232088 	-0.002171243126 	6.76683658e-06 	0.02010174143 	1.476788768e-06 	3.831950615e-05
0.4081433549 	0.006006241239 	-0.002071818442 	8.158939078e-06 	0.02022924177 	1.751036461e-06 	3.856255724e-05
0.4125380618 	0.00600655435 	-0.00196870718 	8.513480579e-06 	0.0203584266 	1.794166406e-06 	3.880881942e-05
0.4169684189 	0.006008456364 	-0.001861527625 	7.105156527e-06 	0.02048963273 	1.468099271e-06 	3.905893479e-05
0.4214827764 	0.006012024108 	-0.00174914114 	5.717488636e-06 	0.02062334708 	1.156423073e-06 	3.93138315e-05
0.4260321037 	0.006017262056 	-0.001631823288 	4.371935033e-06 	0.02075855831 	8.638449453e-07 	3.957158168e-05
0.4306171419 	0.006024422379 	-0.001510080724 	3.070063055e-06 	0.0208947128 	5.918078955e-07 	3.983112998e-05
0.4352491377 	0.006033852639 	-0.001383195548 	1.810633177e-06 	0.02103217958 	3.400096679e-07 	4.009317987e-05
0.4399539769 	0.006045671257 	-0.00125028832 	5.91426907e-07 	0.02117093448 	1.080203632e-07 	4.035768527e-05
0.4423479416 	0.006052770214 	-0.001180276994 	2.680757436e-06 	0.02124121498 	-2.011002791e-06 	4.049165943e-05
0.4446905644 	0.006060691766 	-0.001111920819 	5.624481065e-07 	0.02130902383 	7.078905705e-08 	4.062092196e-05
0.4494600003 	0.006079162909 	-0.0009683548408 	1.648851753e-06 	0.0214461609 	1.983788424e-07 	4.088234333e-05
0.4542945485 	0.006100762437 	-0.0008182760911 	2.681219183e-06 	0.02158359374 	3.075288857e-07 	4.114432851e-05
0.4591850403 	0.006125599342 	-0.0006612917827 	3.650522421e-06 	0.02172060028 	3.979616455e-07 	4.140550105e-05
0.4641157131 	0.006153905856 	-0.0004979256448 	4.548976913e-06 	0.021856343 	4.705218855e-07 	4.166426441e-05
0.4690937196 	0.006186229771 	-0.0003276909712 	5.374376068e-06 	0.02199071971 	5.269996231e-07 	4.192042377e-05
0.4741454846 	0.006223031365 	-0.0001495596366 	6.125771429e-06 	0.02212343087 	5.693852034e-07 	4.217340812e-05
0.4792393223 	0.006264486954 	3.616392812e-05 	6.790653254e-06 	0.02225329837 	5.991811812e-07 	4.242097168e-05
0.484376213 	0.006311106507 	0.0002293180007 	6.340873344e-06 	0.02237977891 	5.341832286e-07 	4.266207874e-05
0.4895867639 	0.006363736928 	0.0004311361772 	5.383549222e-06 	0.02250262165 	4.369355677e-07 	4.289625114e-05
0.4948461995 	0.006422665229 	0.0006416403019 	4.488777742e-06 	0.02262048095 	3.558700769e-07 	4.312092372e-05
0.500150834 	0.006488410656 	0.0008603120056 	3.659495575e-06 	0.02273250163 	2.899899247e-07 	4.333446628e-05
0.5055231693 	0.006562064467 	0.001088093174 	2.895018106e-06 	0.0228381505 	2.362093356e-07 	4.35358624e-05
0.5109512262 	0.006644158539 	0.001325132636 	2.202145782e-06 	0.02293596071 	1.91911281e-07 	4.372231584e-05
0.5164268225 	0.006735288907 	0.001570695109 	1.584173073e-06 	0.02302485271 	1.542856955e-07 	4.389176869e-05
0.5219689509 	0.006836704042 	0.00182518921 	1.042219646e-06 	0.02310401749 	1.188924186e-07 	4.404267876e-05
0.5275693167 	0.006949099182 	0.00208836229 	5.818884764e-07 	0.02317190767 	8.124992991e-08 	4.417209632e-05
0.5332197666 	0.007073091608 	0.002359002303 	2.049321594e-07 	0.02322745285 	3.645782516e-08 	4.427798086e-05
0.5370443662 	0.007164544918 	0.002544825247 	3.514921602e-06 	0.02325580003 	-2.977990909e-06 	4.433201848e-05
0.5389372376 	0.007209944067 	0.002636684529 	9.173510219e-08 	0.02326954463 	9.80621964e-09 	4.435821949e-05
0.5447098637 	0.007360093202 	0.002920157563 	3.135813507e-07 	0.02329664515 	5.049764736e-08 	4.440988061e-05
0.5505356794 	0.007523614004 	0.003207153472 	4.636747138e-07 	0.02330904018 	1.116424904e-07 	4.4433509e-05
0.5564344686 	0.007700965717 	0.003495804568 	5.50420416e-07 	0.02330688738 	1.954746088e-07 	4.442940516e-05
0.5623900213 	0.007891302852 	0.003783251347 	5.837607935e-07 	0.02329029865 	3.014658519e-07 	4.439778243e-05
0.5684048535 	0.00809383915 	0.004066644232 	5.775898598e-07 	0.02326053359 	4.267926411e-07 	4.434104196e-05
0.5744913721 	0.008307166962 	0.004343014376 	5.488264427e-07 	0.0232192585 	5.623860098e-07 	4.426236016e-05
0.5805680299 	0.008527065242 	0.004607623004 	5.160980466e-07 	0.02316755788 	7.05802384e-07 	4.416380441e-05
0.5865762445 	0.008754721563 	0.004855050841 	5.265405145e-07 	0.02310283972 	9.321703956e-07 	4.40404336e-05
0.5925167773 	0.008995491015 	0.00507902876 	6.84051156e-07 	0.02301880732 	1.391951333e-06 	4.388024449e-05
0.5983839848 	0.009242401155 	0.005281942318 	9.802372111e-07 	0.02292183159 	2.022551621e-06 	4.36953818e-05
0.6041885817 	0.009500120065 	0.005459443454 	1.332205791e-06 	0.022807214 	2.659502075e-06 	4.347688881e-05
0.609924862 	0.009767364832 	0.005612708788 	1.734204004e-06 	0.02267770352 	3.290866946e-06 	4.323000586e-05
0.6155918012 	0.01003207695 	0.005750669108 	2.050245827e-06 	0.02254725648 	3.764428242e-06 	4.298133753e-05
0.6211996839 	0.01029572457 	0.005873569291 	2.191478922e-06 	0.02241541703 	3.992806897e-06 	4.27300149e-05
0.6267405924 	0.01055556202 	0.005985919321 	2.225593228e-06 	0.0222859567 	4.082981005e-06 	4.248322753e-05
0.632216296 	0.0108095268 	0.006090306707 	2.207214396e-06 	0.02216078889 	4.116527071e-06 	4.22446229e-05
0.6376339047 	0.01105735015 	0.006188122307 	2.153411799e-06 	0.0220407245 	4.102650146e-06 	4.201574679e-05
0.6429876209 	0.01129863097 	0.006279820704 	2.085739803e-06 	0.02192564372 	4.045905296e-06 	4.179637085e-05
0.6482792542 	0.011533078 	0.00636588721 	2.018280893e-06 	0.02181576897 	3.959346367e-06 	4.158691904e-05
0.6535142602 	0.01176084414 	0.00644696406 	1.954443686e-06 	0.02171095792 	3.857904089e-06 	4.138712004e-05
0.6586883686 	0.01198202719 	0.006523143983 	1.890308333e-06 	0.02161063178 	3.747641951e-06 	4.119587055e-05
0.6638027592 	0.01219677282 	0.006594706454 	1.823899637e-06 	0.02151469058 	3.63199471e-06 	4.101297995e-05
0.6688625183 	0.0124053889 	0.006662168225 	1.755194532e-06 	0.02142281169 	3.510929962e-06 	4.083783324e-05
0.6738640927 	0.01260807208 	0.006725692971 	1.684569978e-06 	0.02133444148 	3.384478519e-06 	4.066937505e-05
0.6788084956 	0.0128049661 	0.006785473379 	1.61310941e-06 	0.02124946894 	3.254393341e-06 	4.050739378e-05
0.6836992744 	0.01299631519 	0.006841960379 	1.541666561e-06 	0.02116774518 	3.12172818e-06 	4.035160558e-05
0.6885349454 	0.01318231948 	0.006895314455 	1.470328902e-06 	0.02108877482 	2.98693678e-06 	4.020106614e-05
0.6933158242 	0.01336309458 	0.00694560433 	1.399470693e-06 	0.02101242269 	2.851572466e-06 	4.005551775e-05
0.6980440199 	0.01353883357 	0.006993202511 	1.329605518e-06 	0.02093867029 	2.71654161e-06 	3.991492518e-05
0.7027200283 	0.01370974667 	0.007038287914 	1.260681837e-06 	0.02086709385 	2.58182699e-06 	3.977848059e-05
0.7073434376 	0.0138759412 	0.007080879825 	1.192870341e-06 	0.02079751346 	2.448317179e-06 	3.964584102e-05
0.711915207 	0.01403756106 	0.007121220619 	1.12656023e-06 	0.02072995946 	2.316804562e-06 	3.951706433e-05
0.7164374468 	0.01419480783 	0.007159527568 	1.061827013e-06 	0.0206641741 	2.187368608e-06 	3.939165914e-05
0.7209091221 	0.01434780706 	0.007195847154 	9.986418571e-07 	0.02059991557 	2.060225504e-06 	3.926916453e-05
0.7253309727 	0.01449665565 	0.007230251164 	9.371800432e-07 	0.02053716828 	1.936034659e-06 	3.914955075e-05
0.7297043654 	0.01464151751 	0.007262975072 	8.776547824e-07 	0.02047588949 	1.815115291e-06 	3.903273634e-05
0.7340297528 	0.01478254919 	0.007294119509 	8.199362548e-07 	0.0204158196 	1.697260106e-06 	3.891822644e-05
0.7383071582 	0.01491984064 	0.007323688799 	7.640466191e-07 	0.02035685756 	1.582806347e-06 	3.88058284e-05
0.7425372445 	0.01505350075 	0.007351810014 	7.101153601e-07 	0.02029904139 	1.472083691e-06 	3.869561472e-05
0.7467213447 	0.01518368483 	0.007378645347 	6.581849054e-07 	0.0202422583 	1.365110509e-06 	3.858737036e-05
0.7508593764 	0.01531051293 	0.007404242103 	6.081193562e-07 	0.02018633332 	1.261697127e-06 	3.84807618e-05
0.7549517763 	0.0154340641 	0.007428609237 	5.5993707e-07 	0.02013123608 	1.162065736e-06 	3.837573116e-05
0.7589991451 	0.01555445018 	0.007451868972 	5.137103559e-07 	0.02007699888 	1.066359376e-06 	3.827233997e-05
0.7630026057 	0.01567181032 	0.007474136626 	4.694005417e-07 	0.02002351378 	9.744552288e-07 	3.817038251e-05
0.7669620699 	0.0157862459 	0.007495435426 	4.268913563e-07 	0.01997066512 	8.861860985e-07 	3.806963827e-05
0.7708780631 	0.01589783457 	0.007515782737 	3.8618156e-07 	0.01991845348 	8.016427633e-07 	3.797010838e-05
0.7747511348 	0.01600668159 	0.007535271259 	3.472948414e-07 	0.01986690331 	7.208641541e-07 	3.787183943e-05
0.7785821642 	0.01611291307 	0.0075539958 	3.101788554e-07 	0.01981594364 	6.437059235e-07 	3.777469614e-05
0.7823712521 	0.01621662585 	0.007571975206 	2.747194492e-07 	0.01976548988 	5.699699281e-07 	3.767851724e-05
0.7861188721 	0.01631789803 	0.007589223445 	2.408951104e-07 	0.01971554784 	4.996590878e-07 	3.758331384e-05
0.7898255312 	0.01641682467 	0.007605803735 	2.086961793e-07 	0.01966614867 	4.327515491e-07 	3.748914528e-05
0.7934918964 	0.0165135233 	0.007621801949 	1.780827962e-07 	0.01961726244 	3.691375215e-07 	3.739595455e-05
0.7971182852 	0.01660809489 	0.007637246206 	1.489366238e-07 	0.01956882257 	3.085829615e-07 	3.730361469e-05
0.8007050767 	0.01670061816 	0.007652140312 	1.212164128e-07 	0.01952082887 	2.510302819e-07 	3.721212537e-05
0.804252742 	0.01679118207 	0.007666530787 	9.489300083e-08 	0.01947332296 	1.964198851e-07 	3.712156589e-05
0.807761783 	0.01687989432 	0.007680484754 	6.99321358e-08 	0.01942630516 	1.446720764e-07 	3.70319369e-05
0.8112327012 	0.01696686264 	0.007694050244 	4.623315668e-08 	0.01937973877 	9.558023054e-08 	3.694316841e-05
0.8146657788 	0.017052171 	0.007707230939 	2.372774155e-08 	0.01933361339 	4.901718957e-08 	3.685524062e-05
0.8180614562 	0.01713590846 	0.007720063293 	2.375828102e-09 	0.01928796595 	4.904077582e-09 	3.676822391e-05
0.8184468325 	0.01714534848 	0.00772149839 	-9.37516456e-08 	0.01928278153 	-6.181649684e-07 	3.675834097e-05
0.821419617 	0.01721819202 	0.007732580338 	1.77735628e-08 	0.0192428096 	3.663436419e-08 	3.668214335e-05
0.8247412418 	0.01729910908 	0.007744850222 	3.686565093e-08 	0.01919816601 	7.585849742e-08 	3.659704027e-05
0.8280267635 	0.01737875687 	0.00775690138 	5.500837731e-08 	0.01915401379 	1.129851239e-07 	3.651287386e-05
0.83127654 	0.01745721921 	0.007768743894 	7.225064666e-08 	0.01911037558 	1.481181928e-07 	3.642968731e-05
0.8344909783 	0.01753459106 	0.007780421197 	8.863797464e-08 	0.01906729351 	1.813498728e-07 	3.634756091e-05
0.8376704786 	0.01761096736 	0.007791965752 	1.04216918e-07 	0.01902479113 	2.127766172e-07 	3.626653955e-05
0.8408154687 	0.0176864547 	0.007803436387 	1.190491675e-07 	0.01898289375 	2.425107919e-07 	3.61866715e-05
0.8439262864 	0.01776115067 	0.007814858757 	1.332157898e-07 	0.0189415982 	2.707116437e-07 	3.610795071e-05
0.8470032886 	0.01783514057 	0.007826249446 	1.467601177e-07 	0.01890094104 	2.974775066e-07 	3.603044688e-05
0.8500468538 	0.01790851965 	0.007837650927 	1.597271886e-07 	0.01886096698 	3.228959665e-07 	3.595424519e-05
0.8530573547 	0.01798137949 	0.007849091739 	1.721588618e-07 	0.01882170776 	3.470583412e-07 	3.587940621e-05
0.8560351715 	0.01805382037 	0.007860624289 	1.841056774e-07 	0.01878320309 	3.700558847e-07 	3.58060056e-05
0.8589806486 	0.0181259374 	0.007872279128 	1.956328171e-07 	0.01874546535 	3.920187575e-07 	3.573406699e-05
0.8618941178 	0.01819781235 	0.007884072334 	2.067744575e-07 	0.0187085335 	4.130417465e-07 	3.566366461e-05