5.591349661e-37 	1.631914034 	-6.666750126e-14 	-3.838682005e-21
0.0003212932665 	1.631919046 	-3.180275159e-05 	1.110811389e-09
0.000642586183 	1.631931609 	-5.986439767e-05 	2.042691442e-09
0.0009638787489 	1.631948873 	-8.767451044e-05 	2.926880157e-09
0.001285170964 	1.631970559 	-0.0001165093118 	3.801294855e-09
0.001606462828 	1.631996874 	-0.000145362727 	4.63255104e-09
0.00192775434 	1.632027966 	-0.0001742553036 	5.42117951e-09
0.0022490455 	1.632063932 	-0.000203161132 	6.166315367e-09
0.002570336307 	1.632104846 	-0.0002320788521 	6.867829084e-09
0.002891626762 	1.632150764 	-0.0002610019936 	7.525478705e-09
0.003212916865 	1.632201734 	-0.0002899269991 	8.139122793e-09
0.003534206614 	1.632257795 	-0.0003188513733 	8.708662129e-09
0.003855496009 	1.632318985 	-0.0003477733399 	9.234033548e-09
0.004176785052 	1.63238534 	-0.0003766914963 	9.715194132e-09
0.004498073741 	1.632456891 	-0.0004056046838 	1.015211092e-08
0.004819362076 	1.632533671 	-0.0004345118975 	1.054476254e-08
0.005140650058 	1.632615713 	-0.0004634122395 	1.089313875e-08
0.005461937686 	1.632703048 	-0.0004923048873 	1.119723757e-08
0.00578322496 	1.632795707 	-0.0005211890709 	1.145706457e-08
0.00610451188 	1.632893724 	-0.0005500640574 	1.167263244e-08
0.006425798447 	1.63299713 	-0.0005789291403 	1.184396062e-08
0.00674708466 	1.633105958 	-0.0006077836322 	1.197107505e-08
0.00706837052 	1.633220241 	-0.0006366268585 	1.205400797e-08
0.007389656027 	1.633340011 	-0.0006654581532 	1.209279772e-08
0.00771094118 	1.633465302 	-0.0006942768653 	1.208748895e-08
0.008032225981 	1.633596147 	-0.0007230823929 	1.203813378e-08
0.008353510429 	1.633732581 	-0.0007518741156 	1.194478952e-08
0.008674794525 	1.633874635 	-0.0007806507657 	1.180749965e-08
0.008996078268 	1.634022346 	-0.0008094094216 	1.16262681e-08
0.00931736166 	1.634175748 	-0.0008381541467 	1.140130745e-08
0.009638644701 	1.634357144 	-0.0008709205187 	1.118462253e-08
0.01013784382 	1.634589249 	-0.0009118228344 	1.063283004e-08
0.01064642451 	1.634851495 	-0.0009572254405 	1.001106619e-08
0.01116456308 	1.635123234 	-0.001003437601 	9.266014191e-09
0.01169243912 	1.635404982 	-0.001050475524 	8.391623416e-09
0.01223023562 	1.635697252 	-0.00109834858 	7.381545585e-09
0.012778139 	1.636000562 	-0.001147069126 	6.229308352e-09
0.01333633918 	1.636315438 	-0.001196650179 	4.92826295e-09
0.01390502967 	1.636642411 	-0.001247104772 	3.471574508e-09
0.01448440758 	1.63698202 	-0.00129844591 	1.852224899e-09
0.01507467376 	1.637334817 	-0.001350686617 	6.301692056e-11
0.01509467593 	1.637347008 	-0.001352454528 	1.12312801e-09
0.0156760328 	1.63770127 	-0.001403840109 	1.910872838e-09
0.01628869317 	1.638082041 	-0.001457919298 	4.070594812e-09
0.01691286722 	1.63847772 	-0.001512937242 	6.423653966e-09
0.01754877133 	1.638888907 	-0.001568907003 	8.977957576e-09
0.01819662591 	1.639316217 	-0.001625841648 	1.174156112e-08
0.01885665553 	1.639760279 	-0.001683754107 	1.472265689e-08
0.01952908899 	1.640221739 	-0.001742657457 	1.792956444e-08
0.02021415938 	1.640701565 	-0.001802603042 	2.137160824e-08
0.02091383357 	1.64120098 	-0.001863668956 	2.50716644e-08
0.02162790732 	1.641720627 	-0.001925858108 	2.904183675e-08
0.02235540062 	1.642260712 	-0.001989120142 	3.328412683e-08
0.02309656566 	1.642821751 	-0.002053441339 	3.780874951e-08
0.02385165934 	1.643404497 	-0.002118834307 	4.262694277e-08
0.0246209434 	1.644009721 	-0.002185311668 	4.775028579e-08
0.02540468448 	1.644638211 	-0.002252885882 	5.319070614e-08
0.02620315426 	1.645290774 	-0.00232156932 	5.896049239e-08
0.02701662949 	1.645968231 	-0.002391374235 	6.507230617e-08
0.02784539215 	1.646671426 	-0.002462312762 	7.153919606e-08
0.0286897295 	1.647401214 	-0.00253439691 	7.837461265e-08
0.0295499342 	1.648158473 	-0.002607638557 	8.559242525e-08
0.03042630441 	1.648944093 	-0.002682049447 	9.320694035e-08
0.03131914389 	1.649758985 	-0.002757641186 	1.012329219e-07
0.03222876211 	1.650604074 	-0.002834425241 	1.096856132e-07
0.03315547435 	1.651480302 	-0.002912412938 	1.185807615e-07
0.03409960182 	1.652388628 	-0.00299161546 	1.279346456e-07
0.03506147177 	1.653330026 	-0.003072043853 	1.377641078e-07
0.03604141757 	1.654305487 	-0.003153709026 	1.480865768e-07
0.03703977888 	1.655316015 	-0.00323662176 	1.589200937e-07
0.03805690174 	1.656362633 	-0.003320792621 	1.702833684e-07
0.03909313868 	1.657446379 	-0.003406232036 	1.821958051e-07
0.04014884885 	1.658568607 	-0.00349297379 	1.94680048e-07
0.04122551531 	1.65973156 	-0.003581115006 	2.077769665e-07
0.04232554311 	1.660936954 	-0.00367070665 	2.215314657e-07
0.04344624324 	1.662184812 	-0.003761673393 	2.359302176e-07
0.04458800415 	1.663475438 	-0.003853963084 	2.509895235e-07
0.0457512216 	1.664809978 	-0.00394758514 	2.667336795e-07
0.04693629876 	1.666189601 	-0.004042549323 	2.831879926e-07
0.0481436464 	1.66761549 	-0.004138865014 	3.003787924e-07
0.04937368298 	1.669088853 	-0.004236541506 	3.183334998e-07
0.05062683484 	1.670610919 	-0.004335587947 	3.370806749e-07
0.05190353633 	1.672182938 	-0.004436013329 	3.566500646e-07
0.05320422996 	1.673806189 	-0.004537826475 	3.770726484e-07
0.05452936655 	1.675481974 	-0.004641036022 	3.983806826e-07
0.05587940539 	1.677211627 	-0.004745650416 	4.206077417e-07
0.0572548144 	1.678996512 	-0.004851677867 	4.277498138e-07
0.05865607028 	1.680838029 	-0.004959126109 	4.232586206e-07
0.06008365872 	1.682737893 	-0.005068018224 	4.180973578e-07
0.06153889687 	1.684699387 	-0.005178458956 	4.122323082e-07
0.06302592626 	1.686725387 	-0.005290529323 	4.055537258e-07
0.06454090063 	1.68908643 	-0.005418722195 	3.992617947e-07
0.06686661109 	1.692073171 	-0.005577480005 	3.854956052e-07
0.06921826507 	1.695415472 	-0.005750932323 	3.711940099e-07
0.07159615198 	1.698848854 	-0.005924726834 	3.552046759e-07
0.07400056443 	1.702375513 	-0.006098839005 	3.374900619e-07
0.07643179831 	1.705997666 	-0.006273232765 	3.180111557e-07
0.07889015282 	1.709717552 	-0.006447873422 	2.96728215e-07
0.08137593047 	1.713540255 	-0.006622849979 	2.736116216e-07
0.08389681689 	1.717471548 	-0.006798263407 	2.484447643e-07
0.08644662745 	1.721511284 	-0.006973941892 	2.213546775e-07
0.08902488323 	1.725658752 	-0.007149694858 	1.923127823e-07
0.09163190156 	1.729916022 	-0.007325451351 	1.612820823e-07
0.09426800331 	1.734285498 	-0.007501150307 	1.282281951e-07
0.09693351292 	1.738769615 	-0.007676724792 	9.311873718e-08
0.09962875848 	1.743371436 	-0.007852125861 	5.592412833e-08
0.102355471 	1.748097026 	-0.008027403904 	1.658056376e-08
0.1034723851 	1.750058703 	-0.00809818084 	7.510938591e-07
0.1051193293 	1.752951451 	-0.008202563846 	2.527613099e-08
0.1079140226 	1.757933844 	-0.008377375004 	6.943243583e-08
0.1107398951 	1.763044131 	-0.008551634447 	1.157595164e-07
0.1135972945 	1.768284959 	-0.00872523763 	1.642632242e-07
0.1164865725 	1.773659006 	-0.008898074032 	2.149435302e-07
0.119408085 	1.779169312 	-0.009070036604 	2.677945611e-07
0.122362907 	1.784822419 	-0.009241111677 	3.228301867e-07
0.1253579596 	1.790624728 	-0.009411258557 	3.801898313e-07
0.1283864287 	1.796575161 	-0.009580207387 	4.396227194e-07
0.1314486871 	1.802673198 	-0.009747707556 	5.01077266e-07
0.1345451119 	1.808921668 	-0.009913597599 	5.644992535e-07
0.1376760841 	1.815323413 	-0.01007770908 	6.298243717e-07
0.1408419893 	1.821883461 	-0.01023991578 	6.969849922e-07
0.1440475001 	1.82860902 	-0.01040012394 	7.660151876e-07
0.1472922521 	1.835502776 	-0.01055811361 	8.367527812e-07
0.1505732086 	1.842563584 	-0.0107135723 	9.089767349e-07
0.1538907736 	1.849792564 	-0.01086623654 	9.82560582e-07
0.1572453555 	1.857192569 	-0.01101587304 	1.057376797e-06
0.1606373674 	1.864768395 	-0.01116227331 	1.060039272e-06
0.1640708329 	1.872527337 	-0.01130525341 	1.011452522e-06
0.167546476 	1.88047263 	-0.01144453302 	9.606669101e-07
0.171060902 	1.88860281 	-0.01157974076 	9.079052572e-07
0.1746145435 	1.896918523 	-0.01171051864 	8.532087214e-07
0.1782078381 	1.905422251 	-0.01183643422 	7.964486514e-07
0.1818412283 	1.914118592 	-0.01195734057 	7.387031306e-07
0.1855209962 	1.923006896 	-0.01207347015 	6.79319904e-07
0.1892431269 	1.932068906 	-0.01218438038 	6.174553308e-07
0.1930067927 	1.941286092 	-0.01228975908 	5.54801271e-07
0.1968124572 	1.950653535 	-0.01238985989 	4.91474201e-07
0.200660589 	1.960174108 	-0.01248442749 	4.269192249e-07
0.2045550713 	1.96985312 	-0.01257304178 	3.614482846e-07
0.208496362 	1.979691336 	-0.01265536141 	2.953063979e-07
0.2124816352 	1.989684905 	-0.01273100402 	2.2879575e-07
0.2165113818 	1.99983214 	-0.01279960064 	1.621227458e-07
0.220586098 	2.010134997 	-0.01286079904 	9.551357109e-08
0.2247094769 	2.020597559 	-0.01291424312 	2.913508771e-08
0.2265534959 	2.025291457 	-0.01293426212 	3.782395788e-06
0.2288820322 	2.03121937 	-0.01295954541 	3.69707644e-08
0.2331011526 	2.041995448 	-0.01299628918 	1.023376335e-07
0.2373673575 	2.052922751 	-0.01302406743 	1.664263972e-07
0.2416811722 	2.064002408 	-0.01304248755 	2.289358777e-07
0.2460477287 	2.075236617 	-0.01305114693 	2.896313048e-07
0.2504643428 	2.086620245 	-0.01304963313 	3.480341043e-07
0.2549302469 	2.098146175 	-0.01303754959 	4.037945121e-07
0.259445991 	2.109810456 	-0.01301451283 	4.566014174e-07
0.2640137526 	2.121611691 	-0.01298014183 	5.061769097e-07
0.2686363606 	2.133545717 	-0.01293407043 	5.521862977e-07
0.2733105587 	2.145601528 	-0.0128759826 	5.942604797e-07
0.2780369227 	2.157768659 	-0.01280560041 	6.321725036e-07
0.2828162191 	2.170040491 	-0.01272265902 	6.657318763e-07
0.2876537208 	2.182409516 	-0.01262692906 	6.948007061e-07
0.292545212 	2.19485896 	-0.01251829871 	7.191808477e-07
0.2974912951 	2.207371335 	-0.01239673346 	7.388942341e-07
0.302492579 	2.219932659 	-0.012262229 	7.540406173e-07
0.3075541865 	2.232527876 	-0.01211484649 	7.648018553e-07
0.3126723942 	2.245133013 	-0.01195482421 	7.713827332e-07
0.3178477247 	2.257723287 	-0.01178250397 	7.742008432e-07
0.3230812214 	2.270276638 	-0.01159827033 	7.110089956e-07
0.32837691 	2.282769177 	-0.01140260721 	6.456390802e-07
0.3337317031 	2.295169605 	-0.01119619524 	5.849604849e-07
0.3391462598 	2.307447009 	-0.0109797917 	5.290656789e-07
0.3446226897 	2.319572709 	-0.01075417915 	4.779226363e-07
0.350162574 	2.331515545 	-0.01052023599 	4.314775058e-07
0.3557642883 	2.343241123 	-0.01027894578 	3.895590578e-07
0.3614285223 	2.354717852 	-0.01003126418 	3.518536475e-07
0.3671587446 	2.365916649 	-0.009778100732 	3.179668293e-07
0.3729535305 	2.376806199 	-0.009520440818 	2.875103112e-07
0.3788129912 	2.387357332 	-0.009258731764 	2.602213839e-07
0.3847390365 	2.39754493 	-0.008994128873 	2.351509377e-07
0.3907330384 	2.407325381 	-0.00872811411 	2.11907384e-07
0.3967939386 	2.416620442 	-0.008459795895 	1.906727732e-07
0.40292275 	2.425360662 	-0.00818845342 	1.703393602e-07
0.4091223501 	2.433517768 	-0.007915229529 	1.505846284e-07
0.4153911431 	2.441084858 	-0.007640853705 	1.317450742e-07
0.4217299005 	2.448062603 	-0.007365509724 	1.136935952e-07
0.4281415507 	2.454455731 	-0.007089549667 	9.645218537e-08
0.4346249376 	2.460269945 	-0.006813360864 	8.008943484e-08
0.4411806837 	2.465513862 	-0.006537284519 	6.462993825e-08
0.4478113283 	2.470198646 	-0.006261611203 	5.011185879e-08
0.4545162663 	2.474336266 	-0.005986668829 	3.659271979e-08
0.4612960355 	2.477940482 	-0.00571276168 	2.407019924e-08
0.4681530281 	2.481026551 	-0.005440171887 	1.254615658e-08
0.4750867375 	2.483610145 	-0.005169192619 	2.026867592e-09
0.4765328118 	2.484042751 	-0.00511368677 	3.112434022e-06
0.4820978659 	2.485707606 	-0.004900075047 	7.629838814e-09
0.4891887013 	2.487336504 	-0.004633125833 	1.637746169e-08
0.4963586739 	2.488515457 	-0.004369267178 	2.423260134e-08
0.5035289548 	2.489266395 	-0.004110868347 	3.119240107e-08
0.5106210553 	2.489623383 	-0.003860086785 	3.726015112e-08
0.5176348988 	2.48962741 	-0.00361739676 	4.254259921e-08
0.524571751 	2.489316243 	-0.00338257688 	4.714044917e-08
0.5314326313 	2.488722996 	-0.003155365161 	5.111727445e-08
0.5382178046 	2.487876905 	-0.002935540921 	5.454793972e-08
0.5449284847 	2.48680366 	-0.002722835638 	5.750113988e-08
0.5515655 	2.485525799 	-0.002516989748 	6.001438557e-08
0.5581292774 	2.48406309 	-0.002317748145 	6.214056971e-08
0.56462091 	2.482432763 	-0.002124851383 	6.392730773e-08
0.5710412155 	2.480649842 	-0.001938048376 	6.539887954e-08
0.5773906736 	2.478727438 	-0.001757099082 	6.659373017e-08
0.5836702305 	2.476676875 	-0.001581765869 	6.754862361e-08
0.5898807815 	2.474507937 	-0.001411820723 	6.828146046e-08
0.596022799 	2.472229112 	-0.001247049263 	6.882030753e-08
0.6020970845 	2.469847633 	-0.001087242036 	6.919477471e-08
0.6081046371 	2.467369637 	-0.0009321973123 	6.942000852e-08
0.6140458957 	2.464800395 	-0.0007817274514 	6.951364173e-08
0.6199215913 	2.462144305 	-0.0006356507617 	6.949767537e-08
0.6257326483 	2.459404973 	-0.0004937915163 	6.938625116e-08
0.6314796341 	2.456585399 	-0.0003559853831 	6.918547366e-08
0.6371632004 	2.453687999 	-0.0002220754321 	6.890885724e-08
0.6427841045 	2.45071462 	-9.190991597e-05 	6.856664042e-08
0.6483431106 	2.447666645 	3.465531321e-05 	6.815814438e-08
0.6538407712 	2.444545087 	0.0001577559112 	6.768663199e-08
0.6592777631 	2.441350562 	0.0002775223566 	6.715624488e-08
0.6646548492 	2.438083332 	0.000394079851 	6.656706967e-08
0.6699726393 	2.434743396 	0.0005075462139 	6.591382346e-08
0.6752317453 	2.431330516 	0.0006180332643 	6.519819916e-08
0.6804328147 	2.427844199 	0.000725648695 	6.442322124e-08
0.6855765764 	2.424283745 	0.0008304958043 	6.359119042e-08
0.690663582 	2.420648335 	0.0009326673497 	6.271130428e-08
0.6956944499 	2.416936946 	0.001032207438 	6.182237305e-08
0.7006697996 	2.413148056 	0.00112931348 	6.076500103e-08
0.7055903096 	2.409278256 	0.001224379665 	5.986224309e-08
0.71045652 	2.405309731 	0.001316623672 	5.921509154e-08
0.7152690291 	2.401184009 	0.001405451649 	5.824684153e-08
0.7200284294 	2.396811392 	0.001491411541 	5.733751466e-08
0.7247353465 	2.392126035 	0.001573963853 	5.665316231e-08
0.7293903257 	2.38711028 	0.001652819619 	5.585767329e-08
0.7339939345 	2.381781611 	0.001728676341 	5.496233035e-08
0.7385467395 	2.376179389 	0.001802131009 	5.390605133e-08
0.7430493185 	2.370351877 	0.001873784091 	5.264395869e-08
0.7475022216 	2.364345531 	0.001944151332 	5.115706439e-08
0.7519059841 	2.358198306 	0.00201360977 	4.945353997e-08
0.7562611482 	2.351936979 	0.00208238671 	4.755627972e-08
0.760568251 	2.345577507 	0.00215057914 	4.549228532e-08
0.7648278404 	2.339127057 	0.002218186216 	4.328344888e-08
0.7690404224 	2.332586601 	0.002285143252 	4.09440324e-08
0.7732065157 	2.325953318 	0.002351351043 	3.848034141e-08
0.7773266334 	2.319222523 	0.002416697189 	3.589050315e-08
0.781401286 	2.31238903 	0.002481069407 	3.316663891e-08
0.7854309805 	2.305447989 	0.002544362184 	3.029649084e-08
0.7894162045 	2.298395331 	0.002606478585 	2.726751831e-08
0.7933574489 	2.291227895 	0.002667329177 	2.406806587e-08
0.7972551988 	2.283943394 	0.002726829226 	2.068798238e-08
0.801109936 	2.276540293 	0.002784895466 	1.711922545e-08
0.8049221386 	2.269017658 	0.002841443139 	1.335588349e-08
0.8086922709 	2.261375014 	0.002896383799 	9.395200461e-09
0.8124207971 	2.253612228 	0.002949624174 	5.237355305e-09
0.8161081764 	2.245729414 	0.003001065805 	8.851934884e-10
0.8197548627 	2.237726888 	0.003050605346 	-3.655999857e-09
0.8233613088 	2.22960515 	0.003098135229 	-8.37892149e-09
0.8269279554 	2.221364899 	0.003143544233 	-1.327496645e-08
0.8304552415 	2.213007073 	0.003186717748 	-1.833575418e-08
0.8339436015 	2.20453292 	0.00322753732 	-2.355452763e-08
0.8373934648 	2.195944098 	0.003265879355 	-2.892728561e-08
0.8408052569 	2.1872428 	0.003301613278 	-3.445312563e-08
0.8441793988 	2.178431872 	0.003334599652 	-4.013274573e-08
0.8475163046 	2.169514904 	0.003364689241 	-4.596661742e-08
0.8508163852 	2.160496231 	0.003391724339 	-5.195065192e-08
0.8540800469 	2.151380805 	0.003415543562 	-5.806974392e-08
0.8573076917 	2.142173888 	0.003435991114 	-6.429029889e-08
0.8604997173 	2.132880546 	0.003452930616 	-7.055321671e-08
0.8636565172 	2.123504994 	0.003466262051 	-7.676981626e-08
0.8667784796 	2.114049897 	0.003475938455 	-8.282831323e-08
0.8698659887 	2.104515834 	0.003481976918 	-8.861230043e-08
0.8729194249 	2.094901216 	0.00348445685 	-9.403250235e-08
0.8759391641 	2.085202989 	0.003483498477 	-9.906599076e-08
0.8789255782 	2.075418417 	0.00347921685 	-1.037883414e-07
0.8818790354 	2.065548089 	0.003471651855 	-1.083725379e-07
0.884799899 	2.055599974 	0.003460682077 	-1.13077731e-07
0.8876885287 	2.045593808 	0.003445939697 	-1.181893073e-07
0.8905452802 	2.035564368 	0.003426755236 	-1.240069913e-07
0.8933705053 	2.025561542 	0.00340216605 	-1.309119886e-07
0.8961645519 	2.015644958 	0.003371031822 	-1.393650211e-07
0.8989277641 	2.005871614 	0.003332306711 	-1.495269751e-07
0.9016604823 	1.996277015 	0.003285638426 	-1.619495447e-07
0.9043630429 	1.98685223 	0.003231061059 	-1.721659033e-07
0.9070357788 	1.977525213 	0.003170318309 	-1.75723692e-07
0.909679019 	1.968200624 	0.003106346316 	-1.746781527e-07
0.912293089 	1.958828343 	0.003039575835 	-1.728103035e-07
0.9148783108 	1.949396586 	0.002969953433 	-1.717743502e-07
0.9174350027 	1.939898608 	0.002898111075 	-1.708962901e-07
0.9199634796 	1.93032796 	0.002824093151 	-1.70070308e-07
0.9224640529 	1.920677713 	0.00274801747 	-1.690627806e-07
0.9249370305 	1.910940072 	0.0026700146 	-1.677586701e-07
0.9273827169 	1.901106211 	0.002590228434 	-1.661105116e-07
0.9298014133 	1.891166113 	0.002508763485 	-1.641057016e-07
0.9321934175 	1.881955525 	0.002432775012 	-1.619622083e-07
0.9337515725 	1.874430216 	0.00237049378 	-1.600178938e-07
0.9352809823 	1.867762962 	0.002315249465 	-1.58164668e-07
0.9367821771 	1.861108029 	0.002260126204 	-1.561998721e-07
0.9382556774 	1.85446224 	0.002205192093 	-1.541305871e-07
0.9397019943 	1.847822341 	0.002150492995 	-1.519636098e-07
0.941121629 	1.841184998 	0.002096078693 	-1.497048963e-07
0.942515074 	1.834546803 	0.002041996796 	-1.473602731e-07
0.9438828123 	1.827904273 	0.001988292601 	-1.449355365e-07
0.9452253182 	1.821253856 	0.001935009076 	-1.42436459e-07
0.9465430572 	1.814591928 	0.001882186861 	-1.398688305e-07
0.9478364862 	1.8079148 	0.001829864262 	-1.372384683e-07
0.9491060536 	1.801218716 	0.001778077259 	-1.345512042e-07
0.9503521998 	1.794499848 	0.001726859529 	-1.318128553e-07
0.9515753567 	1.7877543 	0.001676242486 	-1.290291881e-07
0.9527759484 	1.780978102 	0.001626255331 	-1.262058797e-07
0.9539543913 	1.774167209 	0.001576925112 	-1.23348481e-07
0.955111094 	1.76731749 	0.00152827679 	-1.204623852e-07
0.9562464575 	1.760424731 	0.001480333302 	-1.175528016e-07
0.9573608755 	1.75348462 	0.001433115642 	-1.146247373e-07
0.9584547344 	1.746492747 	0.001386642925 	-1.116829845e-07
0.9595284136 	1.739444587 	0.001340932463 	-1.087321128e-07
0.9605822851 	1.732335496 	0.001295999835 	-1.057764303e-07
0.9616167146 	1.725160698 	0.001251858957 	-1.028200555e-07
0.9626320607 	1.717915269 	0.001208522146 	-9.986691333e-08
0.9636286753 	1.710594128 	0.00116600019 	-9.692072492e-08
0.9646069042 	1.703192019 	0.001124302403 	-9.398501783e-08
0.9655670864 	1.695703492 	0.001083436692 	-9.10631365e-08
0.9665095549 	1.688122887 	0.001043409606 	-8.815825296e-08
0.9674346365 	1.680444309 	0.001004226398 	-8.527337725e-08
0.968342652 	1.672661609 	0.0009658910703 	-8.24113672e-08
0.9692339161 	1.664768355 	0.0009284064303 	-7.957493736e-08
0.9701087379 	1.656757803 	0.000891774134 	-7.676666702e-08
0.9709674208 	1.648622867 	0.0008559947336 	-7.398900727e-08
0.9718102625 	1.640356086 	0.0008210677217 	-7.124428709e-08
0.9726375552 	1.631949577 	0.0007869915731 	-6.85347185e-08
0.9734495857 	1.623395 	0.0007537637864 	-6.586240094e-08
0.9742466358 	1.614683507 	0.0007213809233 	-6.322932492e-08
0.9750289816 	1.605805685 	0.0006898386472 	-6.063737497e-08
0.9757968945 	1.596751498 	0.0006591317606 	-5.808833217e-08
0.9765506407 	1.58751022 	0.0006292542415 	-5.558387613e-08
0.9772904816 	1.578070356 	0.0006001992789 	-5.312558688e-08
0.9780166737 	1.568419558 	0.0005719593079 	-5.071494638e-08
0.9787294689 	1.558544524 	0.0005445260438 	-4.835334001e-08
0.9794291141 	1.548430892 	0.0005178905163 	-4.604205752e-08
0.9801158522 	1.538063108 	0.0004920431037 	-4.378229145e-08
0.9807899211 	1.527424287 	0.0004669735661 	-4.157514589e-08
0.9814515546 	1.516496043 	0.0004426710807 	-3.942163466e-08
0.9821009821 	1.505258301 	0.0004191242775 	-3.732268005e-08
0.9827384288 	1.493689073 	0.0003963212762 	-3.527911009e-08
0.9833641157 	1.481764206 	0.0003742497268 	-3.329165133e-08
0.9839782598 	1.469457077 	0.0003528968513 	-3.136091439e-08
0.984581074 	1.456738246 	0.0003322494935 	-2.94873702e-08
0.9851727673 	1.443575038 	0.0003122941784 	-2.767132176e-08
0.9857535448 	1.429931061 	0.0002930171449 	-2.591288256e-08
0.986323608 	1.415765618 	0.0002744039105 	-2.421189846e-08
0.9868831546 	1.401033015 	0.0002564393961 	-2.256743131e-08
0.9874323785 	1.385681707 	0.0002391097261 	-2.097788108e-08
0.9879714701 	1.369653267 	0.0002224695065 	-1.94473377e-08
0.9885006164 	1.352880821 	0.0002062578909 	-1.80178508e-08
0.9890200009 	1.336822364 	0.0001919770322 	-1.660585209e-08
0.989354275 	1.323216778 	0.0001809847213 	-1.558204118e-08
0.989688549 	1.310650661 	0.0001712570975 	-1.489329294e-08
0.990022823 	1.297433743 	0.0001616170227 	-1.387912228e-08
0.990357097 	1.28348438 	0.0001523470345 	-1.292215817e-08
0.990691371 	1.268720593 	0.0001432883732 	-1.217316254e-08
0.9910256451 	1.253058622 	0.0001344143988 	-1.136050449e-08
0.9913599191 	1.236407151 	0.0001257672684 	-1.056755996e-08
0.9916941931 	1.218663204 	0.0001173456723 	-9.800624991e-09
0.9920284671 	1.199708543 	0.000109145629 	-9.05879682e-09
0.9923627412 	1.179406001 	0.000101164929 	-8.341325494e-09
0.9926970152 	1.157595385 	9.340280524e-05 	-7.648479083e-09
0.9930312892 	1.13408866 	8.585966815e-05 	-6.980488469e-09
0.9933655632 	1.108664168 	7.853732846e-05 	-6.337505132e-09
0.9936998372 	1.081059667 	7.143954823e-05 	-5.719666583e-09
0.9940341113 	1.050963923 	6.457276564e-05 	-5.127118692e-09
0.9943683853 	1.018006734 	5.793866677e-05 	-4.559446614e-09
0.9947026593 	0.9817484059 	5.15069669e-05 	-4.01603792e-09
0.9950369333 	0.9416697246 	4.52399884e-05 	-3.500486721e-09
0.9953712073 	0.8971630841 	3.995376944e-05 	-3.074900132e-09
0.9957054814 	0.8475253415 	3.634974924e-05 	-2.542318845e-09
0.9960397554 	0.7919161254 	2.950086721e-05 	-1.961205021e-09
0.9963740294 	0.729267228 	1.756831343e-05 	-1.706167478e-09
0.9967083034 	0.6584383537 	7.42537903e-06 	-1.446277552e-09
0.9970425775 	0.5788153671 	3.112293998e-06 	-1.107468039e-09
0.9973768515 	0.4909367471 	7.346254536e-06 	-8.188941874e-10
0.9977111255 	0.3967177631 	1.409459982e-05 	-4.53577337e-10
0.9980453995 	0.2988288904 	1.216114188e-05 	-1.824000125e-10
0.9983796735 	0.1994695962 	4.955853285e-06 	-7.085348932e-11
0.9987139476 	0.09974929984 	7.213597128e-07 	-2.455842017e-11
0.9990482216 	0.04207986026 	-7.538304632e-08 	-4.299327061e-12
0.9990482216 	0.04207986026 	-7.538304632e-08 	-4.299327061e-12
