2.89032272e-36 	0.009187944146 	-3.753489861e-16 	-2.161241042e-23 	1.533388309e-29 	8.829174632e-37 	5.083795423e-44
0.0002557009779 	0.009747471234 	0.0001917853197 	1.305586448e-08 	0.003573648106 	1.408402628e-07 	6.812366534e-06
0.0005113919582 	0.01020946493 	2.411363993e-05 	-2.163878991e-09 	0.003141451506 	1.808101675e-07 	5.988479692e-06
0.0007670729285 	0.009928859295 	-3.849711242e-06 	-7.022869013e-09 	0.003310635365 	1.630112028e-07 	6.310991149e-06
0.001022743877 	0.009610817513 	-1.757665154e-05 	-1.430759776e-08 	0.003395692724 	1.081563358e-07 	6.473134116e-06
0.001278404793 	0.009396627382 	-2.885336073e-05 	-2.403228093e-08 	0.00345156514 	6.214540096e-08 	6.57964247e-06
0.001534055664 	0.009289773933 	-3.91826745e-05 	-3.622574053e-08 	0.00345085979 	5.744269646e-08 	6.578297876e-06
0.001789696482 	0.00926926249 	-4.889104633e-05 	-5.086837642e-08 	0.003414480019 	9.147027921e-08 	6.508947922e-06
0.002045327237 	0.009299587141 	-5.807316194e-05 	-6.781455097e-08 	0.003363826515 	1.511129397e-07 	6.412388265e-06
0.002300947919 	0.009354650087 	-6.678527678e-05 	-8.691884735e-08 	0.0033100161 	2.271965371e-07 	6.309810659e-06
0.00255655852 	0.009423138307 	-7.507984645e-05 	-1.08122471e-07 	0.003257193 	3.171239529e-07 	6.209115149e-06
0.002812159033 	0.009510496996 	-8.293258699e-05 	-1.316294678e-07 	0.003202491338 	4.313696139e-07 	6.104838576e-06
0.003067749449 	0.00964715007 	-9.015009401e-05 	-1.580149061e-07 	0.003134909138 	6.023839714e-07 	5.976008119e-06
0.003323329763 	0.009886250508 	-9.668785121e-05 	-1.859178247e-07 	0.003041442053 	8.60551779e-07 	5.797833879e-06
0.003578899969 	0.01020589859 	-0.0001031817794 	-2.11371903e-07 	0.002939678146 	1.073988259e-06 	5.603843587e-06
0.00383446006 	0.01036427631 	-0.0001102403501 	-2.359308337e-07 	0.002912374119 	8.510302355e-07 	5.551794523e-06
0.004090010031 	0.01017888514 	-0.0001180102216 	-2.629937389e-07 	0.003003497039 	2.867303662e-07 	5.725500136e-06
0.004345549879 	0.009855595794 	-0.0001268062476 	-2.91500434e-07 	0.003127169518 	4.682228463e-08 	5.961254252e-06
0.004601079599 	0.009648481246 	-0.0001362994156 	-3.262369003e-07 	0.003198076487 	2.356122481e-07 	6.096422643e-06
0.004856599189 	0.009578278084 	-0.0001454790122 	-3.707521625e-07 	0.003214997307 	5.113176969e-07 	6.128678429e-06
0.005112108645 	0.009582631399 	-0.0001539899779 	-4.200158563e-07 	0.003203499793 	7.280394129e-07 	6.106760972e-06
0.005367607965 	0.009632328602 	-0.0001618960369 	-4.720245997e-07 	0.003176158753 	9.373466427e-07 	6.054641352e-06
0.005623097148 	0.009748082289 	-0.0001690011576 	-5.287677373e-07 	0.003127212534 	1.273265258e-06 	5.961336254e-06
0.005878576193 	0.009976572369 	-0.0001755150191 	-5.82803514e-07 	0.003045488802 	1.791280233e-06 	5.805548106e-06
0.006134045099 	0.01026697854 	-0.0001824883859 	-6.25481706e-07 	0.002955098999 	2.033638716e-06 	5.633240018e-06
0.006389503867 	0.01038052194 	-0.0001902603428 	-6.721909511e-07 	0.002936226078 	1.247779548e-06 	5.597262986e-06
0.006644952497 	0.01019571643 	-0.0001986535031 	-7.241301945e-07 	0.003018972476 	6.676641302e-08 	5.75500062e-06
0.006900390991 	0.009911815062 	-0.0002081376591 	-7.669504065e-07 	0.003127223548 	-2.159252829e-07 	5.961357249e-06
0.00715581935 	0.00973022919 	-0.0002184103153 	-8.204374606e-07 	0.003192673792 	2.542655289e-07 	6.086123605e-06
0.007411237578 	0.009672708504 	-0.0002283918367 	-8.973331723e-07 	0.003210450667 	7.738045242e-07 	6.12001127e-06
0.007666645676 	0.009707925709 	-0.0002386639116 	-9.957261523e-07 	0.00319284223 	1.173979163e-06 	6.086444696e-06
0.008063470924 	0.009836162678 	-0.00025028199 	-1.12524946e-06 	0.003142052141 	1.668139517e-06 	5.989624668e-06
0.008467729379 	0.01007208568 	-0.0002623722908 	-1.260942056e-06 	0.003058763255 	2.348582531e-06 	5.830852903e-06
0.008879559814 	0.01034822926 	-0.0002749722654 	-1.32338087e-06 	0.002971544612 	2.549330837e-06 	5.664589928e-06
0.009299103586 	0.01045492803 	-0.000288662266 	-1.320010748e-06 	0.002950293483 	1.565752841e-06 	5.624079371e-06
0.009726504672 	0.0102991828 	-0.0003034357347 	-1.309524969e-06 	0.003018244592 	4.391517662e-07 	5.753613069e-06
0.01016190973 	0.01006268416 	-0.0003199979653 	-1.278293021e-06 	0.003107769049 	2.470912646e-07 	5.924271568e-06
0.01060546813 	0.009933706142 	-0.0003378396586 	-1.260286587e-06 	0.003154772672 	6.669874101e-07 	6.013873537e-06
0.01105733204 	0.00996214077 	-0.0003549236765 	-1.261314471e-06 	0.003144182383 	1.198070799e-06 	5.993685502e-06
0.01151765644 	0.01014105151 	-0.0003705818366 	-1.242907315e-06 	0.00308298686 	1.66858378e-06 	5.877029828e-06
0.01198659919 	0.01039004414 	-0.000386367473 	-1.191750954e-06 	0.00300404925 	1.685983169e-06 	5.726552802e-06
0.01246432108 	0.01051110701 	-0.0004032719801 	-1.134251678e-06 	0.002975202284 	9.807253049e-07 	5.671562467e-06
0.01295098591 	0.01039657891 	-0.0004210444315 	-1.063055939e-06 	0.003027782566 	2.707783836e-07 	5.7717951e-06
0.0134467605 	0.01018799695 	-0.0004402421804 	-9.681843575e-07 	0.003108814748 	1.835109747e-07 	5.926264961e-06
0.0139518148 	0.01007502972 	-0.0004607849535 	-8.783124395e-07 	0.003152863704 	4.46905672e-07 	6.010234513e-06
0.01446632189 	0.01012944219 	-0.0004807156016 	-7.898998801e-07 	0.003137280456 	7.156204297e-07 	5.980528512e-06
0.0149904581 	0.01032621535 	-0.0004996026646 	-6.782005372e-07 	0.003074754659 	7.916417663e-07 	5.861336965e-06
0.01552440303 	0.01053068177 	-0.0005192330341 	-5.504560504e-07 	0.00301481359 	5.321791584e-07 	5.747072626e-06
0.01606833962 	0.0105610878 	-0.0005397785864 	-4.122392585e-07 	0.003018295379 	1.799947715e-07 	5.753709883e-06
0.01662245423 	0.01040955411 	-0.0005606546208 	-2.572602789e-07 	0.003083441685 	4.922599495e-08 	5.87789685e-06
0.01718693669 	0.01025557759 	-0.0005829154626 	-9.34446334e-08 	0.003146292047 	3.559728278e-08 	5.997707109e-06
0.01750134298 	0.01024979366 	-0.0005955029444 	8.943620472e-09 	0.003152451823 	-1.829100709e-06 	6.009449353e-06
0.01776198037 	0.01024699241 	-0.000604093336 	3.064845136e-09 	0.003157925238 	4.553655064e-08 	6.019883204e-06
0.01834778225 	0.01039898515 	-0.0006222014248 	3.016774939e-09 	0.003116011132 	2.323382509e-07 	5.939983268e-06
0.01894454299 	0.01059492561 	-0.0006404742026 	7.172651766e-11 	0.00306227109 	4.728385672e-07 	5.837539811e-06
0.01955246699 	0.01066563843 	-0.0006593150803 	-1.101738847e-09 	0.003054864455 	5.580130599e-07 	5.823420707e-06
0.02017340567 	0.01057950197 	-0.000677703826 	-1.087892639e-08 	0.003101507143 	4.552613319e-07 	5.912334634e-06
0.02082217767 	0.01048093555 	-0.0006972154624 	-3.775954954e-08 	0.003150452046 	4.650703588e-07 	6.005637223e-06
0.02148308776 	0.01049774387 	-0.0007185689797 	-8.20864194e-08 	0.003158638974 	8.00195536e-07 	6.021243784e-06
0.02215636213 	0.01062535395 	-0.0007400173339 	-1.381946148e-07 	0.003129430139 	1.308353561e-06 	5.965563625e-06
0.02284223114 	0.01075143701 	-0.000761402536 	-1.894764744e-07 	0.003102665347 	1.575023179e-06 	5.914542492e-06
0.0235409294 	0.01077775574 	-0.0007824108954 	-2.503982045e-07 	0.003111556056 	1.415445856e-06 	5.931490655e-06
0.02425269589 	0.01073400859 	-0.000803682185 	-3.384811392e-07 	0.003144364778 	1.245342618e-06 	5.994033198e-06
0.02497777398 	0.01071963282 	-0.0008265641397 	-4.499120934e-07 	0.003166475193 	1.519708899e-06 	6.036181794e-06
0.02571641155 	0.01077448181 	-0.0008507582758 	-5.815787391e-07 	0.003164720245 	2.102575e-06 	6.032836375e-06
0.02646886107 	0.01085374593 	-0.0008751826458 	-7.241613869e-07 	0.003155092998 	2.488604486e-06 	6.014484167e-06
0.02723537965 	0.01089872985 	-0.0008994540622 	-7.645363956e-07 	0.003157981938 	2.145722826e-06 	6.019991289e-06
0.02801622918 	0.01090519218 	-0.000924131266 	-7.768248303e-07 	0.003174615113 	1.76357689e-06 	6.051698744e-06
0.02881167637 	0.010910425 	-0.0009499717502 	-7.69976592e-07 	0.003191915211 	1.627592781e-06 	6.084677539e-06
0.02962199284 	0.01093666942 	-0.0009767779762 	-7.394769833e-07 	0.003202136208 	1.56373625e-06 	6.1041616e-06
0.03044745527 	0.01097318633 	-0.00100387054 	-6.867626404e-07 	0.003209019909 	1.392442086e-06 	6.117283848e-06
0.03128834539 	0.0110017824 	-0.001031123823 	-6.150930546e-07 	0.003219003745 	1.141834478e-06 	6.136315814e-06
0.03214495017 	0.01101960774 	-0.00105889571 	-5.27432516e-07 	0.003233207344 	9.062817031e-07 	6.163391821e-06
0.03301756185 	0.0110353317 	-0.001087435239 	-4.244381747e-07 	0.003248640253 	6.9924368e-07 	6.192811235e-06
0.03390647809 	0.01105461837 	-0.001116686638 	-3.063261269e-07 	0.003263290931 	4.880143879e-07 	6.2207395e-06
0.03481200199 	0.01107587081 	-0.001146536567 	-1.729304575e-07 	0.003277731004 	2.632018366e-07 	6.248266293e-06
0.03573444229 	0.01109588826 	-0.001177022596 	-2.352427797e-08 	0.003293176857 	3.400257714e-08 	6.277710381e-06
0.03587252477 	0.01109863029 	-0.001181590899 	2.273600869e-08 	0.003295627774 	-4.827214119e-07 	6.282382509e-06
0.03667411338 	0.01111363344 	-0.001215458851 	-4.573949257e-07 	0.003314388441 	3.952831778e-07 	6.318145556e-06
0.03763133546 	0.01113103409 	-0.001255501084 	-9.924259379e-07 	0.003336966096 	8.568838492e-07 	6.36118484e-06
0.03860643463 	0.01114893227 	-0.001295870768 	-1.525226643e-06 	0.003359946712 	1.31699199e-06 	6.404992282e-06
0.03959974299 	0.01116709267 	-0.001336461676 	-2.056256741e-06 	0.003383479424 	1.774085667e-06 	6.449852171e-06
0.04062400445 	0.01118519524 	-0.001377676606 	-2.591142647e-06 	0.003407763544 	2.232176764e-06 	6.496144454e-06
0.04168283404 	0.01120349444 	-0.00141995794 	-3.133525286e-06 	0.003432920938 	2.694231819e-06 	6.544101438e-06
0.04276144599 	0.01122233243 	-0.001462820509 	-3.683279324e-06 	0.003458728054 	3.156951656e-06 	6.593296975e-06
0.04386020817 	0.01124151378 	-0.001505960761 	-4.239178049e-06 	0.003485034626 	3.619732611e-06 	6.643444612e-06
0.04497949521 	0.01126088833 	-0.00154952813 	-4.802398903e-06 	0.003511934223 	4.083287947e-06 	6.694722721e-06
0.04611968868 	0.01128048859 	-0.001593613091 	-4.617171548e-06 	0.003539510296 	3.907493529e-06 	6.747290381e-06
0.04728117716 	0.01130029394 	-0.001638222502 	-4.004115435e-06 	0.003567765872 	3.371994102e-06 	6.801153361e-06
0.04846435643 	0.01132048779 	-0.001683313599 	-3.385604494e-06 	0.00359653408 	2.836665047e-06 	6.855993561e-06
0.04966962954 	0.01134121624 	-0.001729128518 	-2.761852197e-06 	0.003626020668 	2.301437668e-06 	6.912203193e-06
0.05089740698 	0.01136000861 	-0.001773768506 	-2.109025365e-06 	0.003656313563 	1.749896265e-06 	6.96994987e-06
0.05214810683 	0.01137490751 	-0.001822674679 	-1.462214217e-06 	0.003691363543 	1.198517063e-06 	7.036764875e-06
0.05406782255 	0.0113978903 	-0.00188177618 	-4.958735244e-07 	0.003733566941 	4.088928371e-07 	7.11721628e-06
0.05513332125 	0.01141499564 	-0.001921222743 	3.191601394e-07 	0.003759696769 	-1.973362742e-06 	7.167026996e-06
0.05600859301 	0.01143644822 	-0.001954262438 	-4.350921333e-07 	0.003784145351 	4.66137446e-07 	7.213632789e-06
0.05797064766 	0.01148578875 	-0.00202806722 	-1.380673695e-06 	0.003838582975 	1.48355677e-06 	7.31740603e-06
0.05995421845 	0.01153221738 	-0.002100600909 	-2.290762419e-06 	0.003894058802 	2.48071949e-06 	7.423158374e-06
0.06200681858 	0.01157695266 	-0.002172889871 	-3.188649884e-06 	0.003951107369 	3.480071522e-06 	7.5319088e-06
0.06408691716 	0.01162012181 	-0.002244816499 	-4.040154751e-06 	0.004009218108 	4.451837742e-06 	7.642684019e-06
0.06618987704 	0.01166140005 	-0.002315164025 	-3.939089224e-06 	0.004067530453 	4.383107689e-06 	7.753843556e-06
0.0683159485 	0.01170042568 	-0.002383910028 	-2.947268317e-06 	0.004125948082 	3.312094876e-06 	7.865203792e-06
0.07046538455 	0.01173720767 	-0.002451289913 	-1.999425647e-06 	0.004184552087 	2.26882236e-06 	7.976919314e-06
0.07263844095 	0.01177173051 	-0.002517405469 	-1.092048933e-06 	0.004243295112 	1.250757544e-06 	8.088899847e-06
0.07483537623 	0.0118040573 	-0.002582351076 	-2.212522445e-07 	0.004302160183 	2.556705871e-07 	8.201113032e-06
0.07541285244 	0.01181214697 	-0.002599055634 	3.636554377e-07 	0.004317585232 	-1.033633305e-06 	8.230517463e-06
0.07705645173 	0.01181325624 	-0.002667461427 	-1.540540153e-06 	0.004375862823 	1.355252077e-06 	8.341610749e-06
0.07930193161 	0.01181063578 	-0.002759943372 	-3.633986248e-06 	0.004456738247 	3.246630387e-06 	8.495781786e-06
0.08160880498 	0.01180296105 	-0.002853301884 	-5.758246982e-06 	0.00454041698 	5.227051803e-06 	8.655296707e-06
0.08396062899 	0.01179081088 	-0.00294737826 	-7.9003567e-06 	0.00462709157 	7.293932136e-06 	8.820522566e-06
0.08633835627 	0.01177467416 	-0.00304119771 	-9.412953739e-06 	0.00471600963 	8.8427179e-06 	8.990025102e-06
0.08874227161 	0.01175484206 	-0.003134273931 	-7.219506543e-06 	0.004806613923 	6.900931742e-06 	9.162742067e-06
0.09117266288 	0.01173160505 	-0.003226580676 	-5.02552086e-06 	0.004898828478 	4.887179915e-06 	9.338528637e-06
0.09362982109 	0.01170519856 	-0.003318047861 	-2.839025088e-06 	0.004992548577 	2.808425859e-06 	9.517185196e-06
0.0961140404 	0.01167581333 	-0.003408521189 	-6.660738619e-07 	0.005087525982 	6.700295237e-07 	9.698238526e-06
0.09688760698 	0.0116662451 	-0.003436124776 	6.639965338e-07 	0.005116914242 	-1.180068846e-06 	9.754260717e-06
0.09862561817 	0.0116732587 	-0.003489423589 	-1.115753333e-06 	0.005178913407 	1.329404095e-06 	9.872448358e-06
0.10119209 	0.01168299203 	-0.003565243051 	-2.697225461e-06 	0.005268384487 	3.249634029e-06 	1.00430051e-05
0.1038191759 	0.01169170051 	-0.003640487639 	-4.24285012e-06 	0.005358988747 	5.16510111e-06 	1.021572201e-05
0.1064752671 	0.01169900309 	-0.003714833408 	-5.73164636e-06 	0.005450178898 	7.047755403e-06 	1.038955578e-05
0.1091606836 	0.01170559026 	-0.003787553504 	-5.998882096e-06 	0.005540935499 	7.451218554e-06 	1.056256308e-05
0.111875749 	0.01171165169 	-0.0038586498 	-4.362769783e-06 	0.005631150798 	5.475503443e-06 	1.073453852e-05
0.1146207903 	0.01171723566 	-0.003928305419 	-2.78133578e-06 	0.005721106079 	3.528382533e-06 	1.090601829e-05
0.1173961382 	0.01172273137 	-0.003996399886 	-1.253859443e-06 	0.005810736503 	1.609958391e-06 	1.107687879e-05
0.1197759294 	0.01172765446 	-0.004052811557 	4.182809619e-07 	0.005886369684 	-6.191053844e-07 	1.122105665e-05
0.1207961827 	0.01172951093 	-0.00406855997 	3.978247775e-07 	0.005912722504 	-4.142000562e-07 	1.127129245e-05
0.1275401903 	0.0117415645 	-0.004170591272 	2.959433491e-06 	0.006084919562 	-3.025890606e-06 	1.15995479e-05
0.1342390155 	0.01175283341 	-0.004269374448 	3.680682272e-06 	0.006253615078 	-3.703181164e-06 	1.192112844e-05
0.1408933723 	0.01176370091 	-0.004364496519 	1.44882714e-06 	0.00641819321 	-1.434551927e-06 	1.22348601e-05
0.1453219 	0.01177064369 	-0.004426187784 	8.749730333e-07 	0.006526227604 	-1.268196517e-06 	1.244080368e-05
0.1473336285 	0.01173766024 	-0.004472602121 	-2.38348338e-07 	0.006599649681 	5.46914287e-07 	1.258076657e-05
0.1534016459 	0.01163810286 	-0.004610032665 	-9.506467331e-07 	0.006820349304 	2.289930022e-06 	1.300148139e-05
0.1594490221 	0.01153847282 	-0.004743329543 	-1.56441997e-06 	0.007039023173 	3.938079732e-06 	1.341833456e-05
0.1655334216 	0.01143797447 	-0.004874108378 	-9.20509198e-07 	0.00725813528 	2.418928495e-06 	1.383602314e-05
0.1716618299 	0.01133712803 	-0.005002619945 	-2.767135124e-07 	0.007478278276 	7.604455829e-07 	1.425567687e-05
0.1743275034 	0.0112936292 	-0.005057508715 	1.276265058e-06 	0.007573935672 	-1.665995509e-06 	1.443802646e-05
0.177417951 	0.01126611714 	-0.005099118118 	4.445832875e-07 	0.007677360921 	8.114683936e-07 	1.463518373e-05
0.18289823 	0.01121875299 	-0.005171636459 	1.218115328e-06 	0.007859877278 	2.27524449e-06 	1.498311063e-05
0.1883761782 	0.01117269185 	-0.005242486477 	1.976283103e-06 	0.00804122189 	3.774291971e-06 	1.532880386e-05
0.1938521216 	0.01112790972 	-0.005311678625 	1.784285689e-06 	0.008221427508 	3.48265469e-06 	1.567232586e-05
0.1993672192 	0.0110840394 	-0.005379751828 	1.077821734e-06 	0.008402238856 	2.150561743e-06 	1.601700254e-05
0.2049439151 	0.01104060119 	-0.005446969 	3.739065831e-07 	0.008584767908 	7.632198045e-07 	1.636495365e-05
0.2079444388 	0.0110176548 	-0.005482497199 	1.312518202e-06 	0.008682989943 	-1.669795634e-06 	1.655219214e-05
0.2102620035 	0.01098751379 	-0.005508849361 	1.901106609e-07 	0.008765594541 	1.069803419e-06 	1.670965947e-05
0.2152872245 	0.01092312429 	-0.005565037807 	6.022010484e-07 	0.008944932111 	3.397094974e-06 	1.705152672e-05
0.2203176127 	0.01085946477 	-0.005619894823 	1.017881057e-06 	0.009124615606 	5.747626509e-06 	1.73940534e-05
0.2253537002 	0.01079645959 	-0.005673404044 	9.665143225e-07 	0.009304731454 	5.456589465e-06 	1.773740427e-05
0.2304675697 	0.01073267165 	-0.005726144557 	5.809071e-07 	0.009488166396 	3.267467558e-06 	1.808708225e-05
0.2356043485 	0.01066865979 	-0.005777494209 	1.871589419e-07 	0.009673328534 	1.046578566e-06 	1.844005275e-05
0.2380122946 	0.01063863487 	-0.005800938704 	1.365397732e-06 	0.009760586249 	-1.56402841e-06 	1.860639021e-05
0.2406777469 	0.01061346218 	-0.005820588198 	4.303435488e-07 	0.009851337516 	9.631672704e-07 	1.877938734e-05
0.2457008445 	0.01056513197 	-0.005856521949 	1.236617059e-06 	0.01002384492 	2.797351869e-06 	1.910823439e-05
0.250735156 	0.01051554409 	-0.005891039187 	2.044104325e-06 	0.01019824081 	4.671493534e-06 	1.944068143e-05
0.2558325572 	0.01046375686 	-0.005924211365 	2.545260118e-06 	0.01037657818 	5.873339952e-06 	1.978064204e-05
0.2609721718 	0.01040958474 	-0.005955701751 	1.79045367e-06 	0.01055855825 	4.168629827e-06 	2.012754663e-05
0.2661223867 	0.01035322872 	-0.005985131195 	1.032245718e-06 	0.0107431971 	2.422436098e-06 	2.047951959e-05
0.271283911 	0.01029452642 	-0.006012275327 	2.674682637e-07 	0.01093059651 	6.315113284e-07 	2.083675495e-05
0.273085448 	0.01027341148 	-0.006021036098 	1.091467685e-06 	0.01099672603 	-9.176749782e-07 	2.09628162e-05
0.2763941239 	0.01022711845 	-0.006032485713 	6.42192521e-07 	0.01112375947 	1.446906553e-06 	2.120497723e-05
0.2815469872 	0.01015302577 	-0.006047584879 	1.655571986e-06 	0.0113236138 	3.71429827e-06 	2.158595513e-05
0.2867304373 	0.01007593396 	-0.006059429382 	2.697086543e-06 	0.01152734893 	6.016028587e-06 	2.197433092e-05
0.2919293987 	0.009995915855 	-0.006067580557 	3.767852434e-06 	0.01173422356 	8.344957997e-06 	2.236869147e-05
0.2971446783 	0.00991273598 	-0.00607162058 	3.092697718e-06 	0.01194441126 	6.792913024e-06 	2.276936763e-05
0.3023972021 	0.009825959006 	-0.00607112515 	2.156651948e-06 	0.01215867375 	4.69287557e-06 	2.31778115e-05
0.3077176101 	0.009734938104 	-0.006065541585 	1.182607961e-06 	0.01237812865 	2.547317704e-06 	2.359615353e-05
0.313054455 	0.009640315483 	-0.006054377212 	1.777004635e-07 	0.0126010744 	3.786864323e-07 	2.402115009e-05
0.3139886584 	0.009623201839 	-0.006051515435 	7.355484162e-07 	0.0126404782 	-3.012168366e-07 	2.409626469e-05
0.3183414675 	0.00954497268 	-0.006031774777 	1.038063842e-06 	0.01282364041 	1.773960274e-06 	2.444542277e-05
0.3236377024 	0.009446769436 	-0.006001626728 	2.321784935e-06 	0.01304858518 	3.927472664e-06 	2.487423001e-05
0.3290180949 	0.009344092546 	-0.005964157834 	3.651812683e-06 	0.01327854899 	6.113246646e-06 	2.531260496e-05
0.3344194035 	0.00923761143 	-0.005918856482 	5.01227578e-06 	0.01351161233 	8.302108257e-06 	2.575688845e-05
0.3398426614 	0.009127381656 	-0.005865108983 	5.054490603e-06 	0.01374707269 	8.285405819e-06 	2.620574135e-05
0.3452904742 	0.00901332662 	-0.005802122027 	3.893711143e-06 	0.01398513737 	6.320498058e-06 	2.66595588e-05
0.3508197691 	0.008894696011 	-0.005728739417 	2.691857745e-06 	0.01422737669 	4.331077161e-06 	2.712133427e-05
0.3563719332 	0.00877243319 	-0.005644546385 	1.467080809e-06 	0.01447176928 	2.342955399e-06 	2.758721446e-05
0.3619481526 	0.008647019507 	-0.005549072208 	2.237344106e-07 	0.01471734803 	3.554410945e-07 	2.805535583e-05
0.3629570058 	0.008623883837 	-0.005529864597 	1.289561837e-06 	0.01476173807 	-2.093568691e-07 	2.813997557e-05
0.3675345772 	0.008521779762 	-0.00543845009 	1.145943089e-06 	0.01496058522 	1.509626165e-06 	2.851903351e-05
0.3731844475 	0.008394421246 	-0.005314315446 	2.539857728e-06 	0.01520483117 	3.348494081e-06 	2.898463418e-05
0.3788622067 	0.008265256928 	-0.005176999733 	3.913792707e-06 	0.01544903018 	5.172080646e-06 	2.945014537e-05
0.3845691096 	0.008134728351 	-0.005025661404 	5.262250887e-06 	0.01569211305 	6.983748471e-06 	2.991352886e-05
0.3903361571 	0.008002671077 	-0.004858600242 	6.58506532e-06 	0.01593457069 	8.798118121e-06 	3.037572051e-05
0.3961520378 	0.007869593941 	-0.004674620969 	7.046625329e-06 	0.0161753371 	9.498549628e-06 	3.083468821e-05
0.4019987059 	0.007736927939 	-0.004473363078 	5.798833798e-06 	0.01641262318 	7.903291159e-06 	3.128702143e-05
0.4078847518 	0.007605010445 	-0.004253338275 	4.547009458e-06 	0.01664485805 	6.345979767e-06 	3.172972564e-05
0.4138401192 	0.007471043038 	-0.004007018691 	3.181163867e-06 	0.0168720177 	4.776584089e-06 	3.216275508e-05
0.4198282563 	0.007348015497 	-0.00370622563 	1.603231468e-06 	0.01708363952 	3.388283983e-06 	3.256616508e-05
0.4258507121 	0.007275520437 	-0.003318773286 	5.12270021e-07 	0.01725251448 	1.890563506e-06 	3.288808768e-05
0.4319424031 	0.007281167591 	-0.002856818747 	2.08739148e-08 	0.01736036049 	1.04556225e-07 	3.309367215e-05
0.4322943136 	0.007284863009 	-0.002829338443 	1.280545774e-06 	0.01736388854 	-5.681333783e-07 	3.310039761e-05
0.4380348569 	0.007348308143 	-0.002375619751 	3.905080883e-07 	0.01741944963 	1.701981594e-06 	3.320631248e-05
0.4441641957 	0.00744689831 	-0.001913983808 	8.251907056e-07 	0.0174563691 	3.458476393e-06 	3.327669125e-05
0.4503583492 	0.00757134316 	-0.001473604946 	1.275561035e-06 	0.01747977931 	5.09566948e-06 	3.332131761e-05
0.4566034394 	0.007714831816 	-0.001052463429 	1.678409985e-06 	0.01749513238 	6.538990446e-06 	3.335058483e-05
0.4628906231 	0.007873280106 	-0.000648523643 	2.026106846e-06 	0.01750487443 	7.80438125e-06 	3.336915589e-05
0.4692413887 	0.008043869846 	-0.0002605015536 	2.332621789e-06 	0.01751217564 	8.903366827e-06 	3.338307403e-05
0.4756460929 	0.008224861361 	0.0001121528466 	2.599742996e-06 	0.01751799956 	9.844505963e-06 	3.339417604e-05
0.4820960035 	0.008415069021 	0.0004699804215 	2.830756138e-06 	0.01752264359 	1.064147247e-05 	3.340302885e-05
0.4886119779 	0.008613391794 	0.0008135408703 	2.486809929e-06 	0.01752779965 	9.277773002e-06 	3.341285773e-05
0.4951819604 	0.008819014819 	0.001143209537 	2.139991807e-06 	0.01753339066 	7.919016111e-06 	3.342351575e-05
0.5018006331 	0.009031265404 	0.001459473738 	1.824175558e-06 	0.0175393689 	6.693793385e-06 	3.343491195e-05
0.5084900918 	0.009249405668 	0.001762899953 	1.537701755e-06 	0.01754700383 	5.590230668e-06 	3.344946625e-05
0.5152322177 	0.009472853215 	0.002053887067 	1.279076546e-06 	0.01755569092 	4.605068693e-06 	3.346602624e-05
0.5220303514 	0.009701019787 	0.002332875593 	1.045568348e-06 	0.01756568224 	3.727177011e-06 	3.348507247e-05
0.5288981248 	0.00993268921 	0.002599719456 	8.361086673e-07 	0.01757789511 	2.948576969e-06 	3.350835361e-05
0.5357442139 	0.01016540906 	0.002852804466 	6.508821717e-07 	0.01759137576 	2.270232157e-06 	3.353405147e-05
0.5425033843 	0.01039673871 	0.003090956185 	4.887731444e-07 	0.01760640814 	1.685815915e-06 	3.356270737e-05
0.5491769355 	0.0106258071 	0.003314743815 	3.479124993e-07 	0.01762299619 	1.186415216e-06 	3.35943288e-05
0.5557596557 	0.01085230262 	0.003525214599 	2.257747991e-07 	0.01764061937 	7.614894204e-07 	3.362792348e-05
0.5622641271 	0.01107575312 	0.003723321837 	1.201811826e-07 	0.01765985959 	4.009711875e-07 	3.366460067e-05
0.5686844885 	0.01129588097 	0.003909952151 	2.992351341e-08 	0.0176801584 	9.880083743e-08 	3.370329586e-05
0.5711042508 	0.01137855616 	0.003977159237 	2.177890589e-06 	0.01768828331 	-3.029065558e-06 	3.37187842e-05
0.5750136979 	0.0115123002 	0.004085920395 	4.850675934e-08 	0.01770132624 	1.666178752e-07 	3.374364765e-05
0.5812674994 	0.01172495278 	0.004252018439 	1.158312156e-07 	0.01772365309 	3.938832867e-07 	3.378620882e-05
0.5874418623 	0.01193385471 	0.004408937457 	1.719876677e-07 	0.01774646727 	5.790116488e-07 	3.3829699e-05
0.5935393208 	0.01213890305 	0.004557301919 	2.185420611e-07 	0.01776974156 	7.285121376e-07 	3.387406626e-05
0.5995679114 	0.01234006135 	0.004697729533 	2.565574697e-07 	0.01779360541 	8.465969486e-07 	3.391955739e-05
0.6055216298 	0.01253730245 	0.004830750565 	2.866709302e-07 	0.01781754035 	9.365718437e-07 	3.396518404e-05
0.6114029402 	0.01273058008 	0.004956840389 	3.100685744e-07 	0.01784159764 	1.003070082e-06 	3.401104391e-05
0.617217998 	0.01291991965 	0.005076481602 	3.275007129e-07 	0.017865796 	1.048801304e-06 	3.405717271e-05
0.6229624141 	0.01310533096 	0.005190088401 	3.393866546e-07 	0.01788973145 	1.076079429e-06 	3.410280035e-05
0.6286378764 	0.01328681208 	0.005298032755 	3.466146149e-07 	0.01791343046 	1.088216949e-06 	3.414797724e-05
0.6342501096 	0.01346441684 	0.005400693182 	3.498078302e-07 	0.01793691929 	1.087199813e-06 	3.419275348e-05
0.6397954305 	0.01363817978 	0.005498400532 	3.491819176e-07 	0.01795987594 	1.074406278e-06 	3.423651523e-05
0.6452752703 	0.01380812714 	0.005591452387 	3.453545783e-07 	0.01798226114 	1.052249963e-06 	3.427918765e-05
0.6506936869 	0.01397431109 	0.005680138279 	3.389437754e-07 	0.01800416335 	1.022490363e-06 	3.432093934e-05
0.6560491642 	0.01413679706 	0.005764726817 	3.300532054e-07 	0.0180253226 	9.858626413e-07 	3.436127476e-05
0.6613423103 	0.01429563167 	0.005845453234 	3.190724742e-07 	0.01804563929 	9.440091535e-07 	3.440000402e-05
0.666575629 	0.01445085362 	0.005922537631 	3.065643139e-07 	0.01806525915 	8.982865184e-07 	3.443740492e-05
0.6717497053 	0.01460254458 	0.005996200228 	2.925833387e-07 	0.01808398573 	8.489946701e-07 	3.447310298e-05
0.6768642844 	0.01475075701 	0.006066634853 	2.773419072e-07 	0.01810169708 	7.97176591e-07 	3.450686575e-05
0.6819206085 	0.01489552835 	0.006134013883 	2.612809186e-07 	0.01811851147 	7.439068355e-07 	3.453891864e-05
0.6869210347 	0.0150369402 	0.006198512024 	2.445598465e-07 	0.01813434686 	6.895279936e-07 	3.456910529e-05
0.6918645349 	0.01517505084 	0.006260287989 	2.272432128e-07 	0.01814908202 	6.344318536e-07 	3.459719461e-05
0.6967520775 	0.01530990763 	0.006319479077 	2.095769194e-07 	0.01816272581 	5.7940089e-07 	3.462320346e-05
0.701585273 	0.01544156687 	0.006376220178 	1.918456969e-07 	0.01817534465 	5.249834663e-07 	3.464725849e-05
0.7063646295 	0.01557010471 	0.006430641405 	1.740341986e-07 	0.01818682108 	4.711730368e-07 	3.466913574e-05
0.7110902894 	0.01569557882 	0.006482861025 	1.562415708e-07 	0.01819709964 	4.184160427e-07 	3.468872953e-05
0.7157630961 	0.01581803686 	0.006532986896 	1.38655035e-07 	0.01820625693 	3.671716339e-07 	3.470618588e-05
0.7203845629 	0.015937549 	0.006581127008 	1.213563659e-07 	0.01821427995 	3.176343572e-07 	3.472147998e-05
0.7249546213 	0.01605418275 	0.006627385221 	1.042860421e-07 	0.01822108481 	2.697946578e-07 	3.473445194e-05
0.7294738451 	0.0161679864 	0.006671857993 	8.752690679e-08 	0.01822668371 	2.238932397e-07 	3.4745125e-05
0.733942979 	0.01627900631 	0.006714638504 	7.121448197e-08 	0.01823117006 	1.800999124e-07 	3.475367722e-05
0.738363276 	0.01638731561 	0.006755814944 	5.538962651e-08 	0.01823451716 	1.384238328e-07 	3.476005772e-05
0.7427346638 	0.01649298435 	0.006795472079 	4.002227072e-08 	0.01823667508 	9.880244502e-08 	3.476417132e-05
0.7470577888 	0.01659606973 	0.006833688634 	2.516294442e-08 	0.01823767259 	6.135525462e-08 	3.476607286e-05
0.7513333169 	0.0166966295 	0.006870537915 	1.086808333e-08 	0.01823756906 	2.616839419e-08 	3.47658755e-05
0.7546583093 	0.01677376425 	0.006898489088 	-2.601104522e-08 	0.01823661946 	-9.565868586e-07 	3.47640653e-05
0.7555616001 	0.01679471344 	0.006906084772 	2.838917948e-09 	0.01823636858 	6.269451939e-09 	3.476358705e-05
0.7597410789 	0.01689034408 	0.006940377411 	1.591468686e-08 	0.01823404087 	3.468458467e-08 	3.475914979e-05
0.763874694 	0.01698364009 	0.00697349134 	2.842021011e-08 	0.01823062979 	6.115289908e-08 	3.475264732e-05
0.7679630582 	0.01707465989 	0.007005479089 	4.031949569e-08 	0.01822618974 	8.564712732e-08 	3.474418334e-05
0.7720069318 	0.01716347315 	0.007036395826 	5.16269372e-08 	0.01822074364 	1.081672852e-07 	3.473380157e-05
0.7760066507 	0.01725015386 	0.007066294632 	6.238611118e-08 	0.01821427728 	1.288361477e-07 	3.472147489e-05
0.7799626731 	0.01733476653 	0.007095224031 	7.255778044e-08 	0.0182068159 	1.476990272e-07 	3.470725144e-05
0.7838755567 	0.01741737051 	0.007123226936 	8.21214958e-08 	0.01819842411 	1.647872563e-07 	3.469125435e-05
0.7877458863 	0.01749803392 	0.007150344148 	9.108724829e-08 	0.01818913943 	1.801490993e-07 	3.467355517e-05
0.7915741986 	0.01757683006 	0.00717661905 	9.950758511e-08 	0.01817897884 	1.939247933e-07 	3.465418626e-05
0.7953608184 	0.017653832 	0.007202091822 	1.073868424e-07 	0.01816795784 	2.062033358e-07 	3.463317716e-05
0.7991062579 	0.01772910829 	0.007226806506 	1.147310713e-07 	0.01815613938 	2.170443501e-07 	3.461064789e-05
0.8028110174 	0.01780273315 	0.007250801736 	1.215531492e-07 	0.01814356452 	2.26519114e-07 	3.458667672e-05
0.8064756368 	0.01787478267 	0.007274121706 	1.279000366e-07 	0.01813028456 	2.347112109e-07 	3.456136143e-05
0.8101004972 	0.01794533806 	0.007296804866 	1.338277889e-07 	0.01811631864 	2.417498546e-07 	3.453473849e-05
0.8136860075 	0.01801447861 	0.007318890243 	1.393448228e-07 	0.01810170679 	2.477201874e-07 	3.450688425e-05
0.8172326323 	0.0180822822 	0.007340419398 	1.444874686e-07 	0.01808651662 	2.527016834e-07 	3.447792756e-05
0.8207408267 	0.01814883211 	0.007361428823 	1.4928773e-07 	0.01807079114 	2.567829722e-07 	3.444795042e-05
0.8242110658 	0.0182142127 	0.007381961394 	1.538134908e-07 	0.01805458892 	2.600598494e-07 	3.441706449e-05