0.4709558481 	0.04143878588 	6.532720784e-08 	-2.17516056e-12
0.4709558481 	0.04143878588 	6.532720784e-08 	-2.17516056e-12
0.4711314108 	0.1139452563 	2.520114929e-07 	-1.546859195e-11
0.4713069734 	0.2277398345 	1.345246704e-07 	-4.42687667e-11
0.471482536 	0.3412186696 	-8.552283983e-07 	-9.028842968e-11
0.4716580986 	0.4538436895 	-8.818541658e-07 	-2.03020522e-10
0.4718336613 	0.5644637642 	3.633644722e-06 	-4.24330929e-10
0.4720092239 	0.6713412764 	1.259260163e-05 	-6.870360767e-10
0.4721847865 	0.7725975082 	2.095837423e-05 	-8.925243799e-10
0.4723603491 	0.8668057258 	2.531921332e-05 	-1.052637256e-09
0.4725359118 	0.9533064763 	2.94724083e-05 	-1.317655782e-09
0.4727114744 	1.032144726 	3.199211982e-05 	-1.501311244e-09
0.472887037 	1.103926763 	3.176588414e-05 	-1.648778401e-09
0.4730625996 	1.16952737 	3.668292484e-05 	-2.060585448e-09
0.4732381623 	1.22969625 	4.444754174e-05 	-2.413507937e-09
0.4734137249 	1.285009754 	5.040155084e-05 	-2.65567249e-09
0.4735892875 	1.335979819 	5.616924922e-05 	-2.965222623e-09
0.4737648501 	1.383073573 	6.215543786e-05 	-3.284833041e-09
0.4739404128 	1.426711083 	6.829315934e-05 	-3.610565135e-09
0.4741159754 	1.46726562 	7.453988417e-05 	-3.942814204e-09
0.474291538 	1.505066422 	8.088509344e-05 	-4.281819851e-09
0.4744671006 	1.540402867 	8.732318644e-05 	-4.627276442e-09
0.4746426632 	1.573528688 	9.384901681e-05 	-4.978914406e-09
0.4748182259 	1.604665856 	0.0001004582373 	-5.336522471e-09
0.4749937885 	1.634008689 	0.000107147348 	-5.699916241e-09
0.4751693511 	1.66172775 	0.0001139134533 	-6.068927286e-09
0.4753449137 	1.687973102 	0.0001207540078 	-6.443404889e-09
0.4755204764 	1.712877134 	0.0001276663944 	-6.823213267e-09
0.475696039 	1.736557055 	0.0001346476611 	-7.208229453e-09
0.4758716016 	1.759117189 	0.0001417002878 	-7.598346829e-09
0.4760471642 	1.780651289 	0.0001488448908 	-7.993477156e-09
0.4762227269 	1.804034145 	0.0001570550296 	-8.449241209e-09
0.4764955107 	1.831703872 	0.000167356559 	-9.02762985e-09
0.4767734216 	1.860680375 	0.0001789653531 	-9.682426414e-09
0.4770565557 	1.888435571 	0.0001909983191 	-1.036149572e-08
0.4773450114 	1.915076292 	0.0002034198427 	-1.106551065e-08
0.4776388886 	1.940699073 	0.0002162317205 	-1.179517838e-08
0.4779382892 	1.965390505 	0.0002294456224 	-1.255125474e-08
0.4782433171 	1.989228133 	0.0002430726459 	-1.333453476e-08
0.4785540779 	2.012281477 	0.0002571237419 	-1.414585419e-08
0.4788706795 	2.034612996 	0.0002716103465 	-1.498609209e-08
0.4791932316 	2.056278953 	0.0002865444323 	-1.585617327e-08
0.4795218461 	2.07733017 	0.0003019384918 	-1.67570707e-08
0.4798566368 	2.097812684 	0.0003178055509 	-1.768980823e-08
0.48019772 	2.117768303 	0.0003341591906 	-1.865546345e-08
0.4805452138 	2.137235096 	0.0003510135697 	-1.965517069e-08
0.4808992388 	2.156247813 	0.0003683834481 	-2.06901243e-08
0.4812599177 	2.174838245 	0.0003862842129 	-2.176158211e-08
0.4816273755 	2.193035547 	0.0004047319044 	-2.287086904e-08
0.4820017397 	2.210866508 	0.0004237432449 	-2.401938105e-08
0.48238314 	2.228355797 	0.0004433356682 	-2.520858918e-08
0.4827717088 	2.245526176 	0.0004635273507 	-2.644004386e-08
0.4831675807 	2.262398685 	0.0004843372439 	-2.771537927e-08
0.4835708931 	2.27899281 	0.0005057851079 	-2.903631791e-08
0.4839817856 	2.29532663 	0.0005278915464 	-3.040467515e-08
0.4844004009 	2.311416944 	0.0005506780426 	-3.182236374e-08
0.4848268841 	2.327279394 	0.0005741669958 	-3.329139828e-08
0.485261383 	2.342928563 	0.000598381759 	-3.48138993e-08
0.4857040484 	2.358378071 	0.0006233466762 	-3.639209719e-08
0.4861550336 	2.373640659 	0.0006490871208 	-3.802833548e-08
0.4866144951 	2.388728262 	0.0006756295324 	-3.972507349e-08
0.4870825921 	2.403652077 	0.0007030014536 	-4.14848881e-08
0.487559487 	2.418422621 	0.0007312315651 	-4.33104745e-08
0.4880453452 	2.43304979 	0.0007603497185 	-4.520464547e-08
0.4885403351 	2.447542901 	0.0007903869661 	-4.71703292e-08
0.4890446283 	2.461910739 	0.0008213755867 	-4.921056505e-08
0.4895583997 	2.476161592 	0.0008533491067 	-5.132849719e-08
0.4900818274 	2.490303286 	0.0008863423135 	-5.35273657e-08
0.4906150929 	2.504343212 	0.0009203912622 	-5.581049487e-08
0.4911583811 	2.518288352 	0.0009555332712 	-5.818127833e-08
0.4917118805 	2.532145294 	0.0009918069069 	-6.064316087e-08
0.4922757829 	2.545920259 	0.001029251953 	-6.319961625e-08
0.4928502838 	2.559619101 	0.001067909367 	-6.585412087e-08
0.4934355824 	2.573247327 	0.001107821213 	-6.861012206e-08
0.4940318817 	2.586810099 	0.00114903058 	-7.147100012e-08
0.4946393885 	2.600312238 	0.001191581475 	-7.444002262e-08
0.4952583133 	2.613758232 	0.001235518703 	-7.752028987e-08
0.4958888709 	2.627152234 	0.00128088772 	-8.071467097e-08
0.4965312797 	2.64049807 	0.001327734487 	-8.40257325e-08
0.4971857627 	2.65379924 	0.001376105306 	-8.745566524e-08
0.4978525466 	2.66705893 	0.001426046681 	-9.100622012e-08
0.4985318627 	2.68028002 	0.001477605182 	-9.467866902e-08
0.4992239466 	2.693465091 	0.001530827343 	-9.84738079e-08
0.4999290382 	2.706616437 	0.001585759579 	-1.023920102e-07
0.5006473819 	2.719736051 	0.001642448087 	-1.064333103e-07
0.501379227 	2.732825596 	0.001700938678 	-1.105974425e-07
0.502124827 	2.74588632 	0.001761276388 	-1.14883676e-07
0.5028844406 	2.758918892 	0.001823504617 	-1.192901881e-07
0.5036583311 	2.77192309 	0.001887663392 	-1.238126313e-07
0.5044467669 	2.784897301 	0.001953787111 	-1.284417418e-07
0.5052500214 	2.7978377 	0.002021901668 	-1.331602681e-07
0.506068373 	2.81237843 	0.0021010815 	-1.385542494e-07
0.507324668 	2.829975199 	0.002200808673 	-1.451239427e-07
0.5085949819 	2.848730077 	0.002311892915 	-1.520358071e-07
0.5098794711 	2.866944238 	0.002424662524 	-1.5848349e-07
0.5111782938 	2.884537494 	0.002538274208 	-1.642818097e-07
0.5124916099 	2.901403082 	0.002651546209 	-1.692093671e-07
0.5138195812 	2.91741945 	0.00276299853 	-1.729644915e-07
0.5151623712 	2.932476387 	0.00287118423 	-1.755713964e-07
0.5165201452 	2.946511167 	0.002975571487 	-1.750788776e-07
0.5178930705 	2.95955049 	0.003074563466 	-1.740846604e-07
0.5192813161 	2.971748495 	0.003169226659 	-1.770538131e-07
0.520685053 	2.98329703 	0.003263616662 	-1.814274897e-07
0.522104454 	2.994282231 	0.003356370474 	-1.845232261e-07
0.523539694 	3.004709077 	0.003446029657 	-1.863574337e-07
0.5249909497 	3.014572757 	0.003533391545 	-1.872899141e-07
0.5264583998 	3.023868394 	0.003617854137 	-1.873889803e-07
0.527942225 	3.032592675 	0.003699014001 	-1.868457141e-07
0.5294426081 	3.040744829 	0.003776521568 	-1.857298498e-07
0.5309597337 	3.048327044 	0.003850055774 	-1.840552978e-07
0.5324937889 	3.05534477 	0.003919327609 	-1.818311281e-07
0.5340449624 	3.061806882 	0.003984089691 	-1.790803767e-07
0.5356134452 	3.067725667 	0.004044142568 	-1.75840965e-07
0.5371994306 	3.073116658 	0.004099337248 	-1.721617195e-07
0.5388031139 	3.077998365 	0.004149579666 	-1.681101215e-07
0.5404246925 	3.082392051 	0.004194832648 	-1.63751182e-07
0.5420643661 	3.086322144 	0.004235108065 	-1.591595823e-07
0.5437223366 	3.089817828 	0.004270505585 	-1.545001254e-07
0.5453988083 	3.092913645 	0.004301260091 	-1.499527324e-07
0.5470939875 	3.095646591 	0.004327681441 	-1.455875999e-07
0.5488080831 	3.098052217 	0.004350076514 	-1.414176483e-07
0.5505413061 	3.100162936 	0.004368740726 	-1.374579964e-07
0.5522938699 	3.102007915 	0.004383956923 	-1.33713035e-07
0.5540659904 	3.103613288 	0.00439598812 	-1.301784568e-07
0.5558578859 	3.105002407 	0.004405077719 	-1.268483267e-07
0.5576697768 	3.106196087 	0.004411450119 	-1.237144099e-07
0.5595018865 	3.107212848 	0.004415311209 	-1.207667985e-07
0.5613544406 	3.108069137 	0.004416849056 	-1.179944869e-07
0.563227667 	3.108779534 	0.004416234763 	-1.153858631e-07
0.5651217966 	3.109356947 	0.00441362344 	-1.12929084e-07
0.5670370626 	3.10981278 	0.004409155237 	-1.106123947e-07
0.5689737009 	3.1101571 	0.004402956388 	-1.084243243e-07
0.5709319499 	3.110398772 	0.004395140351 	-1.063541212e-07
0.5729120508 	3.110545601 	0.004385807847 	-1.043896749e-07
0.5749142474 	3.110604439 	0.004375051568 	-1.025247623e-07
0.5769387863 	3.110581321 	0.00436295077 	-1.007481107e-07
0.5789859169 	3.110481506 	0.004349576308 	-9.904921994e-08
0.5810558911 	3.11030957 	0.004334994396 	-9.74227672e-08
0.583148964 	3.110069526 	0.00431925914 	-9.585962261e-08
0.5852653933 	3.109764862 	0.004302420282 	-9.435345315e-08
0.5874054395 	3.109398597 	0.004284521993 	-9.289715006e-08
0.5895693664 	3.108973337 	0.004265601535 	-9.148508322e-08
0.5917574402 	3.108491319 	0.004245691851 	-9.011199915e-08
0.5939699306 	3.107954449 	0.004224821302 	-8.877288323e-08
0.5962071099 	3.107364341 	0.004203014127 	-8.746317674e-08
0.5984692536 	3.106722341 	0.004180290825 	-8.617867907e-08
0.6007566404 	3.10602956 	0.004156668511 	-8.49155035e-08
0.6030695519 	3.105286894 	0.004132161212 	-8.367004373e-08
0.6054082729 	3.104495046 	0.004106780144 	-8.243894602e-08
0.6077730914 	3.103654542 	0.004080533956 	-8.121908345e-08
0.6101642987 	3.102765751 	0.004053428953 	-8.000753296e-08
0.6125821893 	3.101828896 	0.004025469295 	-7.880155518e-08
0.6150270608 	3.100844069 	0.003996657178 	-7.759857672e-08
0.6174992144 	3.099811238 	0.003966992997 	-7.639617489e-08
0.6199989545 	3.098730263 	0.003936475497 	-7.519206467e-08
0.622526589 	3.097600902 	0.003905101912 	-7.398408781e-08
0.625082429 	3.096422817 	0.003872868085 	-7.277020397e-08
0.6276667894 	3.095195584 	0.003839768591 	-7.154848383e-08
0.6302799884 	3.0939187 	0.003805796838 	-7.031710391e-08
0.6329223478 	3.092591586 	0.003770945176 	-6.907434328e-08
0.6355941931 	3.091213597 	0.003735204983 	-6.781858177e-08
0.6382958531 	3.089784022 	0.003698566762 	-6.654829978e-08
0.6410276607 	3.088302091 	0.00366102022 	-6.526207943e-08
0.6437899523 	3.086766981 	0.00362255435 	-6.395860702e-08
0.646583068 	3.085177819 	0.003583157511 	-6.263667662e-08
0.6494073518 	3.083533683 	0.003542817498 	-6.129519458e-08
0.6522631514 	3.081833608 	0.003501521614 	-5.993318487e-08
0.6551508186 	3.080076591 	0.003459256736 	-5.854979506e-08
0.658070709 	3.078261592 	0.003416009383 	-5.71443026e-08
0.6610231822 	3.076387535 	0.003371765774 	-5.571612138e-08
0.6640086017 	3.074453315 	0.003326511887 	-5.426480818e-08
0.6670273351 	3.072457801 	0.003280233515 	-5.279006878e-08
0.6700797543 	3.070399832 	0.003232916311 	-5.129176354e-08
0.6731662352 	3.068278228 	0.003184545839 	-4.976991207e-08
0.6762871577 	3.066091787 	0.003135107612 	-4.822469677e-08
0.6794429063 	3.06383929 	0.003084587124 	-4.665646486e-08
0.6826338695 	3.061519499 	0.003032969883 	-4.50657287e-08
0.6858604404 	3.059131167 	0.002980241427 	-4.345316397e-08
0.6891230163 	3.056673033 	0.002926387341 	-4.181960543e-08
0.6924219988 	3.054143827 	0.002871393263 	-4.016603994e-08
0.6957577944 	3.051542273 	0.002815244879 	-3.849359646e-08
0.6991308138 	3.048867088 	0.002757927917 	-3.680353255e-08
0.7025414724 	3.04611699 	0.002699428127 	-3.509721729e-08
0.7059901901 	3.043290692 	0.002639731253 	-3.337611014e-08
0.7094773917 	3.040386913 	0.002578823007 	-3.16417356e-08
0.7130035066 	3.037404375 	0.00251668903 	-2.989565341e-08
0.7165689691 	3.034341806 	0.002453314849 	-2.81394242e-08
0.7201742182 	3.031197946 	0.002388685845 	-2.637457052e-08
0.7238196978 	3.027971547 	0.002322787212 	-2.460253342e-08
0.727505857 	3.024661376 	0.002255603901 	-2.282462499e-08
0.7312331497 	3.021266222 	0.002187120579 	-2.104197664e-08
0.7350020349 	3.017794206 	0.002117507928 	-1.926020941e-08
0.7387709215 	3.014274775 	0.002047355666 	-1.749479465e-08
0.7424982157 	3.010738939 	0.001977270646 	-1.576029656e-08
0.7461843763 	3.007197894 	0.001907457216 	-1.406026649e-08
0.7498298574 	3.003653458 	0.001837933092 	-1.239325283e-08
0.7534351078 	3.000107356 	0.001768715156 	-1.075755061e-08
0.7570005716 	2.996561214 	0.001699819619 	-9.151243356e-09
0.7605266877 	2.993016557 	0.001631262171 	-7.572252565e-09
0.7640138905 	2.989474814 	0.001563058131 	-6.018394903e-09
0.7674626093 	2.98593731 	0.001495222588 	-4.487450663e-09
0.770873269 	2.982405267 	0.001427770522 	-2.977249727e-09
0.7742462894 	2.978879803 	0.001360716899 	-1.48578397e-09
0.777582086 	2.975361929 	0.001294076754 	-1.135667449e-11
0.7808810695 	2.971852548 	0.00122786524 	1.447222313e-09
0.7841436462 	2.968352453 	0.001162097648 	2.890397941e-09
0.787370218 	2.964862326 	0.001096789415 	4.317604521e-09
0.7905611821 	2.961382741 	0.001031956178 	5.727056581e-09
0.7937169314 	2.957914161 	0.0009676133539 	7.11569406e-09
0.7968378547 	2.954456944 	0.0009037738957 	8.480533034e-09
0.7999243362 	2.951011315 	0.0008404356275 	9.819089791e-09
0.8029767561 	2.947577283 	0.000777678384 	1.111370412e-08
0.8059954902 	2.944154033 	0.000715473771 	1.243654565e-08
0.8089809102 	2.940735189 	0.0006537302158 	1.38295432e-08
0.8119333839 	2.937307258 	0.0005925707935 	1.523945489e-08
0.8148532749 	2.933858058 	0.0005320102378 	1.664169569e-08
0.8177409426 	2.930381501 	0.0004720400386 	1.797524187e-08
0.8205967427 	2.926875613 	0.0004127813782 	1.92139071e-08
0.8234210268 	2.923340891 	0.0003543194062 	2.038605806e-08
0.8262141429 	2.919779102 	0.000296724961 	2.151339283e-08
0.8289764348 	2.916192434 	0.0002400513282 	2.261385356e-08
0.8317082427 	2.912582989 	0.0001843333125 	2.370032129e-08
0.8344099031 	2.908952531 	0.0001295887889 	2.478155017e-08
0.8370817486 	2.905302428 	7.582203661e-05 	2.586347228e-08
0.8397241082 	2.901633679 	2.302761194e-05 	2.695026195e-08
0.8423373074 	2.897947004 	-2.880586196e-05 	2.804496631e-08
0.844921668 	2.894242918 	-7.969236886e-05 	2.914986245e-08
0.8474775082 	2.890521795 	-0.0001296458377 	3.026668108e-08
0.8500051427 	2.886783889 	-0.000178678203 	3.13967676e-08
0.8525048829 	2.883029333 	-0.0002267981661 	3.254120304e-08
0.8549770366 	2.879258109 	-0.0002740105837 	3.370088057e-08
0.8574219081 	2.875470011 	-0.0003203163753 	3.487654199e-08
0.8598397987 	2.871664609 	-0.0003657128299 	3.606878524e-08
0.862231006 	2.867841221 	-0.0004101941954 	3.727805973e-08
0.8645958245 	2.863998905 	-0.0004537524363 	3.850466667e-08
0.8669345455 	2.860136473 	-0.0004963780548 	3.97487783e-08
0.8692474569 	2.856252523 	-0.000538060884 	4.101048373e-08
0.8715348435 	2.852345486 	-0.0005787907689 	4.2289862e-08
0.8737969871 	2.848413685 	-0.0006185580689 	4.358707717e-08
0.8760341663 	2.844455396 	-0.0006573539302 	4.490248464e-08
0.8782466565 	2.840468898 	-0.0006951702962 	4.623673537e-08
0.8804347301 	2.836452512 	-0.0007319996453 	4.759086348e-08
0.8825986568 	2.832404611 	-0.0007678344671 	4.896634485e-08
0.8847387028 	2.828323612 	-0.0008026665143 	5.036511728e-08
0.8868551318 	2.824207928 	-0.0008364858833 	5.178955844e-08
0.8889482045 	2.820055898 	-0.0008692799972 	5.324242361e-08
0.8910181784 	2.81586569 	-0.0009010325686 	5.472675113e-08
0.8930653087 	2.811635181 	-0.0009317226251 	5.624574854e-08
0.8950898473 	2.807361829 	-0.0009613236672 	5.780267536e-08
0.8970920436 	2.803042544 	-0.0009898030152 	5.940073935e-08
0.8990721441 	2.798673561 	-0.001017121377 	6.104301986e-08
0.9010303927 	2.794250327 	-0.001043232645 	6.273242499e-08
0.9029670306 	2.789767414 	-0.001068083916 	6.447167937e-08
0.9048822962 	2.78521845 	-0.001091615692 	6.626332812e-08
0.9067764254 	2.780596083 	-0.001113762238 	6.810973381e-08
0.9086496514 	2.775891958 	-0.00113445204 	7.001304058e-08
0.910502205 	2.771096735 	-0.001153608351 	7.197508623e-08
0.9123343142 	2.766200113 	-0.001171149793 	7.399725654e-08
0.9141462048 	2.761190878 	-0.001186991012 	7.608029166e-08
0.9159380997 	2.756056962 	-0.001201043404 	7.822405994e-08
0.9177102197 	2.750785514 	-0.001213215932 	8.042730143e-08
0.9194627831 	2.745362977 	-0.001223416067 	8.268730551e-08
0.9211960055 	2.739775172 	-0.001231550903 	8.499948603e-08
0.9229101006 	2.734007392 	-0.001237528511 	8.735683295e-08
0.9246052793 	2.728044495 	-0.001241259524 	8.974977321e-08
0.9262817504 	2.721871021 	-0.00124265928 	9.216044393e-08
0.9279397204 	2.715471305 	-0.001241650525 	9.457364332e-08
0.9295793934 	2.708829588 	-0.001238165117 	9.696609289e-08
0.9312009714 	2.701930165 	-0.00123214686 	9.930679596e-08
0.9328046541 	2.694757562 	-0.001223554625 	1.015686998e-07
0.9343906389 	2.687296706 	-0.0012123648 	1.037182942e-07
0.9359591211 	2.679533087 	-0.001198574283 	1.057210588e-07
0.937510294 	2.671452929 	-0.001182202578 	1.075415376e-07
0.9390443485 	2.66304334 	-0.001163293293 	1.091443936e-07
0.9405614735 	2.654292444 	-0.001141914942 	1.104956166e-07
0.942061856 	2.645189481 	-0.001118160969 	1.115637995e-07
0.9435456805 	2.635724864 	-0.001092148986 	1.123213046e-07
0.9450131299 	2.625890194 	-0.001064019243 	1.127452406e-07
0.946464385 	2.615678228 	-0.001033932398 	1.128183546e-07
0.9478996243 	2.605082797 	-0.001002066776 	1.12529991e-07
0.9493190246 	2.594098676 	-0.0009686150753 	1.118762185e-07
0.9507227608 	2.582721412 	-0.0009337807536 	1.108587824e-07
0.9521110058 	2.570947132 	-0.0008977745496 	1.094844921e-07
0.9534839303 	2.558772323 	-0.0008608111619 	1.077650859e-07
0.9548417036 	2.546193607 	-0.0008231061907 	1.057166801e-07
0.9561844929 	2.533207507 	-0.0007848734015 	1.033589956e-07
0.9575124634 	2.51981023 	-0.0007463223678 	1.007145499e-07
0.9588257788 	2.50599746 	-0.0007076565123 	9.780792425e-08
0.9601246008 	2.491764208 	-0.000669071513 	9.46651354e-08
0.9614090893 	2.477104707 	-0.0006307547783 	9.131312988e-08
0.9626794024 	2.462012429 	-0.000592883944 	8.777912582e-08
0.9639356968 	2.447812503 	-0.0005587515108 	8.440980727e-08
0.9647540487 	2.436031349 	-0.0005315634854 	8.159999806e-08
0.9655573034 	2.425499768 	-0.000508125879 	7.908936461e-08
0.9663457395 	2.414892543 	-0.0004853511806 	7.657022044e-08
0.9671196303 	2.404210807 	-0.0004632561138 	7.405119078e-08
0.9678792442 	2.393455577 	-0.000441853445 	7.154017223e-08
0.9686248445 	2.382627697 	-0.0004211519791 	6.904443967e-08
0.9693566897 	2.37172778 	-0.0004011567199 	6.657065194e-08
0.9700750337 	2.360756179 	-0.0003818692603 	6.412486057e-08
0.9707801255 	2.349712954 	-0.0003632881081 	6.171252084e-08
0.9714722095 	2.338597855 	-0.0003454089817 	5.933850846e-08
0.9721515258 	2.32741031 	-0.000328225089 	5.70071397e-08
0.9728183099 	2.316149411 	-0.0003117273953 	5.472219421e-08
0.9734727929 	2.304813912 	-0.0002959048796 	5.248693985e-08
0.9741152019 	2.29340222 	-0.0002807447786 	5.030415909e-08
0.9747457596 	2.281912396 	-0.0002662328209 	4.817617663e-08
0.9753646845 	2.27034215 	-0.000252353447 	4.610488763e-08
0.9759721914 	2.258688839 	-0.0002390900187 	4.40917864e-08
0.9765684907 	2.246949467 	-0.0002264250139 	4.213799515e-08
0.9771537895 	2.235120675 	-0.0002143402089 	4.024429252e-08
0.9777282904 	2.223198745 	-0.0002028168467 	3.841114173e-08
0.9782921928 	2.211179588 	-0.0001918357923 	3.663871805e-08
0.9788456922 	2.199058738 	-0.000181377674 	3.492693552e-08
0.9793889805 	2.186831344 	-0.000171423012 	3.327547276e-08
0.979922246 	2.174492152 	-0.0001619523344 	3.16837977e-08
0.9804456737 	2.162035496 	-0.0001529462803 	3.015119129e-08
0.9809594451 	2.149455277 	-0.0001443856915 	2.867676999e-08
0.9814637383 	2.13674494 	-0.0001362516929 	2.725950707e-08
0.9819587281 	2.12389745 	-0.0001285257623 	2.589825268e-08
0.9824445862 	2.110905263 	-0.0001211897898 	2.45917527e-08
0.9829214811 	2.09776029 	-0.0001142261278 	2.333866626e-08
0.9833895781 	2.084453864 	-0.0001076176324 	2.213758204e-08
0.9838490396 	2.070976691 	-0.0001013476965 	2.098703328e-08
0.9843000247 	2.057318804 	-9.540027496e-05 	1.988551157e-08
0.98474269 	2.043469506 	-8.975990361e-05 	1.883147939e-08
0.9851771888 	2.029417314 	-8.441171138e-05 	1.782338149e-08
0.9856036719 	2.015149883 	-7.934142711e-05 	1.685965496e-08
0.9860222871 	2.000653934 	-7.453538112e-05 	1.593873841e-08
0.9864331796 	1.985915164 	-6.998050252e-05 	1.505907987e-08
0.9868364919 	1.970918152 	-6.566431256e-05 	1.421914369e-08
0.9872323637 	1.955646248 	-6.157491467e-05 	1.341741654e-08
0.9876209323 	1.940081451 	-5.770098152e-05 	1.265241245e-08
0.9880023326 	1.924204275 	-5.403173982e-05 	1.192267705e-08
0.9883766967 	1.907993587 	-5.055695307e-05 	1.122679093e-08
0.9887441544 	1.89142644 	-4.726690272e-05 	1.056337237e-08
0.9891048331 	1.874477864 	-4.415236804e-05 	9.931079487e-09
0.9894588579 	1.85712065 	-4.120460494e-05 	9.328611694e-09
0.9898063516 	1.839325084 	-3.841532419e-05 	8.754710768e-09
0.9901474347 	1.821058659 	-3.577666896e-05 	8.208161444e-09
0.9904822253 	1.802285733 	-3.328119196e-05 	7.687791725e-09
0.9908108397 	1.782967145 	-3.092183234e-05 	7.19247291e-09
0.9911333916 	1.763059767 	-2.869189187e-05 	6.721119391e-09
0.9914499931 	1.742515993 	-2.658500994e-05 	6.272688355e-09
0.9917607538 	1.72128315 	-2.45951438e-05 	5.846179424e-09
0.9920657815 	1.699302815 	-2.271657986e-05 	5.440634535e-09
0.9923651819 	1.676510048 	-2.094387447e-05 	5.055137816e-09
0.992659059 	1.652832527 	-1.92711708e-05 	4.688814359e-09
0.9929475145 	1.628189638 	-1.769173388e-05 	4.34083038e-09
0.9932306485 	1.602491641 	-1.620877875e-05 	4.010407461e-09
0.9935085592 	1.575639245 	-1.486442344e-05 	3.696842735e-09
0.9937813429 	1.549978171 	-1.370455722e-05 	3.424044484e-09
0.9939569055 	1.528279186 	-1.274712897e-05 	3.211914928e-09
0.9941324681 	1.508287263 	-1.192845666e-05 	3.030073255e-09
0.9943080307 	1.487337687 	-1.115921725e-05 	2.852490313e-09
0.9944835934 	1.465345742 	-1.041589274e-05 	2.679143107e-09
0.994659156 	1.44221754 	-9.69389079e-06 	2.510035205e-09
0.9948347186 	1.417848253 	-8.994009378e-06 	2.345179131e-09
0.9950102812 	1.392120401 	-8.316385568e-06 	2.184592049e-09
0.9951858439 	1.364902002 	-7.660807173e-06 	2.02829832e-09
0.9953614065 	1.336044379 	-7.027183751e-06 	1.876331026e-09
0.9955369691 	1.305380091 	-6.415508122e-06 	1.728733343e-09
0.9957125317 	1.272721256 	-5.825607897e-06 	1.585565725e-09
0.9958880943 	1.237857405 	-5.256957161e-06 	1.446904544e-09
0.996063657 	1.20055328 	-4.717607822e-06 	1.312757228e-09
0.9962392196 	1.160547469 	-4.240083962e-06 	1.183128493e-09
0.9964147822 	1.117552136 	-3.829927616e-06 	1.058663938e-09
0.9965903448 	1.071254401 	-2.606097093e-06 	9.477295928e-10
0.9967659075 	1.021315922 	-1.125335329e-06 	8.241595686e-10
0.9969414701 	0.9673291502 	-2.283430302e-06 	6.974395063e-10
0.9971170327 	0.9087660857 	-4.424983952e-06 	6.139968483e-10
0.9972925953 	0.8450901071 	-4.704755939e-06 	5.252972621e-10
0.997468158 	0.7759633185 	-4.936400121e-06 	4.23986555e-10
0.9976437206 	0.7013588455 	-4.913443635e-06 	3.419296973e-10
0.9978192832 	0.621646549 	-2.688369856e-06 	2.660932373e-10
0.9979948458 	0.5376498221 	7.862804856e-07 	1.961822421e-10
0.9981704085 	0.4505304908 	2.987174417e-06 	1.347091584e-10
0.9983459711 	0.3614983645 	2.742876006e-06 	8.499977788e-11
0.9985215337 	0.2715071798 	1.325829858e-06 	4.766800289e-11
0.9986970963 	0.1811238358 	3.045217037e-07 	2.141466436e-11
0.998872659 	0.09059605843 	-5.049879367e-09 	5.837900276e-12
0.9990482216 	0.03815191706 	-1.955084862e-08 	6.665943695e-13
0.9990482216 	0.03815191706 	-1.955084862e-08 	6.665943695e-13
