0.4709558481 	2.935649722e-06 	-2.17686794e-08 	3.093327484e-13 	2.9298396e-06 	-2.979927294e-11 	5.585088584e-09
0.4709558481 	2.935649722e-06 	-2.17686794e-08 	3.093327484e-13 	2.9298396e-06 	-2.979927294e-11 	5.585088584e-09
0.4711314108 	3.298511522e-05 	-9.530604545e-07 	1.352370316e-11 	3.288264504e-05 	-3.343499957e-10 	6.26834607e-08
0.4713069734 	0.0001843984343 	-1.229143932e-05 	1.731499431e-10 	0.0001828331312 	-1.855108026e-09 	3.485307639e-07
0.471482536 	0.0006176939361 	-7.406556222e-05 	1.022049409e-09 	0.0006033269811 	-6.075995587e-09 	1.150108912e-06
0.4716580986 	0.001536538736 	-0.0002792557573 	3.696466706e-09 	0.001457936835 	-1.44218574e-08 	2.77923282e-06
0.4718336613 	0.00313984033 	-0.0007553489055 	9.356963947e-09 	0.002859265104 	-2.737564808e-08 	5.450553979e-06
0.4720092239 	0.005524113736 	-0.001588545182 	1.801235406e-08 	0.004811103752 	-4.389620084e-08 	9.171300928e-06
0.4721847865 	0.008588031851 	-0.002753846899 	2.817741384e-08 	0.007194919254 	-6.178238822e-08 	1.371551582e-05
0.4723603491 	0.01205816603 	-0.004127739095 	3.794859182e-08 	0.009817899972 	-7.877786042e-08 	1.871564609e-05
0.4725359118 	0.01562461562 	-0.005562808161 	4.615287634e-08 	0.01248608749 	-9.34761578e-08 	2.380195308e-05
0.4727114744 	0.01905593297 	-0.006950058023 	5.261859511e-08 	0.01505297427 	-1.054008227e-07 	2.869515272e-05
0.472887037 	0.02220286911 	-0.008182554959 	5.59519658e-08 	0.01745173611 	-1.153831706e-07 	3.326785948e-05
0.4730625996 	0.02502885187 	-0.009237314595 	5.809705424e-08 	0.01965809635 	-1.23610769e-07 	3.747379532e-05
0.4732381623 	0.02757057293 	-0.01017518121 	6.103702145e-08 	0.0216539108 	-1.298605188e-07 	4.127837237e-05
0.4734137249 	0.02984604962 	-0.01101500854 	6.331510135e-08 	0.02344107136 	-1.347008911e-07 	4.468519713e-05
0.4735892875 	0.03187241338 	-0.01176274102 	6.505226764e-08 	0.02503222235 	-1.383891825e-07 	4.771837314e-05
0.4737648501 	0.03367182382 	-0.01242664405 	6.637164356e-08 	0.02644494583 	-1.411871289e-07 	5.041141675e-05
0.4739404128 	0.03526801737 	-0.01301555047 	6.735705751e-08 	0.02769801433 	-1.432718782e-07 	5.280011358e-05
0.4741159754 	0.03668419944 	-0.01353805227 	6.807812743e-08 	0.02880965254 	-1.447890205e-07 	5.491920497e-05
0.474291538 	0.03794193981 	-0.01400213245 	6.857970839e-08 	0.02979679745 	-1.458526866e-07 	5.680097753e-05
0.4744671006 	0.03906069419 	-0.01441476566 	6.890838039e-08 	0.03067473303 	-1.465513932e-07 	5.847456676e-05
0.4746426632 	0.04005768766 	-0.01478231001 	6.910376405e-08 	0.0314569923 	-1.469531598e-07 	5.996577034e-05
0.4748182259 	0.04094798098 	-0.01511051809 	6.918389206e-08 	0.03215540744 	-1.471106085e-07 	6.129714371e-05
0.4749937885 	0.04174464786 	-0.01540418836 	6.916850263e-08 	0.03278024966 	-1.470650792e-07 	6.248826665e-05
0.4751693511 	0.0424590051 	-0.01566748437 	6.907304396e-08 	0.03334041005 	-1.468491272e-07 	6.355608804e-05
0.4753449137 	0.04310083637 	-0.01590401063 	6.890971737e-08 	0.0338435756 	-1.464885676e-07 	6.451526142e-05
0.4755204764 	0.04367860183 	-0.0161168868 	6.868825954e-08 	0.03429639404 	-1.460040543e-07 	6.537845924e-05
0.475696039 	0.04419962751 	-0.0163088139 	6.841651915e-08 	0.03470461833 	-1.454122668e-07 	6.615664819e-05
0.4758716016 	0.04467027173 	-0.01648212981 	6.810087877e-08 	0.03507322661 	-1.447267918e-07 	6.685931801e-05
0.4760471642 	0.0450960698 	-0.01663888789 	6.774661598e-08 	0.03540659078 	-1.43958887e-07 	6.749480278e-05
0.4762227269 	0.04553265 	-0.0167995961 	6.730195409e-08 	0.03574832259 	-1.429964337e-07 	6.814623859e-05
0.4764955107 	0.04601409426 	-0.01697674306 	6.668923503e-08 	0.03612495942 	-1.416718586e-07 	6.886421308e-05
0.4767734216 	0.04647719937 	-0.01714700585 	6.594057246e-08 	0.03648689267 	-1.400550358e-07 	6.955415844e-05
0.4770565557 	0.04688132633 	-0.0172954689 	6.511346069e-08 	0.03680241354 	-1.382702216e-07 	7.015562891e-05
0.4773450114 	0.04723305043 	-0.01742457899 	6.421120266e-08 	0.03707673002 	-1.363244691e-07 	7.067855237e-05
0.4776388886 	0.04753804304 	-0.01753641711 	6.323593501e-08 	0.037314271 	-1.3422234e-07 	7.11313715e-05
0.4779382892 	0.04780117697 	-0.01763277962 	6.218890719e-08 	0.0375188595 	-1.319665017e-07 	7.152137403e-05
0.4782433171 	0.04802663941 	-0.01771521276 	6.107067048e-08 	0.0376937862 	-1.295581339e-07 	7.185483295e-05
0.4785540779 	0.04821803541 	-0.01778504756 	5.988122594e-08 	0.03784188377 	-1.26997245e-07 	7.213714808e-05
0.4788706795 	0.04837847676 	-0.01784343276 	5.862014335e-08 	0.03796559687 	-1.242829266e-07 	7.237297963e-05
0.4791932316 	0.04851065687 	-0.01789136264 	5.728664845e-08 	0.03806704143 	-1.214135394e-07 	7.256636116e-05
0.4795218461 	0.04861691307 	-0.01792970006 	5.587968517e-08 	0.0381480537 	-1.183868456e-07 	7.272079306e-05
0.4798566368 	0.04869927855 	-0.01795919561 	5.439795931e-08 	0.03821023097 	-1.152001026e-07 	7.283932022e-05
0.48019772 	0.04875952561 	-0.01798050357 	5.283996882e-08 	0.03825496557 	-1.118501267e-07 	7.292459679e-05
0.4805452138 	0.04879920175 	-0.01799419522 	5.120402424e-08 	0.03828347321 	-1.083333372e-07 	7.297894028e-05
0.4808992388 	0.04881965997 	-0.01800077006 	4.948826227e-08 	0.0382968168 	-1.046457848e-07 	7.300437687e-05
0.4812599177 	0.0488220842 	-0.01800066518 	4.76906543e-08 	0.03829592642 	-1.0078317e-07 	7.300267956e-05
0.4816273755 	0.04880751086 	-0.01799426319 	4.580901144e-08 	0.03828161622 	-9.674085379e-08 	7.297540033e-05
0.4820017397 	0.04877684697 	-0.01798189894 	4.384098692e-08 	0.0382545987 	-9.251386273e-08 	7.292389745e-05
0.48238314 	0.04873088569 	-0.01796386526 	4.178407679e-08 	0.03821549692 	-8.809689038e-08 	7.284935857e-05
0.4827717088 	0.04867031947 	-0.01794041779 	3.963561905e-08 	0.03816485477 	-8.34842957e-08 	7.275282057e-05
0.4831675807 	0.04859575135 	-0.01791177915 	3.739279181e-08 	0.03810314594 	-7.867009914e-08 	7.263518638e-05
0.4835708931 	0.04850770461 	-0.01787814255 	3.505261066e-08 	0.03803078144 	-7.364797705e-08 	7.249723954e-05
0.4839817856 	0.04840663112 	-0.01783967482 	3.261192514e-08 	0.03794811621 	-6.841125451e-08 	7.233965663e-05
0.4844004009 	0.04829291851 	-0.0177965191 	3.006741479e-08 	0.03785545472 	-6.29528969e-08 	7.216301808e-05
0.4848268841 	0.04816689633 	-0.01774879711 	2.74155846e-08 	0.03775305589 	-5.726550042e-08 	7.196781745e-05
0.485261383 	0.0480288415 	-0.01769661113 	2.465276008e-08 	0.03764113732 	-5.134128188e-08 	7.175446954e-05
0.4857040484 	0.04787898292 	-0.01764004577 	2.177508205e-08 	0.03751987895 	-4.517206772e-08 	7.152331738e-05
0.4861550336 	0.04771750557 	-0.01757916945 	1.877850117e-08 	0.0373894263 	-3.874928264e-08 	7.127463839e-05
0.4866144951 	0.04754455405 	-0.0175140357 	1.565877238e-08 	0.03724989329 	-3.20639381e-08 	7.100864969e-05
0.4870825921 	0.04736023565 	-0.01744468436 	1.241144956e-08 	0.03710136465 	-2.510662119e-08 	7.072551282e-05
0.487559487 	0.04716462312 	-0.01737114254 	9.031880394e-09 	0.03694389811 	-1.786748413e-08 	7.042533783e-05
0.4880453452 	0.04695775701 	-0.01729342555 	5.515201734e-09 	0.03677752629 	-1.033623476e-08 	7.010818689e-05
0.4885403351 	0.0467396478 	-0.01721153764 	1.85633578e-09 	0.03660225836 	-2.502129039e-09 	6.977407751e-05
0.4890446283 	0.04651027773 	-0.01712547276 	-1.95001254e-09 	0.03641808158 	5.64603403e-09 	6.942298538e-05
0.4895583997 	0.04626960247 	-0.0170352151 	-5.909356652e-09 	0.03622496256 	1.411991399e-08 	6.905484685e-05
0.4900818274 	0.04601755258 	-0.01694073971 	-1.002742747e-08 	0.03602284848 	2.293162616e-08 	6.866956123e-05
0.4906150929 	0.04575403481 	-0.01684201297 	-1.431016991e-08 	0.03581166814 	3.20937332e-08 	6.826699282e-05
0.4911583811 	0.04547893335 	-0.01673899304 	-1.876373634e-08 	0.03559133297 	4.161922987e-08 	6.784697274e-05
0.4917118805 	0.04519211085 	-0.01663163028 	-2.339447649e-08 	0.03536173789 	5.152151997e-08 	6.74093007e-05
0.4922757829 	0.04489340951 	-0.01651986765 	-2.82089234e-08 	0.03512276216 	6.181438447e-08 	6.695374654e-05
0.4928502838 	0.04458265198 	-0.01640364107 	-3.321377556e-08 	0.03487427017 	7.251194112e-08 	6.648005174e-05
0.4934355824 	0.04425964229 	-0.01628287977 	-3.841587575e-08 	0.03461611218 	8.362859671e-08 	6.598793087e-05
0.4940318817 	0.0439241667 	-0.0161575066 	-4.382218805e-08 	0.03434812507 	9.517899518e-08 	6.547707294e-05
0.4946393885 	0.04357599459 	-0.0160274384 	-4.943977535e-08 	0.03407013298 	1.071779671e-07 	6.494714276e-05
0.4952583133 	0.04321487921 	-0.01589258626 	-5.527578148e-08 	0.03378194804 	1.196404895e-07 	6.439778216e-05
0.4958888709 	0.04284055853 	-0.01575285586 	-6.133742268e-08 	0.03348337098 	1.325816668e-07 	6.382861131e-05
0.4965312797 	0.042452756 	-0.01560814775 	-6.763199455e-08 	0.03317419177 	1.460167467e-07 	6.323922981e-05
0.4971857627 	0.04205118122 	-0.0154583576 	-7.416690029e-08 	0.03285419016 	1.599611829e-07 	6.26292178e-05
0.4978525466 	0.04163553062 	-0.01530337642 	-8.094970548e-08 	0.03252313617 	1.744307551e-07 	6.199813687e-05
0.4985318627 	0.04120548795 	-0.01514309079 	-8.798822163e-08 	0.03218079049 	1.894417493e-07 	6.134553086e-05
0.4992239466 	0.04076072461 	-0.01497738292 	-9.52906163e-08 	0.03182690475 	2.05011189e-07 	6.067092628e-05
0.4999290382 	0.04030089972 	-0.01480613074 	-1.028655401e-07 	0.03146122158 	2.211570972e-07 	5.997383253e-05
0.5006473819 	0.03982565983 	-0.01462920778 	-1.107222502e-07 	0.03108347449 	2.378987423e-07 	5.925374158e-05
0.501379227 	0.03933463821 	-0.01444648298 	-1.188706892e-07 	0.03069338742 	2.552567939e-07 	5.851012721e-05
0.502124827 	0.03882745349 	-0.01425782033 	-1.273214416e-07 	0.03029067412 	2.73253238e-07 	5.774244373e-05
0.5028844406 	0.03830370782 	-0.01406307848 	-1.360854202e-07 	0.02987503735 	2.919107716e-07 	5.695012452e-05
0.5036583311 	0.03776298462 	-0.01386210987 	-1.451730423e-07 	0.0294461673 	3.112511954e-07 	5.613257901e-05
0.5044467669 	0.03720484658 	-0.01365475992 	-1.545925126e-07 	0.02900374012 	3.312920032e-07 	5.528918985e-05
0.5052500214 	0.03662883567 	-0.01344086958 	-1.643464202e-07 	0.02854742363 	3.520394438e-07 	5.441932378e-05
0.506068373 	0.03595752924 	-0.01319173452 	-1.757283149e-07 	0.02801600223 	3.762461254e-07 	5.34062869e-05
0.507324668 	0.03510812926 	-0.0128766986 	-1.900706167e-07 	0.02734413049 	4.067419315e-07 	5.212551261e-05
0.5085949819 	0.03415505765 	-0.01252344815 	-2.059556393e-07 	0.02659090545 	4.405080353e-07 	5.068965634e-05
0.5098794711 	0.03317684733 	-0.01216116444 	-2.217864193e-07 	0.02581858046 	4.741473419e-07 	4.921739027e-05
0.5111782938 	0.03217591602 	-0.01179077844 	-2.370951964e-07 	0.02502914524 	5.066583253e-07 	4.771250732e-05
0.5124916099 	0.0311564534 	-0.01141386651 	-2.510735131e-07 	0.02422595114 	5.363131331e-07 	4.618139612e-05
0.5138195812 	0.03012592544 	-0.01103320359 	-2.623627339e-07 	0.0234148812 	5.602269994e-07 	4.46352714e-05
0.5151623712 	0.02909611738 	-0.01065314776 	-2.695692244e-07 	0.02260516451 	5.754727341e-07 	4.309172633e-05
0.5165201452 	0.02808140719 	-0.01027899629 	-2.7218798e-07 	0.02180801424 	5.810479023e-07 	4.157213636e-05
0.5178930705 	0.02709560303 	-0.00991568597 	-2.707583559e-07 	0.02103389011 	5.781615282e-07 	4.009644062e-05
0.5192813161 	0.02614984207 	-0.00956753929 	-2.652393314e-07 	0.0202919706 	5.667267317e-07 	3.868213583e-05
0.520685053 	0.02525084489 	-0.009237329902 	-2.57043946e-07 	0.01958824063 	5.494484035e-07 	3.734063091e-05
0.522104454 	0.02438042391 	-0.008893909548 	-2.998365185e-07 	0.01893025107 	5.193055381e-07 	3.608631994e-05
0.523539694 	0.02352236946 	-0.008521059528 	-3.308807296e-07 	0.01831506833 	4.98737804e-07 	3.491361066e-05
0.5249909497 	0.02269022331 	-0.008152837593 	-3.150213615e-07 	0.01772792229 	4.928614346e-07 	3.379434711e-05
0.5264583998 	0.02188895307 	-0.007798415017 	-3.179642569e-07 	0.01716593033 	4.800347318e-07 	3.272303424e-05
0.527942225 	0.02111396966 	-0.007447693484 	-3.229448556e-07 	0.01663270029 	4.645851654e-07 	3.170654958e-05
0.5294426081 	0.02036592513 	-0.007100273723 	-3.270218077e-07 	0.0161297899 	4.456180942e-07 	3.07478626e-05
0.5309597337 	0.01964625383 	-0.006756941514 	-3.301402612e-07 	0.01565834416 	4.244912244e-07 	2.984915598e-05
0.5324937889 	0.01895660895 	-0.006418503633 	-3.319723123e-07 	0.0152188828 	4.01319637e-07 	2.901142049e-05
0.5340449624 	0.01829871715 	-0.00608580475 	-3.324284701e-07 	0.0148117967 	3.763187827e-07 	2.823540124e-05
0.5356134452 	0.01767428231 	-0.005759632642 	-3.314970793e-07 	0.01443727956 	3.497574577e-07 	2.752146748e-05
0.5371994306 	0.01708491323 	-0.005440700733 	-3.292177814e-07 	0.01409529298 	3.21938159e-07 	2.686954601e-05
0.5388031139 	0.01653204296 	-0.005129633833 	-3.256669256e-07 	0.01378555344 	2.931828011e-07 	2.627909634e-05
0.5404246925 	0.01601685588 	-0.004826959681 	-3.209439223e-07 	0.01350753458 	2.638171582e-07 	2.574911513e-05
0.5420643661 	0.01554024046 	-0.004533113186 	-3.151518147e-07 	0.01326048443 	2.341561594e-07 	2.527816888e-05
0.5437223366 	0.01510277548 	-0.004248450871 	-3.08372559e-07 	0.01304346359 	2.044695682e-07 	2.486446685e-05
0.5453988083 	0.01470479595 	-0.003973350595 	-3.004747963e-07 	0.01285540591 	1.749680263e-07 	2.450597663e-05
0.5470939875 	0.01434650446 	-0.003708240105 	-2.916984738e-07 	0.01269527272 	1.455514235e-07 	2.420071827e-05
0.5488080831 	0.01402758224 	-0.003452734668 	-2.834161484e-07 	0.01256230959 	1.160551906e-07 	2.39472536e-05
0.5505413061 	0.01374678052 	-0.003205593037 	-2.760129941e-07 	0.01245552699 	8.736152456e-08 	2.374369627e-05
0.5522938699 	0.01350223081 	-0.002966171344 	-2.684812007e-07 	0.01237290226 	6.078414294e-08 	2.358619057e-05
0.5540659904 	0.01329168211 	-0.002734365876 	-2.607551349e-07 	0.01231180264 	3.671770099e-08 	2.346971772e-05
0.5558578859 	0.01311261073 	-0.002509817845 	-2.532499571e-07 	0.01226969907 	1.502485696e-08 	2.33894566e-05
0.5576697768 	0.01296247464 	-0.002292018978 	-2.460362351e-07 	0.01224430571 	-4.444177267e-09 	2.334104982e-05
0.5595018865 	0.01283883139 	-0.002080467909 	-2.391355731e-07 	0.01223356087 	-2.184484584e-08 	2.332056717e-05
0.5613544406 	0.01273936621 	-0.001874683326 	-2.32557547e-07 	0.01223561037 	-3.733248298e-08 	2.332447407e-05
0.563227667 	0.01266190906 	-0.001674209294 	-2.263030659e-07 	0.01224879445 	-5.106542478e-08 	2.33496066e-05
0.5651217966 	0.01260444445 	-0.001478617836 	-2.20367398e-07 	0.01227163537 	-6.319998204e-08 	2.339314774e-05
0.5670370626 	0.01256511585 	-0.00128751 	-2.147416436e-07 	0.01230282347 	-7.388722128e-08 	2.345260093e-05
0.5689737009 	0.01254222548 	-0.001100516096 	-2.094138888e-07 	0.01234120296 	-8.327068492e-08 	2.35257629e-05
0.5709319499 	0.01253423038 	-0.0009172953424 	-2.043701439e-07 	0.01238575771 	-9.148482802e-08 	2.361069664e-05
0.5729120508 	0.01253973566 	-0.0007375350706 	-1.995951038e-07 	0.01243559742 	-9.865408915e-08 	2.370570498e-05
0.5749142474 	0.01255748581 	-0.0005609495987 	-1.950727907e-07 	0.01248994431 	-1.048921596e-07 	2.380930526e-05
0.5769387863 	0.01258635465 	-0.000387278983 	-1.907869435e-07 	0.01254812194 	-1.103044361e-07 	2.392020799e-05
0.5789859169 	0.01262533486 	-0.0002162871517 	-1.867203516e-07 	0.01260953873 	-1.149799007e-07 	2.403728547e-05
0.5810558911 	0.01267352686 	-4.778179496e-05 	-1.828583342e-07 	0.0126736848 	-1.190037952e-07 	2.41595657e-05
0.583148964 	0.01273012701 	0.0001184300535 	-1.791886244e-07 	0.01274012193 	-1.224610006e-07 	2.428621333e-05
0.5852653933 	0.01279442088 	0.0002825647881 	-1.756909709e-07 	0.01280846091 	-1.254019868e-07 	2.441648643e-05
0.5874054395 	0.01286577216 	0.0004447741445 	-1.723471808e-07 	0.01287837244 	-1.278900656e-07 	2.454975722e-05
0.5895693664 	0.01294361166 	0.0006051707393 	-1.69148464e-07 	0.01294957483 	-1.299866293e-07 	2.468548878e-05
0.5917574402 	0.01302743119 	0.0007638777344 	-1.660870753e-07 	0.01302181716 	-1.317171535e-07 	2.482320274e-05
0.5939699306 	0.01311677572 	0.0009210065209 	-1.631496708e-07 	0.01309488837 	-1.331312872e-07 	2.496249676e-05
0.5962071099 	0.01321123702 	0.001076653063 	-1.603208363e-07 	0.0131686072 	-1.34268937e-07 	2.510302535e-05
0.5984692536 	0.01331044737 	0.001230899339 	-1.575909004e-07 	0.01324281545 	-1.351518499e-07 	2.52444869e-05
0.6007566404 	0.01341407448 	0.001383817356 	-1.549512512e-07 	0.01331737795 	-1.358091128e-07 	2.538662374e-05
0.6030695519 	0.0135218169 	0.001535469464 	-1.523931709e-07 	0.01339217871 	-1.362630658e-07 	2.552921479e-05
0.6054082729 	0.01363339986 	0.001685908979 	-1.499085289e-07 	0.0134671182 	-1.365333278e-07 	2.567207028e-05
0.6077730914 	0.0137485716 	0.001835180893 	-1.474897316e-07 	0.01354211107 	-1.36636858e-07 	2.581502753e-05
0.6101642987 	0.01386710025 	0.001983322549 	-1.451297154e-07 	0.01361708431 	-1.365883458e-07 	2.595794736e-05
0.6125821893 	0.01398877092 	0.002130364272 	-1.42821903e-07 	0.01369197554 	-1.364004522e-07 	2.610071087e-05
0.6150270608 	0.01411338328 	0.002276329943 	-1.405601635e-07 	0.01376673158 	-1.360840632e-07 	2.624321665e-05
0.6174992144 	0.01424074937 	0.00242123753 	-1.383387712e-07 	0.01384130715 	-1.356485086e-07 	2.638537842e-05
0.6199989545 	0.01437069174 	0.00256509957 	-1.361523691e-07 	0.01391566383 	-1.351017548e-07 	2.652712292e-05
0.622526589 	0.01450304172 	0.002707923608 	-1.339959343e-07 	0.01398976909 	-1.344505726e-07 	2.666838813e-05
0.625082429 	0.01463763806 	0.002849712607 	-1.318647467e-07 	0.01406359546 	-1.33700686e-07 	2.680912173e-05
0.6276667894 	0.01477432561 	0.002990465308 	-1.297543615e-07 	0.01413711987 	-1.32856902e-07 	2.694927968e-05
0.6302799884 	0.01491295425 	0.003130176575 	-1.276605839e-07 	0.01421032295 	-1.319232254e-07 	2.70888251e-05
0.6329223478 	0.01505337795 	0.003268837706 	-1.255794483e-07 	0.01428318858 	-1.309029599e-07 	2.722772723e-05
0.6355941931 	0.01519545397 	0.003406436715 	-1.235071984e-07 	0.01435570334 	-1.297987974e-07 	2.736596053e-05
0.6382958531 	0.01533904216 	0.003542958597 	-1.21440272e-07 	0.0144278562 	-1.286128966e-07 	2.750350392e-05
0.6410276607 	0.01548400437 	0.003678385573 	-1.193752869e-07 	0.01449963806 	-1.273469539e-07 	2.764034011e-05
0.6437899523 	0.015630204 	0.003812697315 	-1.173090306e-07 	0.01457104155 	-1.260022653e-07 	2.777645501e-05
0.646583068 	0.01577750558 	0.003945871152 	-1.152384512e-07 	0.01464206071 	-1.245797823e-07 	2.791183727e-05
0.6494073518 	0.01592577444 	0.004077882268 	-1.131606518e-07 	0.01471269078 	-1.230801618e-07 	2.80464778e-05
0.6522631514 	0.01607487652 	0.00420870388 	-1.11072886e-07 	0.01478292801 	-1.215038112e-07 	2.818036949e-05
0.6551508186 	0.01622467814 	0.004338307406 	-1.089725554e-07 	0.01485276952 	-1.198509291e-07 	2.831350682e-05
0.658070709 	0.01637504591 	0.004466662624 	-1.068572096e-07 	0.01492221317 	-1.181215417e-07 	2.844588572e-05
0.6610231822 	0.0165258467 	0.004593737814 	-1.047245463e-07 	0.01499125745 	-1.163155362e-07 	2.85775033e-05
0.6640086017 	0.0166769476 	0.0047194999 	-1.02572413e-07 	0.01505990139 	-1.144326916e-07 	2.870835773e-05
0.6670273351 	0.01682821596 	0.004843914574 	-1.003988098e-07 	0.01512814456 	-1.124727063e-07 	2.883844818e-05
0.6700797543 	0.01697951953 	0.004966946413 	-9.820189173e-08 	0.01519598701 	-1.104352235e-07 	2.896777475e-05
0.6731662352 	0.01713072656 	0.005088558992 	-9.5979971e-08 	0.01526342927 	-1.083198543e-07 	2.909633843e-05
0.6762871577 	0.01728170601 	0.005208714987 	-9.373151894e-08 	0.01533047238 	-1.061261989e-07 	2.922414123e-05
0.6794429063 	0.01743232772 	0.005327376267 	-9.145516623e-08 	0.01539711793 	-1.038538657e-07 	2.935118618e-05
0.6826338695 	0.01758246274 	0.005444503984 	-8.914970161e-08 	0.01546336815 	-1.015024887e-07 	2.947747752e-05
0.6858604404 	0.01773198356 	0.005560058653 	-8.681406812e-08 	0.01552922598 	-9.907174222e-08 	2.960302085e-05
0.6891230163 	0.01788076451 	0.005674000231 	-8.444735627e-08 	0.01559469519 	-9.656135444e-08 	2.972782336e-05
0.6924219988 	0.0180286821 	0.005786288183 	-8.204879385e-08 	0.01565978054 	-9.397111814e-08 	2.985189411e-05
0.6957577944 	0.01817561548 	0.005896881556 	-7.961773155e-08 	0.01572448792 	-9.130089948e-08 	2.997524438e-05
0.6991308138 	0.01832144686 	0.006005739036 	-7.715362417e-08 	0.01578882461 	-8.855064406e-08 	3.009788799e-05
0.7025414724 	0.01846606208 	0.006112819023 	-7.465600686e-08 	0.01585279944 	-8.572038022e-08 	3.021984179e-05
0.7059901901 	0.01860935114 	0.00621807969 	-7.21244663e-08 	0.01591642308 	-8.281021911e-08 	3.034112612e-05
0.7094773917 	0.01875120886 	0.006321479062 	-6.955860676e-08 	0.01597970832 	-7.982035131e-08 	3.046176539e-05
0.7130035066 	0.01889153553 	0.006422975097 	-6.695801122e-08 	0.01604267042 	-7.675103928e-08 	3.058178865e-05
0.7165689691 	0.01903023774 	0.006522525781 	-6.432219819e-08 	0.01610532743 	-7.360260506e-08 	3.070123032e-05
0.7201742182 	0.01916722914 	0.006620089234 	-6.165057507e-08 	0.01616770061 	-7.037541242e-08 	3.082013094e-05
0.7238196978 	0.01930243141 	0.006715623872 	-5.894238986e-08 	0.01622981492 	-6.706984288e-08 	3.093853809e-05
0.727505857 	0.01943577528 	0.006809088646 	-5.619668224e-08 	0.01629169956 	-6.368626255e-08 	3.105650741e-05
0.7312331497 	0.01956720199 	0.006900443593 	-5.341223928e-08 	0.016353388 	-6.022498862e-08 	3.117410272e-05
0.7350020349 	0.01969632942 	0.006989422918 	-5.059505088e-08 	0.01641475472 	-5.669565838e-08 	3.129108473e-05
0.7387709215 	0.0198220959 	0.007075300163 	-4.776767293e-08 	0.0164753343 	-5.312911231e-08 	3.140656626e-05
0.7424982157 	0.0199435575 	0.007157442463 	-4.495290723e-08 	0.01653469334 	-4.955713443e-08 	3.151972109e-05
0.7461843763 	0.02006057897 	0.007235775873 	-4.215685967e-08 	0.01659276782 	-4.599090344e-08 	3.16304272e-05
0.7498298574 	0.0201733711 	0.007310459129 	-3.937786076e-08 	0.01664965189 	-4.243169436e-08 	3.173886403e-05
0.7534351078 	0.02028214747 	0.007381646773 	-3.661415204e-08 	0.01670543741 	-3.888029997e-08 	3.184520673e-05
0.7570005716 	0.02038712329 	0.007449489071 	-3.386396701e-08 	0.01676021443 	-3.533704295e-08 	3.194962697e-05
0.7605266877 	0.02048851456 	0.007514132304 	-3.112558558e-08 	0.01681407135 	-3.180177487e-08 	3.205229321e-05
0.7640138905 	0.02058653735 	0.007575719053 	-2.839739331e-08 	0.01686709487 	-2.827387969e-08 	3.215337079e-05
0.7674626093 	0.02068140714 	0.007634388448 	-2.567794152e-08 	0.0169193702 	-2.475227887e-08 	3.22530221e-05
0.770873269 	0.02077333819 	0.007690276351 	-2.296600665e-08 	0.01697098114 	-2.123543637e-08 	3.235140689e-05
0.7742462894 	0.02086254289 	0.007743515491 	-2.026064887e-08 	0.0170220102 	-1.77213635e-08 	3.244868246e-05
0.777582086 	0.02094923129 	0.007794235539 	-1.756127037e-08 	0.01707253877 	-1.420762392e-08 	3.254500397e-05
0.7808810695 	0.02103361053 	0.007842563126 	-1.486767432e-08 	0.01712264732 	-1.069133691e-08 	3.264052479e-05
0.7841436462 	0.02111588445 	0.007888621812 	-1.218012328e-08 	0.01717241552 	-7.169172047e-09 	3.273539681e-05
0.787370218 	0.02119625312 	0.007932531876 	-9.499367611e-09 	0.01722192231 	-3.637319634e-09 	3.282977051e-05
0.7905611821 	0.02127491219 	0.007974409912 	-6.826743599e-09 	0.01727124657 	-9.171210642e-11 	3.292379626e-05
0.7937169314 	0.0213520523 	0.008014369729 	-4.164645453e-09 	0.0173204712 	3.471444196e-09 	3.301763208e-05
0.7968378547 	0.02142786706 	0.008052545468 	-1.521860185e-09 	0.01736969983 	7.053726798e-09 	3.311147554e-05
0.7999243362 	0.02150258211 	0.008089089949 	1.102977536e-09 	0.01741891596 	1.070151696e-08 	3.320529515e-05
0.8029767561 	0.02157662177 	0.00812449308 	3.613697017e-09 	0.01746795408 	1.439487487e-08 	3.329877544e-05
0.8059954902 	0.0216519002 	0.008162002501 	5.445758186e-09 	0.01751609951 	1.829211662e-08 	3.339055401e-05
0.8089809102 	0.02172811325 	0.008199926171 	9.140810298e-09 	0.01756359733 	2.182625396e-08 	3.348109805e-05
0.8119333839 	0.02180161017 	0.008229517805 	1.313551935e-08 	0.01761239673 	2.529108919e-08 	3.357412328e-05
0.8148532749 	0.0218739232 	0.00825294844 	1.499482979e-08 	0.01766237223 	2.922616128e-08 	3.366939048e-05
0.8177409426 	0.0219481763 	0.008276679092 	1.689999148e-08 	0.01771255374 	3.32228588e-08 	3.376505039e-05
0.8205967427 	0.02202408948 	0.008300772326 	1.888263391e-08 	0.01776321593 	3.737276906e-08 	3.38616266e-05
0.8234210268 	0.02210139697 	0.008325269813 	2.093258695e-08 	0.01781455472 	4.166588002e-08 	3.39594926e-05
0.8262141429 	0.02217987324 	0.008350221929 	2.306188198e-08 	0.01786675889 	4.613729853e-08 	3.405900826e-05
0.8289764348 	0.0222593433 	0.008375622237 	2.526494939e-08 	0.01791986499 	5.077830724e-08 	3.416024323e-05
0.8317082427 	0.02233968721 	0.008401453198 	2.753167635e-08 	0.01797386554 	5.556694401e-08 	3.42631833e-05
0.8344099031 	0.02242083782 	0.008427698074 	2.985092103e-08 	0.01802874075 	6.047701725e-08 	3.436779069e-05
0.8370817486 	0.02250277512 	0.008454346537 	3.221269745e-08 	0.01808447501 	6.548391689e-08 	3.447403568e-05
0.8397241082 	0.02258551915 	0.008481396702 	3.460933618e-08 	0.01814106446 	7.056789438e-08 	3.458191092e-05
0.8423373074 	0.02266912256 	0.00850885518 	3.703598799e-08 	0.01819851926 	7.571565996e-08 	3.469143572e-05
0.844921668 	0.02275366361 	0.008536736008 	3.949056694e-08 	0.01825686263 	8.092054961e-08 	3.48026544e-05
0.8474775082 	0.02283924012 	0.008565059267 	4.197336619e-08 	0.01831612897 	8.618177029e-08 	3.491563253e-05
0.8500051427 	0.02292596444 	0.008593849861 	4.448650637e-08 	0.01837636199 	9.150323134e-08 	3.50304534e-05
0.8525048829 	0.02301395944 	0.008623136675 	4.70333438e-08 	0.01843761356 	9.689221742e-08 	3.514721592e-05
0.8549770366 	0.0231033554 	0.008652952125 	4.961792163e-08 	0.01849994343 	1.023580366e-07 	3.526603397e-05
0.8574219081 	0.02319428756 	0.008683332014 	5.224449189e-08 	0.0185634195 	1.079108329e-07 	3.5387037e-05
0.8598397987 	0.02328689436 	0.008714315567 	5.49171563e-08 	0.01862811845 	1.135606408e-07 	3.551037118e-05
0.862231006 	0.02338131616 	0.008745945501 	5.763961131e-08 	0.01869412628 	1.193166631e-07 	3.563620046e-05
0.8645958245 	0.02347769448 	0.008778268035 	6.041498929e-08 	0.01876153858 	1.25186766e-07 	3.576470704e-05
0.8669345455 	0.02357617169 	0.008811332762 	6.324578426e-08 	0.01883046025 	1.31177179e-07 	3.589609088e-05
0.8692474569 	0.02367689111 	0.008845192369 	6.613385047e-08 	0.01890100469 	1.372923862e-07 	3.60305682e-05
0.8715348435 	0.02377999774 	0.008879902241 	6.908046295e-08 	0.01897329254 	1.435351948e-07 	3.616836894e-05
0.8737969871 	0.02388563932 	0.008915519991 	7.208642905e-08 	0.0190474501 	1.499069642e-07 	3.630973385e-05
0.8760341663 	0.02399396788 	0.008952105015 	7.515224058e-08 	0.01912360758 	1.564079714e-07 	3.645491117e-05
0.8782466565 	0.02410514176 	0.008989718159 	7.827825391e-08 	0.01920189773 	1.630378815e-07 	3.660415396e-05
0.8804347301 	0.02421932778 	0.009028421581 	8.146488484e-08 	0.01928245481 	1.697962848e-07 	3.675771814e-05
0.8825986568 	0.02433670376 	0.009068278882 	8.471280343e-08 	0.01936541428 	1.766832553e-07 	3.691586196e-05
0.8847387028 	0.02445746104 	0.009109355559 	8.802311497e-08 	0.01945091344 	1.836998874e-07 	3.707884711e-05
0.8868551318 	0.02458180701 	0.009151719777 	9.139751234e-08 	0.01953909286 	1.908487678e-07 	3.72469416e-05
0.8889482045 	0.02470996752 	0.009195443452 	9.483838739e-08 	0.01963009888 	1.981343437e-07 	3.742042437e-05
0.8910181784 	0.02484218894 	0.009240603595 	9.834889039e-08 	0.01972408682 	2.055631564e-07 	3.759959151e-05
0.8930653087 	0.02497873994 	0.009287283825 	1.019329273e-07 	0.01982122483 	2.131439065e-07 	3.778476354e-05
0.8950898473 	0.02511991276 	0.009335575964 	1.05595086e-07 	0.01992169805 	2.208873285e-07 	3.797629342e-05
0.8970920436 	0.02526602394 	0.009385581585 	1.093404862e-07 	0.02002571289 	2.288058573e-07 	3.817457462e-05
0.8990721441 	0.02541741454 	0.009437413402 	1.131745531e-07 	0.02013350092 	2.369130922e-07 	3.838004858e-05
0.9010303927 	0.02557444965 	0.009491196374 	1.171027183e-07 	0.02024532217 	2.452230791e-07 	3.859321095e-05
0.9029670306 	0.02573751727 	0.009547068401 	1.211300561e-07 	0.0203614674 	2.537494461e-07 	3.881461604e-05
0.9048822962 	0.02590702655 	0.009605180532 	1.252608568e-07 	0.02048225919 	2.6250441e-07 	3.904487877e-05
0.9067764254 	0.02608340517 	0.009665696571 	1.294981298e-07 	0.02060805151 	2.714976353e-07 	3.928467388e-05
0.9086496514 	0.0262670959 	0.009728792037 	1.338430141e-07 	0.02073922762 	2.807348729e-07 	3.953473201e-05
0.910502205 	0.02645855217 	0.009794652416 	1.382940736e-07 	0.02087619627 	2.902162906e-07 	3.979583232e-05
0.9123343142 	0.02665823257 	0.009863470685 	1.428464804e-07 	0.021019386 	2.999344811e-07 	4.006879176e-05
0.9141462048 	0.02686659405 	0.009935444087 	1.474911288e-07 	0.02116923776 	3.098722783e-07 	4.035445086e-05
0.9159380997 	0.027084084 	0.01001077019 	1.522138111e-07 	0.02132619567 	3.200007702e-07 	4.065365625e-05
0.9177102197 	0.02731113082 	0.01008964226 	1.56994495e-07 	0.02149069634 	3.302777416e-07 	4.096724026e-05
0.9194627831 	0.02754813327 	0.01017224387 	1.618078936e-07 	0.02166315644 	3.40649195e-07 	4.129599714e-05
0.9211960055 	0.02779544858 	0.0102587441 	1.666204128e-07 	0.02184396168 	3.510434022e-07 	4.164066218e-05
0.9229101006 	0.02805337929 	0.01034929057 	1.713955207e-07 	0.0220334511 	3.613835314e-07 	4.200188169e-05
0.9246052793 	0.02832216022 	0.0104440036 	1.760896054e-07 	0.02223190417 	3.715757119e-07 	4.238018838e-05
0.9262817504 	0.02860194361 	0.01054297208 	1.806468283e-07 	0.02243953166 	3.814980635e-07 	4.27759841e-05
0.9279397204 	0.02889278512 	0.01064624616 	1.850101403e-07 	0.02265645974 	3.910252846e-07 	4.31895093e-05
0.9295793934 	0.0291946331 	0.01075383245 	1.891180161e-07 	0.0228827194 	4.000220152e-07 	4.362082311e-05
0.9312009714 	0.0295073187 	0.0108656906 	1.929050872e-07 	0.02311823865 	4.083462025e-07 	4.406978825e-05
0.9328046541 	0.02983054863 	0.01098172977 	1.963074859e-07 	0.02336283503 	4.15859e-07 	4.453605693e-05
0.9343906389 	0.030163901 	0.01110180734 	1.992626816e-07 	0.02361621314 	4.224241136e-07 	4.501906603e-05