0.4709558481 	2.529388599e-06 	-1.769657877e-08 	3.658703275e-14 	2.524403918e-06 	-3.741632151e-12 	4.81221549e-09
0.4711314108 	2.841802152e-05 	-7.749959314e-07 	1.601325723e-12 	2.83334925e-05 	-4.198368092e-11 	5.401151158e-08
0.4713069734 	0.0001588220426 	-1.000899176e-05 	2.056143829e-11 	0.000157585635 	-2.330550827e-10 	3.00402019e-07
0.471482536 	0.0005317905885 	-6.054940852e-05 	1.222067127e-10 	0.0005205538903 	-7.64626567e-10 	9.923203954e-07
0.4716580986 	0.001323043719 	-0.0002300671232 	4.47572109e-10 	0.001261031996 	-1.821930926e-09 	2.403877471e-06
0.4718336613 	0.002709593848 	-0.000629698441 	1.153275311e-09 	0.002484110575 	-3.480469498e-09 	4.735405178e-06
0.4720092239 	0.004793170534 	-0.001344045036 	2.265638651e-09 	0.004206627083 	-5.626411376e-09 	8.019000392e-06
0.4721847865 	0.007513703328 	-0.002367248205 	3.61319004e-09 	0.006339689929 	-7.986332348e-09 	1.208521103e-05
0.4723603491 	0.01065182137 	-0.003602282583 	4.942068281e-09 	0.008722181508 	-1.025916393e-08 	1.662690216e-05
0.4725359118 	0.01393366911 	-0.004919307347 	6.075304139e-09 	0.01118095087 	-1.224096331e-08 	2.131399994e-05
0.4727114744 	0.01713734465 	-0.006212920341 	6.972498828e-09 	0.01357737594 	-1.384927726e-08 	2.588225218e-05
0.472887037 	0.02011899111 	-0.007397222373 	7.405960825e-09 	0.01583336335 	-1.519664737e-08 	3.018279119e-05
0.4730625996 	0.02281580181 	-0.00842142342 	7.665162117e-09 	0.01792221147 	-1.63016253e-08 	3.416471628e-05
0.4732381623 	0.02524412908 	-0.009317466237 	8.052279278e-09 	0.01982912862 	-1.712283815e-08 	3.779983036e-05
0.4734137249 	0.0274320228 	-0.01012510162 	8.343764769e-09 	0.02154790114 	-1.774029855e-08 	4.10762885e-05
0.4735892875 	0.02939181317 	-0.01084854308 	8.555656646e-09 	0.02308749108 	-1.818813482e-08 	4.401117484e-05
0.4737648501 	0.03114139046 	-0.01149428111 	8.704795464e-09 	0.02446170504 	-1.850218872e-08 	4.663080859e-05
0.4739404128 	0.03270102536 	-0.01206992095 	8.802766133e-09 	0.02568671553 	-1.870701295e-08 	4.896601906e-05
0.4741159754 	0.0340911765 	-0.01258303336 	8.859328361e-09 	0.02677860021 	-1.882314827e-08 	5.104745473e-05
0.474291538 	0.03533126579 	-0.01304081546 	8.882389004e-09 	0.0277526051 	-1.886696847e-08 	5.290417875e-05
0.4744671006 	0.03643907729 	-0.01344974265 	8.876549051e-09 	0.02862269676 	-1.885141185e-08 	5.456281529e-05
0.4746426632 	0.03743053764 	-0.01381560027 	8.847212001e-09 	0.02940138644 	-1.878669289e-08 	5.604721424e-05
0.4748182259 	0.03831970515 	-0.01414367046 	8.799464185e-09 	0.03009971751 	-1.868084047e-08 	5.737842735e-05
0.4749937885 	0.0391188745 	-0.01443855692 	8.735392381e-09 	0.03072734776 	-1.854020105e-08 	5.857486506e-05
0.4751693511 	0.03983874797 	-0.01470419241 	8.657410958e-09 	0.03129268419 	-1.836987721e-08 	5.965255342e-05
0.4753449137 	0.04048862381 	-0.01494400007 	8.56745899e-09 	0.03180303117 	-1.817398359e-08 	6.062541661e-05
0.4755204764 	0.04107657664 	-0.01516095591 	8.467107551e-09 	0.03226473237 	-1.795586228e-08 	6.150554742e-05
0.475696039 	0.04160962409 	-0.01535764625 	8.357642662e-09 	0.03268329734 	-1.77182538e-08 	6.230344859e-05
0.4758716016 	0.04209387608 	-0.01553631669 	8.240128768e-09 	0.03306350804 	-1.746343061e-08 	6.302823585e-05
0.4760471642 	0.042534667 	-0.01569894527 	8.115461405e-09 	0.0334095758 	-1.719330939e-08 	6.368793718e-05
0.4762227269 	0.04298978645 	-0.01586688272 	7.965851389e-09 	0.03376693487 	-1.686937123e-08 	6.43691629e-05
0.4764955107 	0.0434963417 	-0.01605378935 	7.768566098e-09 	0.03416465058 	-1.644245521e-08 	6.512731957e-05
0.4767734216 	0.04398961759 	-0.0162357475 	7.537039252e-09 	0.03455182541 	-1.594168866e-08 	6.586538242e-05
0.4770565557 	0.04442663592 	-0.01639693136 	7.289444008e-09 	0.03489478487 	-1.540640584e-08 	6.651915847e-05
0.4773450114 	0.04481387763 	-0.01653975155 	7.026161219e-09 	0.03519865965 	-1.483742859e-08 	6.709842825e-05
0.4776388886 	0.04515695286 	-0.01666626615 	6.74742142e-09 	0.03546782956 	-1.423525593e-08 	6.761154092e-05
0.4779382892 	0.04546069929 	-0.01677825822 	6.45334429e-09 	0.03570608927 	-1.36001486e-08 	6.806573015e-05
0.4782433171 	0.0457292889 	-0.0168772681 	6.143968806e-09 	0.03591671683 	-1.293219425e-08 	6.846724481e-05
0.4785540779 	0.04596632667 	-0.01696462654 	5.819274514e-09 	0.03610254426 	-1.223135336e-08 	6.882148354e-05
0.4788706795 	0.04617493632 	-0.01704148645 	5.479195571e-09 	0.03626602506 	-1.149748943e-08 	6.913312338e-05
0.4791932316 	0.04635783274 	-0.01710884983 	5.123630417e-09 	0.03640929158 	-1.073038974e-08 	6.940622919e-05
0.4795218461 	0.04651738278 	-0.01716759022 	4.7524481e-09 	0.03653420278 	-9.929778851e-09 	6.964434466e-05
0.4798566368 	0.04665565606 	-0.01721847143 	4.365492248e-09 	0.03664238412 	-9.095327104e-09 	6.985056836e-05
0.48019772 	0.0467744674 	-0.01726216326 	3.962583515e-09 	0.03673526092 	-8.22665571e-09 	7.002761735e-05
0.4805452138 	0.04687541255 	-0.0172992546 	3.54352101e-09 	0.03681408636 	-7.32333972e-09 	7.017788054e-05
0.4808992388 	0.04695989803 	-0.01733026451 	3.10808311e-09 	0.03687996499 	-6.384909674e-09 	7.030346352e-05
0.4812599177 	0.04702916646 	-0.01735565155 	2.656027898e-09 	0.03693387257 	-5.410852425e-09 	7.040622635e-05
0.4816273755 	0.04708431784 	-0.01737582163 	2.187093368e-09 	0.03697667284 	-4.400611492e-09 	7.048781556e-05
0.4820017397 	0.04712632774 	-0.0173911347 	1.700997459e-09 	0.03700913174 	-3.353587071e-09 	7.054969125e-05
0.48238314 	0.04715606265 	-0.01740191048 	1.197437953e-09 	0.03703192953 	-2.269135713e-09 	7.059315018e-05
0.4827717088 	0.0471742932 	-0.01740843327 	6.760922068e-10 	0.03704567113 	-1.146569766e-09 	7.061934548e-05
0.4831675807 	0.04718170545 	-0.01741095614 	1.366167709e-10 	0.03705089498 	1.484346885e-11 	7.06293036e-05
0.4835708931 	0.04717891054 	-0.01740970454 	-4.213530924e-10 	0.03704808068 	1.215882805e-09 	7.062393876e-05
0.4839817856 	0.04716645314 	-0.01740487931 	-9.982040444e-10 	0.03703765555 	2.457374434e-09 	7.060406556e-05
0.4844004009 	0.04714481864 	-0.01739665944 	-1.594345363e-09 	0.03702000031 	3.740193402e-09 	7.057040977e-05
0.4848268841 	0.04711443948 	-0.01738520437 	-2.2102097e-09 	0.03699545407 	5.06526513e-09 	7.052361782e-05
0.485261383 	0.04707570062 	-0.01737065596 	-2.846253882e-09 	0.03696431859 	6.433566976e-09 	7.046426493e-05
0.4857040484 	0.04702894434 	-0.01735314034 	-3.502959677e-09 	0.03692686206 	7.846129768e-09 	7.039286237e-05
0.4861550336 	0.04697447444 	-0.01733276941 	-4.180834559e-09 	0.0368833224 	9.304039299e-09 	7.030986369e-05
0.4866144951 	0.04691255995 	-0.01730964221 	-4.880412439e-09 	0.03683391019 	1.080843771e-08 	7.021567028e-05
0.4870825921 	0.04684343835 	-0.01728384616 	-5.602254283e-09 	0.03677881119 	1.236052461e-08 	7.011063627e-05
0.487559487 	0.04676731852 	-0.01725545806 	-6.346948683e-09 	0.03671818862 	1.396155813e-08 	6.99950728e-05
0.4880453452 	0.04668438322 	-0.01722454508 	-7.115112393e-09 	0.03665218516 	1.561285591e-08 	6.986925187e-05
0.4885403351 	0.04659479139 	-0.01719116558 	-7.907390792e-09 	0.03658092474 	1.731579601e-08 	6.97334097e-05
0.4890446283 	0.04649868019 	-0.01715536986 	-8.724458335e-09 	0.03650451411 	1.907181765e-08 	6.958774981e-05
0.4895583997 	0.04639616672 	-0.01711720082 	-9.56701908e-09 	0.03642304426 	2.088242226e-08 	6.943244563e-05
0.4900818274 	0.0462873497 	-0.01707669454 	-1.043580733e-08 	0.03633659167 	2.274917492e-08 	6.926764296e-05
0.4906150929 	0.04617231087 	-0.01703388082 	-1.133158856e-08 	0.03624521943 	2.467370617e-08 	6.909346207e-05
0.4911583811 	0.04605111623 	-0.01698878365 	-1.22551605e-08 	0.03614897826 	2.665771445e-08 	6.890999964e-05
0.4917118805 	0.04592381728 	-0.01694142164 	-1.320735476e-08 	0.0360479074 	2.870296955e-08 	6.871733049e-05
0.4922757829 	0.04579045193 	-0.01689180838 	-1.418903892e-08 	0.03594203541 	3.081131724e-08 	6.851550907e-05
0.4928502838 	0.04565104551 	-0.01683995279 	-1.520111934e-08 	0.03583138092 	3.29846851e-08 	6.830457085e-05
0.4934355824 	0.04550561153 	-0.01678585943 	-1.624454428e-08 	0.03571595321 	3.522508942e-08 	6.808453356e-05
0.4940318817 	0.04535415243 	-0.01672952874 	-1.73203078e-08 	0.03559575284 	3.75346433e-08 	6.785539824e-05
0.4946393885 	0.04519666019 	-0.01667095731 	-1.842945396e-08 	0.03547077209 	3.991556562e-08 	6.76171502e-05
0.4952583133 	0.0450331169 	-0.01661013804 	-1.957308111e-08 	0.03534099547 	4.237019e-08 	6.736975989e-05
0.4958888709 	0.04486349523 	-0.01654706035 	-2.075234569e-08 	0.03520640003 	4.490097255e-08 	6.711318357e-05
0.4965312797 	0.04468775883 	-0.01648171034 	-2.196846499e-08 	0.03506695572 	4.751049741e-08 	6.684736395e-05
0.4971857627 	0.04450586262 	-0.01641407086 	-2.322271829e-08 	0.03492262562 	5.02014788e-08 	6.657223068e-05
0.4978525466 	0.04431775305 	-0.01634412166 	-2.451644538e-08 	0.03477336621 	5.297675739e-08 	6.628770076e-05
0.4985318627 	0.04412336824 	-0.01627183943 	-2.585104163e-08 	0.03461912745 	5.583928973e-08 	6.59936788e-05
0.4992239466 	0.04392263801 	-0.01619719782 	-2.722794963e-08 	0.03445985288 	5.879213048e-08 	6.569005721e-05
0.4999290382 	0.04371548378 	-0.01612016744 	-2.864864783e-08 	0.03429547961 	6.18384087e-08 	6.537671607e-05
0.5006473819 	0.04350181823 	-0.01604071578 	-3.011463735e-08 	0.03412593812 	6.498130094e-08 	6.505352286e-05
0.501379227 	0.04328154469 	-0.01595880695 	-3.162743025e-08 	0.03395115183 	6.822400755e-08 	6.472033162e-05
0.502124827 	0.043054556 	-0.01587440138 	-3.318854419e-08 	0.03377103637 	7.156974283e-08 	6.437698149e-05
0.5028844406 	0.04282073275 	-0.01578745515 	-3.479951106e-08 	0.0335854982 	7.502175381e-08 	6.402329418e-05
0.5036583311 	0.0425799405 	-0.01569791896 	-3.646191309e-08 	0.03339443244 	7.858339494e-08 	6.365906973e-05
0.5044467669 	0.04233202579 	-0.01560573657 	-3.817745234e-08 	0.03319771957 	8.225826837e-08 	6.328408033e-05
0.5052500214 	0.04207681069 	-0.01551084369 	-3.994804076e-08 	0.03299522298 	8.605040435e-08 	6.289806555e-05
0.506068373 	0.04178011271 	-0.01540053293 	-4.201273611e-08 	0.03275982605 	9.047156081e-08 	6.244933357e-05
0.507324668 	0.04140567702 	-0.01526131873 	-4.462951265e-08 	0.0324627458 	9.607406421e-08 	6.188301606e-05
0.5085949819 	0.04098652011 	-0.01510547014 	-4.757463391e-08 	0.03213015837 	1.023787455e-07 	6.124901197e-05
0.5098794711 	0.04055682129 	-0.01494569716 	-5.061285514e-08 	0.0317891874 	1.088816142e-07 	6.059902653e-05
0.5111782938 	0.04011665847 	-0.01478203224 	-5.374626239e-08 	0.03143990406 	1.155868296e-07 	5.993319541e-05
0.5124916099 	0.03966606841 	-0.01461449152 	-5.697674738e-08 	0.0310823446 	1.22498134e-07 	5.92515877e-05
0.5138195812 	0.03920505251 	-0.01444307833 	-6.030592007e-08 	0.03071651788 	1.296186682e-07 	5.855422029e-05
0.5151623712 	0.03873358399 	-0.01426778573 	-6.373511439e-08 	0.03034241084 	1.369509897e-07 	5.78410683e-05
0.5165201452 	0.03825161462 	-0.01408859891 	-6.726550361e-08 	0.02995999377 	1.444973202e-07 	5.711207508e-05
0.5178930705 	0.03775907939 	-0.01390549693 	-7.089833084e-08 	0.02956922401 	1.522600285e-07 	5.63671593e-05
0.5192813161 	0.03725589798 	-0.01371845329 	-7.463527245e-08 	0.02917004708 	1.602423809e-07 	5.560621714e-05
0.520685053 	0.03674197161 	-0.0135274347 	-7.847895225e-08 	0.02876239432 	1.684495956e-07 	5.482911766e-05
0.522104454 	0.03621717418 	-0.01333239786 	-8.243361688e-08 	0.02834617593 	1.76890231e-07 	5.403568974e-05
0.523539694 	0.03568133659 	-0.01313328372 	-8.650595061e-08 	0.02792126898 	1.855778819e-07 	5.322569899e-05
0.5249909497 	0.03513422347 	-0.01293000908 	-9.070593293e-08 	0.02748749961 	1.945330042e-07 	5.239881402e-05
0.5264583998 	0.03457550264 	-0.01272245565 	-9.504750565e-08 	0.02704462019 	2.037843965e-07 	5.155456274e-05
0.527942225 	0.03400470957 	-0.01251045758 	-9.95486052e-08 	0.02659228296 	2.133693904e-07 	5.069228226e-05
0.5294426081 	0.03342121176 	-0.01229378925 	-1.042298121e-07 	0.02613001469 	2.233311147e-07 	4.981107047e-05
0.5309597337 	0.03282418349 	-0.01207215735 	-1.09110464e-07 	0.02565720026 	2.33710289e-07 	4.890975474e-05
0.5324937889 	0.03221260818 	-0.01184520365 	-1.142009001e-07 	0.02517308884 	2.445286154e-07 	4.798690383e-05
0.5340449624 	0.03158534135 	-0.01161252949 	-1.194867969e-07 	0.02467684589 	2.557551539e-07 	4.704092685e-05
0.5356134452 	0.03094137806 	-0.01137379401 	-1.248665115e-07 	0.0241677611 	2.671727245e-07 	4.607046974e-05
0.5371994306 	0.03028074543 	-0.01112904348 	-1.300281821e-07 	0.02364594633 	2.78116638e-07 	4.507574577e-05
0.5388031139 	0.02960568586 	-0.01087914695 	-1.345222634e-07 	0.0231132581 	2.876298854e-07 	4.406029394e-05
0.5404246925 	0.02892059984 	-0.01062576745 	-1.380448022e-07 	0.02257323127 	2.950673203e-07 	4.30308527e-05
0.5420643661 	0.02823096562 	-0.01037095234 	-1.404613413e-07 	0.02203020377 	3.001490233e-07 	4.199569137e-05
0.5437223366 	0.02754298172 	-0.01011699712 	-1.416411979e-07 	0.02148902478 	3.026104894e-07 	4.09640538e-05
0.5453988083 	0.02686379071 	-0.009866531208 	-1.414521961e-07 	0.02095523759 	3.021921438e-07 	3.994650706e-05
0.5470939875 	0.02620133255 	-0.00962246849 	-1.39839733e-07 	0.02043497802 	2.988033286e-07 	3.895474772e-05
0.5488080831 	0.02556368266 	-0.009387755817 	-1.368983516e-07 	0.01993444701 	2.926624522e-07 	3.800059649e-05
0.5505413061 	0.02495795843 	-0.009164832149 	-1.330360809e-07 	0.01945877502 	2.846233707e-07 	3.709383348e-05
0.5522938699 	0.02438899231 	-0.008955541387 	-1.282670627e-07 	0.01901184939 	2.746570745e-07 	3.6241869e-05
0.5540659904 	0.02385806196 	-0.008760629403 	-1.234077347e-07 	0.01859530881 	2.643257168e-07 	3.544782688e-05
0.5558578859 	0.02334491422 	-0.00854921013 	-1.500503274e-07 	0.01821372911 	2.483175046e-07 	3.472042992e-05
0.5576697768 	0.02282666919 	-0.008295341108 	-1.643794586e-07 	0.01786585714 	2.399825149e-07 	3.405728927e-05
0.5595018865 	0.02231975745 	-0.00804066295 	-1.480313509e-07 	0.01753397033 	2.418192406e-07 	3.342462077e-05
0.5613544406 	0.02183464857 	-0.007805727506 	-1.464991385e-07 	0.01721059309 	2.400573262e-07 	3.280817386e-05
0.563227667 	0.02136114602 	-0.00757206239 	-1.470803231e-07 	0.01689999511 	2.378266508e-07 	3.221608779e-05
0.5651217966 	0.02089785791 	-0.007337486109 	-1.4774249e-07 	0.01660300333 	2.345458611e-07 	3.164993892e-05
0.5670370626 	0.02044461368 	-0.007101963548 	-1.485692026e-07 	0.01632031371 	2.310959996e-07 	3.111105392e-05
0.5689737009 	0.0200015363 	-0.006865470873 	-1.494100123e-07 	0.01605171949 	2.274149326e-07 	3.05990387e-05
0.5709319499 	0.01956889379 	-0.006628134094 	-1.50234622e-07 	0.01579709765 	2.234927281e-07 	3.011365869e-05
0.5729120508 	0.01914704002 	-0.0063900897 	-1.510220048e-07 	0.01555633831 	2.193403695e-07 	2.965470448e-05
0.5749142474 	0.01873641642 	-0.006151475701 	-1.517513204e-07 	0.01532932593 	2.149726138e-07 	2.922195578e-05
0.5769387863 	0.01833755331 	-0.005912433304 	-1.524024741e-07 	0.01511594553 	2.104019008e-07 	2.881519344e-05
0.5789859169 	0.01795106863 	-0.005673106619 	-1.529570649e-07 	0.0149160976 	2.056372866e-07 	2.843422775e-05
0.5810558911 	0.01757765969 	-0.005433632641 	-1.534011325e-07 	0.01472971529 	2.006822395e-07 	2.807893126e-05
0.583148964 	0.01721807189 	-0.00519411083 	-1.53732794e-07 	0.01455677176 	1.955349666e-07 	2.774925281e-05
0.5852653933 	0.01687304247 	-0.004954583968 	-1.539607089e-07 	0.01439723912 	1.902006883e-07 	2.744513926e-05
0.5874054395 	0.01654325344 	-0.004715090404 	-1.540844735e-07 	0.0142509866 	1.847094657e-07 	2.716634131e-05
0.5895693664 	0.01622931166 	-0.004475729269 	-1.540900778e-07 	0.01411771 	1.791115962e-07 	2.691227907e-05
0.5917574402 	0.0159317401 	-0.004236635057 	-1.539689543e-07 	0.01399697311 	1.734546901e-07 	2.6682121e-05
0.5939699306 	0.01565098082 	-0.003997917649 	-1.537233161e-07 	0.01388829368 	1.67774667e-07 	2.64749478e-05
0.5962071099 	0.01538740971 	-0.00375965227 	-1.533570558e-07 	0.01379118794 	1.621011654e-07 	2.628983728e-05
0.5984692536 	0.01514134557 	-0.003521895361 	-1.528725881e-07 	0.01370517833 	1.564614145e-07 	2.612587905e-05
0.6007566404 	0.01491304967 	-0.003284693256 	-1.522719282e-07 	0.01362979302 	1.5088064e-07 	2.598217369e-05
0.6030695519 	0.01470272282 	-0.003048084837 	-1.515574658e-07 	0.0135645663 	1.453817764e-07 	2.585783345e-05
0.6054082729 	0.01451050358 	-0.002812103069 	-1.507315628e-07 	0.01350903983 	1.399856459e-07 	2.575198456e-05
0.6077730914 	0.01433646796 	-0.002576776227 	-1.497959021e-07 	0.01346276419 	1.347110405e-07 	2.566377032e-05
0.6101642987 	0.01418063009 	-0.002342128325 	-1.487524572e-07 	0.01342530065 	1.295743315e-07 	2.559235441e-05
0.6125821893 	0.0140429442 	-0.002108179598 	-1.476037199e-07 	0.01339622292 	1.245895375e-07 	2.553692417e-05
0.6150270608 	0.01392330759 	-0.001874947258 	-1.463521103e-07 	0.01337511858 	1.197685679e-07 	2.549669343e-05
0.6174992144 	0.01382156427 	-0.001642446107 	-1.449999788e-07 	0.01336159046 	1.151213001e-07 	2.547090508e-05
0.6199989545 	0.01373750904 	-0.001410689121 	-1.435496064e-07 	0.01335525772 	1.106557094e-07 	2.545883311e-05
0.622526589 	0.01367089182 	-0.001179688037 	-1.420032014e-07 	0.0133557567 	1.063779966e-07 	2.545978431e-05
0.625082429 	0.01362142215 	-0.0009494538959 	-1.403628974e-07 	0.01336274157 	1.02292736e-07 	2.547309941e-05
0.6276667894 	0.01358877368 	-0.0007199975703 	-1.386307466e-07 	0.01337588474 	9.840296427e-08 	2.549815395e-05
0.6302799884 	0.01357258851 	-0.0004913302433 	-1.368087266e-07 	0.01339487666 	9.47108413e-08 	2.553435782e-05
0.6329223478 	0.01357248127 	-0.0002634636108 	-1.348985896e-07 	0.01341942754 	9.121616204e-08 	2.558115864e-05
0.6355941931 	0.01358804307 	-3.642065182e-05 	-1.329020821e-07 	0.01344926473 	8.791851188e-08 	2.56380366e-05
0.6382958531 	0.01361884456 	0.0001897839729 	-1.308212044e-07 	0.01348413292 	8.481765969e-08 	2.570450506e-05
0.6410276607 	0.01366444057 	0.00041515403 	-1.28657613e-07 	0.01352379758 	8.191001626e-08 	2.578011694e-05
0.6437899523 	0.01372437278 	0.000639670227 	-1.264126266e-07 	0.01356803931 	7.919282794e-08 	2.586445396e-05
0.646583068 	0.01379817087 	0.0008633010498 	-1.240876473e-07 	0.01361665526 	7.666339332e-08 	2.595712947e-05
0.6494073518 	0.0138853558 	0.001086023103 	-1.216840249e-07 	0.01366946054 	7.43173089e-08 	2.605779102e-05
0.6522631514 	0.01398544174 	0.001307809758 	-1.192030284e-07 	0.01372628528 	7.215047362e-08 	2.616611477e-05
0.6551508186 	0.01409793767 	0.001528631399 	-1.166458834e-07 	0.01378697504 	7.015840509e-08 	2.628180632e-05
0.658070709 	0.01422234896 	0.001748455269 	-1.140137616e-07 	0.01385139006 	6.833643227e-08 	2.640459924e-05
0.6610231822 	0.01435817853 	0.001967245364 	-1.113077812e-07 	0.01391940466 	6.667975893e-08 	2.653425398e-05
0.6640086017 	0.014504928 	0.002184962357 	-1.085290031e-07 	0.01399090672 	6.518353408e-08 	2.667055678e-05
0.6670273351 	0.01466209857 	0.002401563556 	-1.056784265e-07 	0.01406579704 	6.384290747e-08 	2.681331854e-05
0.6700797543 	0.01482919189 	0.002617002873 	-1.027569848e-07 	0.01414398882 	6.265307417e-08 	2.696237382e-05
0.6731662352 	0.01500571078 	0.00283123084 	-9.976553561e-08 	0.01422540718 	6.160933218e-08 	2.711757982e-05
0.6762871577 	0.01519115993 	0.003044194622 	-9.67048812e-08 	0.01430998856 	6.070711808e-08 	2.727881544e-05
0.6794429063 	0.01538504664 	0.003255838187 	-9.357552704e-08 	0.01439768055 	5.994251184e-08 	2.744598076e-05
0.6826338695 	0.01558688157 	0.003466102091 	-9.037833463e-08 	0.01448844019 	5.930948849e-08 	2.761899386e-05
0.6858604404 	0.01579617842 	0.003674922394 	-8.711184636e-08 	0.01458223634 	5.880494759e-08 	2.779779538e-05
0.6891230163 	0.01601245613 	0.003882232849 	-8.377739584e-08 	0.01467904753 	5.842675503e-08 	2.798234442e-05
0.6924219988 	0.01623524159 	0.004087967742 	-8.037997293e-08 	0.01477885825 	5.816723824e-08 	2.817261139e-05
0.6957577944 	0.01646406813 	0.004292058763 	-7.691636688e-08 	0.014881665 	5.80239474e-08 	2.836858964e-05
0.6991308138 	0.01669847613 	0.004494432689 	-7.338241886e-08 	0.01498747327 	5.799561311e-08 	2.85702896e-05
0.7025414724 	0.01693801564 	0.004695014113 	-6.977831937e-08 	0.01509629507 	5.80774833e-08 	2.877773421e-05
0.7059901901 	0.0171822482 	0.004893726929 	-6.610319285e-08 	0.01520815169 	5.826648409e-08 	2.8990964e-05
0.7094773917 	0.0174307485 	0.005090494138 	-6.235570356e-08 	0.01532307215 	5.855975294e-08 	2.921003435e-05
0.7130035066 	0.01768310645 	0.005285238409 	-5.853411131e-08 	0.01544109324 	5.895447725e-08 	2.943501534e-05
0.7165689691 	0.01793892948 	0.005477882662 	-5.463629954e-08 	0.01556225926 	5.944798307e-08 	2.966599145e-05
0.7201742182 	0.01819784507 	0.005668350767 	-5.06598296e-08 	0.01568662194 	6.003776965e-08 	2.99030613e-05
0.7238196978 	0.01845950344 	0.005856568357 	-4.660201356e-08 	0.0158142404 	6.072154364e-08 	3.014633754e-05
0.727505857 	0.0187235806 	0.00604246379 	-4.245999465e-08 	0.01594518098 	6.149730373e-08 	3.039594668e-05
0.7312331497 	0.01898978203 	0.00622596986 	-3.823103743e-08 	0.01607951685 	6.236321907e-08 	3.065202818e-05
0.7350020349 	0.01925714329 	0.006406560834 	-3.392478664e-08 	0.01621695737 	6.331528722e-08 	3.091402801e-05
0.7387709215 	0.01952319563 	0.006582742348 	-2.957787065e-08 	0.01635637295 	6.434328812e-08 	3.117979286e-05
0.7424982157 	0.01978555407 	0.006753152189 	-2.522843119e-08 	0.01649657812 	6.543451628e-08 	3.144706289e-05
0.7461843763 	0.02004347805 	0.006917544576 	-2.088996289e-08 	0.01663717639 	6.658074861e-08 	3.171508227e-05
0.7498298574 	0.02029699559 	0.0070761544 	-1.65646972e-08 	0.01677814583 	6.777690424e-08 	3.198380919e-05
0.7534351078 	0.02054618081 	0.007229213058 	-1.225502375e-08 	0.01691947258 	6.901815909e-08 	3.225321726e-05
0.7570005716 	0.02079114651 	0.007376946971 	-7.963442507e-09 	0.01706115143 	7.029948079e-08 	3.252329652e-05
0.7605266877 	0.02103203814 	0.007519576808 	-3.692434752e-09 	0.01720318571 	7.161540811e-08 	3.279405335e-05
0.7640138905 	0.02126902839 	0.007657316724 	5.556270472e-10 	0.01734558705 	7.295976703e-08 	3.306550987e-05
0.7674626093 	0.02150231216 	0.007790372626 	4.778581716e-09 	0.01748837394 	7.432528313e-08 	3.333770138e-05
0.770873269 	0.0217321002 	0.007918940057 	8.974549208e-09 	0.01763157665 	7.570306138e-08 	3.361068553e-05
0.7742462894 	0.0219586136 	0.008043212548 	1.314196791e-08 	0.01777526528 	7.70825462e-08 	3.3884596e-05
0.777582086 	0.02218215238 	0.008163556958 	1.728117733e-08 	0.01791965161 	7.845347357e-08 	3.415983647e-05
0.7808810695 	0.02240326535 	0.008280296605 	2.140696964e-08 	0.01806382179 	7.98102826e-08 	3.443466491e-05
0.7841436462 	0.02262398075 	0.008396637943 	2.55203973e-08 	0.01820693861 	8.104670919e-08 	3.470748534e-05
0.787370218 	0.02285724447 	0.008535623378 	2.992738128e-08 	0.01834329407 	8.216021036e-08 	3.496741675e-05
0.7905611821 	0.02308655788 	0.008660186621 	3.647728513e-08 	0.01848164658 	8.287407266e-08 	3.523115509e-05
0.7937169314 	0.02330129631 	0.008740834383 	4.122981454e-08 	0.0186322263 	8.434018262e-08 	3.551820189e-05
0.7968378547 	0.02352429451 	0.008815524307 	4.250302191e-08 	0.01879115712 	8.728758718e-08 	3.582116821e-05
0.7999243362 	0.0237611302 	0.008894824964 	4.414907966e-08 	0.01895920798 	9.104151033e-08 	3.614151985e-05
0.8029767561 	0.02401098766 	0.008978905421 	4.61867127e-08 	0.01913696914 	9.561061985e-08 	3.648038203e-05
0.8059954902 	0.024272087 	0.009067701618 	4.854985446e-08 	0.01932453706 	1.008386442e-07 	3.683793862e-05
0.8089809102 	0.02454205463 	0.009160597449 	5.116753378e-08 	0.0195207695 	1.06575635e-07 	3.721201219e-05
0.8119333839 	0.0248183134 	0.009256684323 	5.392731039e-08 	0.0197238438 	1.12587775e-07 	3.759912825e-05
0.8148532749 	0.02509842446 	0.009355012286 	5.671668309e-08 	0.01993180647 	1.186425934e-07 	3.79955629e-05
0.8177409426 	0.02538032017 	0.009454726003 	5.944118964e-08 	0.02014287328 	1.245452913e-07 	3.839791489e-05
0.8205967427 	0.02566241263 	0.00955513108 	6.203239538e-08 	0.02035557881 	1.301548677e-07 	3.880339075e-05
0.8234210268 	0.02594359807 	0.009655710465 	6.444837751e-08 	0.02056881795 	1.353851176e-07 	3.920988383e-05
0.8262141429 	0.02622319493 	0.0097561093 	6.666986109e-08 	0.02078181901 	1.401967902e-07 	3.961592305e-05
0.8289764348 	0.02650085199 	0.009856104772 	6.869448345e-08 	0.0209940839 	1.445858436e-07 	4.002055892e-05
0.8317082427 	0.02677645349 	0.009955572723 	7.053095902e-08 	0.02120532078 	1.485713931e-07 	4.042323513e-05
0.8344099031 	0.02705003645 	0.01005445764 	7.219408736e-08 	0.02141538319 	1.521853054e-07 	4.082367246e-05
0.8370817486 	0.02732172636 	0.01015274873 	7.370095809e-08 	0.02162422139 	1.554642212e-07 	4.122177612e-05
0.8397241082 	0.02759169159 	0.01025046243 	7.506836182e-08 	0.02183184676 	1.584440777e-07 	4.161756777e-05
0.8423373074 	0.02786011383 	0.01034763056 	7.631124697e-08 	0.02203830735 	1.611568378e-07 	4.201113904e-05
0.844921668 	0.02812717091 	0.01044429275 	7.74419914e-08 	0.02224367222 	1.636289599e-07 	4.240262156e-05
0.8474775082 	0.02839302806 	0.01054049199 	7.847025204e-08 	0.02244802172 	1.658811084e-07 	4.27921685e-05
0.8500051427 	0.0286578347 	0.01063627209 	7.94031758e-08 	0.02265144181 	1.679286362e-07 	4.317994373e-05
0.8525048829 	0.02892172405 	0.01073167639 	8.024579655e-08 	0.02285402071 	1.697824549e-07 	4.356611541e-05
0.8549770366 	0.02918481415 	0.01082674699 	8.100148852e-08 	0.02305584675 	1.714500091e-07 	4.395085194e-05
0.8574219081 	0.02944720898 	0.01092152432 	8.167239331e-08 	0.02325700685 	1.729361758e-07 	4.433431902e-05
0.8598397987 	0.02970899933 	0.01101604666 	8.225977717e-08 	0.02345758511 	1.742440002e-07 	4.471667691e-05
0.862231006 	0.02997026305 	0.01111034964 	8.2764305e-08 	0.0236576613 	1.753752442e-07 	4.509807774e-05
0.8645958245 	0.03023106477 	0.01120446568 	8.318623694e-08 	0.02385730939 	1.763307676e-07 	4.54786625e-05
0.8669345455 	0.03049145518 	0.0112984233 	8.352556488e-08 	0.02405659585 	1.771107853e-07 	4.585855787e-05
0.8692474569 	0.03075147003 	0.01139224644 	8.378211044e-08 	0.02425557793 	1.777150533e-07 	4.623787302e-05
0.8715348435 	0.03101112903 	0.01148595374 	8.395560338e-08 	0.02445430201 	1.781430275e-07 	4.661669635e-05
0.8737969871 	0.03127043483 	0.01157955786 	8.404575449e-08 	0.02465280197 	1.783940257e-07 	4.699509244e-05
0.8760341663 	0.03152937219 	0.01167306489 	8.405232811e-08 	0.02485109778 	1.784673973e-07 	4.737309937e-05
0.8782466565 	0.03178790744 	0.01176647389 	8.397521044e-08 	0.02504919432 	1.783626804e-07 	4.775072644e-05
0.8804347301 	0.03204598833 	0.01185977651 	8.38144719e-08 	0.02524708048 	1.780797339e-07 	4.812795245e-05
0.8825986568 	0.03230354419 	0.01195295683 	8.357040631e-08 	0.02544472861 	1.77618813e-07 	4.850472472e-05
0.8847387028 	0.03256048666 	0.01204599134 	8.324358902e-08 	0.02564209437 	1.769806952e-07 	4.888095873e-05
0.8868551318 	0.03281671064 	0.01213884912 	8.283488992e-08 	0.02583911701 	1.761667147e-07 	4.925653864e-05
0.8889482045 	0.03307209567 	0.01223149223 	8.234562257e-08 	0.02603572009 	1.751790981e-07 	4.963131874e-05
0.8910181784 	0.03332650766 	0.01232387622 	8.177765339e-08 	0.02623181255 	1.740216224e-07 	5.000512548e-05
0.8930653087 	0.03357980103 	0.01241595085 	8.113332524e-08 	0.02642729012 	1.726993523e-07 	5.037776006e-05
0.8950898473 	0.03383182086 	0.01250766086 	8.041530225e-08 	0.026622037 	1.712178909e-07 	5.074900174e-05
0.8970920436 	0.03408240518 	0.01259894691 	7.962641764e-08 	0.0268159279 	1.695831982e-07 	5.111861169e-05
0.8990721441 	0.03433138727 	0.01268974657 	7.876965551e-08 	0.02700883022 	1.678016236e-07 	5.148633711e-05
0.9010303927 	0.03457859803 	0.01277999535 	7.784808344e-08 	0.02720060622 	1.658797781e-07 	5.185191547e-05
0.9029670306 	0.03482386826 	0.01286962764 	7.686475544e-08 	0.02739111528 	1.638243167e-07 	5.221507869e-05
0.9048822962 	0.0350670308 	0.01295857773 	7.58226178e-08 	0.02758021599 	1.616417144e-07 	5.257555721e-05
0.9067764254 	0.03530792242 	0.01304678066 	7.472443238e-08 	0.02776776812 	1.593380763e-07 	5.29330837e-05
0.9086496514 	0.0355463855 	0.01313417299 	7.35727252e-08 	0.0279536344 	1.569190033e-07 	5.328739649e-05
0.910502205 	0.03578226949 	0.01322069353 	7.236976549e-08 	0.02813768208 	1.54389525e-07 	5.36382425e-05
0.9123343142 	0.03601543202 	0.0133062839 	7.111757682e-08 	0.02831978417 	1.517541048e-07 	5.398537971e-05
0.9141462048 	0.03624573978 	0.01339088894 	6.981797968e-08 	0.02849982054 	1.490167167e-07 	5.432857906e-05
0.9159380997 	0.03647306911 	0.01347445708 	6.847266226e-08 	0.02867767859 	1.461809861e-07 	5.466762593e-05
0.9177102197 	0.03669730635 	0.01355694053 	6.708327356e-08 	0.02885325382 	1.43250384e-07 	5.500232112e-05
0.9194627831 	0.03691834797 	0.01363829541 	6.565153188e-08 	0.02902645008 	1.402284581e-07 	5.533248135e-05
0.9211960055 	0.03713610053 	0.01371848178 	6.417934013e-08 	0.02919717968 	1.371190839e-07 	5.565793941e-05
0.9229101006 	0.03735048041 	0.01379746355 	6.266889948e-08 	0.02936536325 	1.339267152e-07 	5.597854404e-05
0.9246052793 	0.0375614135 	0.01387520842 	6.112281278e-08 	0.02953092955 	1.306566176e-07 	5.629415942e-05
0.9262817504 	0.03776883469 	0.01395168767 	5.954417031e-08 	0.0296938151 	1.273150666e-07 	5.660466454e-05
0.9279397204 	0.03797268734 	0.01402687597 	5.793661165e-08 	0.02985396375 	1.23909496e-07 	5.690995239e-05
0.9295793934 	0.03817292271 	0.01410075118 	5.630435935e-08 	0.03001132621 	1.204485875e-07 	5.720992898e-05
0.9312009714 	0.03836949926 	0.01417329404 	5.465222196e-08 	0.03016585951 	1.169422944e-07 	5.75045124e-05
0.9328046541 	0.03856238205 	0.01424448798 	5.298556598e-08 	0.03031752644 	1.13401797e-07 	5.779363171e-05
0.9343906389 	0.03875154203 	0.01431431882 	5.131025801e-08 	0.03046629497 	1.098393937e-07 	5.807722588e-05
0.9359591211 	0.03893695533 	0.01438277452 	4.963258047e-08 	0.03061213773 	1.062683309e-07 	5.835524272e-05
0.937510294 	0.03911860266 	0.01444984489 	4.795912494e-08 	0.03075503143 	1.027025837e-07 	5.862763783e-05