0.4709558481 	3.12838794e-06 	-2.379619758e-08 	4.368764276e-13 	3.122183789e-06 	-4.085859759e-11 	5.951750068e-09
0.4709558481 	3.12838794e-06 	-2.379619758e-08 	4.368764276e-13 	3.122183789e-06 	-4.085859759e-11 	5.951750068e-09
0.4711314108 	3.515212767e-05 	-1.041690893e-06 	1.909558132e-11 	3.504072034e-05 	-4.58418818e-10 	6.679735203e-08
0.4713069734 	0.00019653908 	-1.342557582e-05 	2.442227194e-10 	0.0001948052809 	-2.542773751e-09 	3.713530087e-07
0.471482536 	0.0006584910094 	-8.074975282e-05 	1.437267875e-09 	0.0006425196122 	-8.320181568e-09 	1.22482096e-06
0.4716580986 	0.001637856854 	-0.0003033604449 	5.168840044e-09 	0.001550858343 	-1.97048686e-08 	2.956367041e-06
0.4718336613 	0.003343210945 	-0.0008161081579 	1.297672016e-08 	0.003035313636 	-3.72647658e-08 	5.786151413e-06
0.4720092239 	0.005866936193 	-0.00170492274 	2.473796008e-08 	0.005092680632 	-5.945830023e-08 	9.708064722e-06
0.4721847865 	0.009086916257 	-0.002934983398 	3.832054628e-08 	0.007590122265 	-8.322847759e-08 	1.44688826e-05
0.4723603491 	0.01270492309 	-0.004370601652 	5.116320278e-08 	0.01032046179 	-1.055639628e-07 	1.96736686e-05
0.4725359118 	0.01639616426 	-0.00585711884 	6.179201675e-08 	0.01308102315 	-1.246844733e-07 	2.493606581e-05
0.4727114744 	0.01992642287 	-0.00728470076 	7.008140597e-08 	0.01572253086 	-1.400622953e-07 	2.997151367e-05
0.472887037 	0.02314508291 	-0.00853763659 	7.420650239e-08 	0.01818364011 	-1.528841589e-07 	3.466307193e-05
0.4730625996 	0.02602729456 	-0.009605428531 	7.680798593e-08 	0.02044130383 	-1.634149416e-07 	3.896680646e-05
0.4732381623 	0.0286185131 	-0.01056155959 	8.054130537e-08 	0.02247594092 	-1.713494919e-07 	4.284539027e-05
0.4734137249 	0.03093236956 	-0.01141549671 	8.341477924e-08 	0.02429307714 	-1.774529908e-07 	4.630935694e-05
0.4735892875 	0.03298811243 	-0.01217394963 	8.558797645e-08 	0.02590698428 	-1.820647403e-07 	4.938591251e-05
0.4737648501 	0.03480975617 	-0.01284596189 	8.722307533e-08 	0.02733689798 	-1.855292109e-07 	5.211172544e-05
0.4739404128 	0.03642252054 	-0.01344089084 	8.842838021e-08 	0.02860269739 	-1.880745434e-07 	5.452469093e-05
0.4741159754 	0.03785077263 	-0.01396776396 	8.929386267e-08 	0.02972351463 	-1.898874659e-07 	5.666128011e-05
0.474291538 	0.03911698258 	-0.01443483596 	8.987358091e-08 	0.03071699575 	-1.911134622e-07 	5.855513125e-05
0.4744671006 	0.04024130188 	-0.01484936925 	9.022644219e-08 	0.03159897313 	-1.918647848e-07 	6.023642526e-05
0.4746426632 	0.04124148964 	-0.01521797358 	9.04054374e-08 	0.03238339996 	-1.922271966e-07 	6.173176082e-05
0.4748182259 	0.04213301853 	-0.01554651146 	9.043249687e-08 	0.03308243264 	-1.922666811e-07 	6.306431141e-05
0.4749937885 	0.04292928528 	-0.01583990247 	9.033216913e-08 	0.03370659679 	-1.92034957e-07 	6.425414174e-05
0.4751693511 	0.04364186094 	-0.01610240498 	9.012368998e-08 	0.03426498381 	-1.915727355e-07 	6.531858261e-05
0.4753449137 	0.04428073083 	-0.01633769855 	8.982229024e-08 	0.03476543972 	-1.909123419e-07 	6.627259066e-05
0.4755204764 	0.04485451666 	-0.01654896284 	8.944017422e-08 	0.0352147397 	-1.900797241e-07 	6.71290813e-05
0.475696039 	0.04537067524 	-0.01673894742 	8.898723773e-08 	0.03561873996 	-1.890959481e-07 	6.789921808e-05
0.4758716016 	0.0458356718 	-0.01691002979 	8.847158868e-08 	0.03598250307 	-1.879782961e-07 	6.859265167e-05
0.4760471642 	0.04625512949 	-0.01706429629 	8.789999567e-08 	0.03631047131 	-1.867412231e-07 	6.921785029e-05
0.4762227269 	0.04668374241 	-0.01722188978 	8.718858649e-08 	0.03664546651 	-1.852033884e-07 	6.985644425e-05
0.4764955107 	0.04715420223 	-0.01739476068 	8.621524729e-08 	0.03701286524 	-1.831015004e-07 	7.055680834e-05
0.4767734216 	0.04760388156 	-0.01755981477 	8.503249557e-08 	0.03736355587 	-1.805495823e-07 	7.122532215e-05
0.4770565557 	0.04799316261 	-0.01770253446 	8.373008872e-08 	0.03766668932 	-1.777414643e-07 	7.180317875e-05
0.4773450114 	0.04832867162 	-0.01782538596 	8.231160032e-08 	0.03792751511 	-1.746847878e-07 	7.23003852e-05
0.4776388886 	0.04861611237 	-0.01793046232 	8.077902238e-08 	0.0381504879 	-1.713838099e-07 	7.272543331e-05
0.4779382892 	0.04886037447 	-0.01801956621 	7.913309765e-08 	0.03833944421 	-1.67840117e-07 	7.308563656e-05
0.4782433171 	0.04906564951 	-0.01809424562 	7.737355631e-08 	0.03849767849 	-1.640531352e-07 	7.338727508e-05
0.4785540779 	0.049235537 	-0.01815582963 	7.549929241e-08 	0.03862801931 	-1.600205089e-07 	7.36357409e-05
0.4788706795 	0.0493731352 	-0.0182054621 	7.350850765e-08 	0.03873290094 	-1.557384084e-07 	7.383567444e-05
0.4791932316 	0.04948111737 	-0.01824412998 	7.13988159e-08 	0.03881442376 	-1.512017528e-07 	7.39910796e-05
0.4795218461 	0.04956179513 	-0.01827268674 	6.916731579e-08 	0.0388744041 	-1.464043647e-07 	7.41054188e-05
0.4798566368 	0.04961717108 	-0.01829187179 	6.681063934e-08 	0.0389144155 	-1.413390735e-07 	7.418169165e-05
0.48019772 	0.0496489825 	-0.0183023266 	6.432498276e-08 	0.0389358231 	-1.359977814e-07 	7.422250048e-05
0.4805452138 	0.04965873778 	-0.01830460816 	6.170612383e-08 	0.0389398122 	-1.303715005e-07 	7.423010481e-05
0.4808992388 	0.04964774686 	-0.01829920019 	5.894942956e-08 	0.03892741221 	-1.244503691e-07 	7.420646699e-05
0.4812599177 	0.04961714678 	-0.01828652259 	5.604985685e-08 	0.03889951673 	-1.182236534e-07 	7.415329044e-05
0.4816273755 	0.04956792317 	-0.01826693938 	5.300194807e-08 	0.03885690038 	-1.116797389e-07 	7.407205185e-05
0.4820017397 	0.04950092844 	-0.0182407654 	4.979982325e-08 	0.03880023318 	-1.048061144e-07 	7.396402841e-05
0.48238314 	0.04941689718 	-0.018208272 	4.643717026e-08 	0.03873009256 	-9.758935149e-08 	7.383032089e-05
0.4827717088 	0.04931645923 	-0.01816969187 	4.290723393e-08 	0.03864697371 	-9.001508304e-08 	7.367187326e-05
0.4831675807 	0.04920015086 	-0.01812522319 	3.920280526e-08 	0.03855129834 	-8.206798119e-08 	7.348948941e-05
0.4835708931 	0.0490684243 	-0.01807503312 	3.531621151e-08 	0.03844342222 	-7.373173788e-08 	7.328384755e-05
0.4839817856 	0.04892165596 	-0.01801926087 	3.123930807e-08 	0.03832364162 	-6.49890494e-08 	7.305551244e-05
0.4844004009 	0.04876015345 	-0.01795802028 	2.696347304e-08 	0.03819219888 	-5.582160686e-08 	7.280494604e-05
0.4848268841 	0.04858416162 	-0.0178914021 	2.247960539e-08 	0.03804928718 	-4.621009462e-08 	7.253251662e-05
0.485261383 	0.04839386786 	-0.0178194759 	1.777812765e-08 	0.03789505475 	-3.613419872e-08 	7.223850673e-05
0.4857040484 	0.04818940663 	-0.01774229182 	1.284899422e-08 	0.03772960844 	-2.557262718e-08 	7.192312009e-05
0.4861550336 	0.04797086344 	-0.01765988201 	7.681706091e-09 	0.03755301694 	-1.450314455e-08 	7.158648761e-05
0.4866144951 	0.04773827832 	-0.01757226196 	2.26533326e-09 	0.03736531355 	-2.902622657e-09 	7.122867278e-05
0.4870825921 	0.04749164892 	-0.01747943165 	-3.411454179e-09 	0.03716649863 	9.25288999e-09 	7.084967629e-05
0.487559487 	0.04723093321 	-0.01738137657 	-9.360345292e-09 	0.03695654185 	2.198807828e-08 	7.044944031e-05
0.4880453452 	0.04695605196 	-0.01727806867 	-1.559333687e-08 	0.03673538418 	3.532824796e-08 	7.002785231e-05
0.4885403351 	0.04666689101 	-0.01716946722 	-2.212267039e-08 	0.03650293969 	4.929918851e-08 	6.958474852e-05
0.4890446283 	0.0463633033 	-0.01705551958 	-2.896075644e-08 	0.03625909734 	6.392700955e-08 	6.911991722e-05
0.4895583997 	0.04604511089 	-0.01693616198 	-3.612008606e-08 	0.03600372252 	7.923794986e-08 	6.863310184e-05
0.4900818274 	0.04571210686 	-0.01681132025 	-4.361312854e-08 	0.03573665868 	9.525815785e-08 	6.812400394e-05
0.4906150929 	0.04536405716 	-0.01668091053 	-5.145221567e-08 	0.03545772888 	1.120134436e-07 	6.759228622e-05
0.4911583811 	0.04500070258 	-0.01654484002 	-5.96494127e-08 	0.03516673735 	1.295290035e-07 	6.703757547e-05
0.4917118805 	0.04462176063 	-0.0164030077 	-6.821637722e-08 	0.03486347107 	1.478291203e-07 	6.645946567e-05
0.4922757829 	0.04422692766 	-0.01625530514 	-7.716420756e-08 	0.03454770152 	1.669368423e-07 	6.585752113e-05
0.4928502838 	0.04381588094 	-0.01610161729 	-8.650328289e-08 	0.03421918633 	1.868736483e-07 	6.523127987e-05
0.4934355824 	0.04338828089 	-0.01594182333 	-9.624309744e-08 	0.03387767115 	2.076591023e-07 	6.458025703e-05
0.4940318817 	0.04294377337 	-0.01577579756 	-1.06392091e-07 	0.03352289152 	2.293105047e-07 	6.390394845e-05
0.4946393885 	0.04248199192 	-0.01560341023 	-1.169574767e-07 	0.0331545747 	2.518425377e-07 	6.320183422e-05
0.4952583133 	0.04200255986 	-0.01542452839 	-1.279450674e-07 	0.03277244148 	2.752669044e-07 	6.247338209e-05
0.4958888709 	0.04150509208 	-0.01523901659 	-1.393591013e-07 	0.03237620772 	2.995919541e-07 	6.171805042e-05
0.4965312797 	0.04098919618 	-0.01504673738 	-1.512020753e-07 	0.03196558549 	3.248222974e-07 	6.093529032e-05
0.4971857627 	0.04045447278 	-0.01484755153 	-1.634746037e-07 	0.03154028349 	3.509584421e-07 	6.01245465e-05
0.4978525466 	0.03990051464 	-0.01464131772 	-1.761753393e-07 	0.03110000661 	3.779965254e-07 	5.92852564e-05
0.4985318627 	0.03932690452 	-0.01442789183 	-1.89301004e-07 	0.03064445426 	4.059282714e-07 	5.841684701e-05
0.4992239466 	0.0387332119 	-0.01420712563 	-2.028465541e-07 	0.03017331772 	4.34741291e-07 	5.751872982e-05
0.4999290382 	0.03811898978 	-0.0139788654 	-2.168053943e-07 	0.02968627693 	4.644196458e-07 	5.659029471e-05
0.5006473819 	0.03748377349 	-0.01374295109 	-2.311692686e-07 	0.02918299853 	4.94944009e-07 	5.56309062e-05
0.501379227 	0.0368270863 	-0.01349921775 	-2.459269181e-07 	0.02866313838 	5.262895537e-07 	5.463990826e-05
0.502124827 	0.03614845921 	-0.01324750208 	-2.610597514e-07 	0.02812635465 	5.58417744e-07 	5.361664929e-05
0.5028844406 	0.03544747748 	-0.01298765864 	-2.76531602e-07 	0.02757234145 	5.912554386e-07 	5.256054615e-05
0.5036583311 	0.03472387234 	-0.01271959268 	-2.922684056e-07 	0.02700089718 	6.246518172e-07 	5.147121454e-05
0.5044467669 	0.03397768426 	-0.01244331878 	-3.081247346e-07 	0.02641204727 	6.583059617e-07 	5.034870295e-05
0.5052500214 	0.03320953056 	-0.01215904894 	-3.238449899e-07 	0.02580622933 	6.916814531e-07 	4.919384557e-05
0.506068373 	0.03231940105 	-0.01182981215 	-3.407050715e-07 	0.0251046311 	7.2749233e-07 	4.785640435e-05
0.507324668 	0.03120903472 	-0.01141947101 	-3.576629389e-07 	0.02423033493 	7.63456996e-07 	4.618975285e-05
0.5085949819 	0.02999579416 	-0.01097162167 	-3.693225466e-07 	0.02327628939 	7.880514508e-07 	4.437107689e-05
0.5098794711 	0.02880213047 	-0.01053149618 	-3.731064014e-07 	0.02233875088 	7.958620128e-07 	4.258386791e-05
0.5111782938 	0.02764741602 	-0.01010590758 	-3.702068071e-07 	0.02143211757 	7.895691154e-07 	4.085557284e-05
0.5124916099 	0.02654697438 	-0.009700858893 	-3.611662791e-07 	0.02056909324 	7.705293088e-07 	3.92104086e-05
0.5138195812 	0.02550966681 	-0.009320018445 	-3.48137462e-07 	0.01975762021 	7.431129964e-07 	3.766351546e-05
0.5151623712 	0.02450622131 	-0.008915622976 	-3.987400851e-07 	0.01900873653 	6.990852545e-07 	3.623593504e-05
0.5165201452 	0.02352342311 	-0.008481147446 	-4.365149955e-07 	0.01831416075 	6.660613807e-07 	3.491188055e-05
0.5178930705 	0.02258231479 	-0.008063403821 	-4.16623518e-07 	0.01765530468 	6.49941784e-07 	3.365591775e-05
0.5192813161 	0.02168205848 	-0.007659866138 	-4.189176252e-07 	0.01703317892 	6.240601321e-07 	3.246997314e-05
0.520685053 	0.02081973276 	-0.007263033043 	-4.225833266e-07 	0.01645083889 	5.941666948e-07 	3.135987119e-05
0.522104454 	0.01999679376 	-0.006873388099 	-4.239918691e-07 	0.01591006079 	5.594670467e-07 	3.032899784e-05
0.523539694 	0.01921531897 	-0.006492072612 	-4.231880477e-07 	0.01541160088 	5.219260829e-07 	2.93787947e-05
0.5249909497 	0.01847749266 	-0.006120233305 	-4.199170505e-07 	0.01495566164 	4.819831786e-07 	2.850964781e-05
0.5264583998 	0.01778536296 	-0.005758920737 	-4.143051816e-07 	0.01454215825 	4.401699853e-07 	2.77213954e-05
0.527942225 	0.01714067776 	-0.005409007576 	-4.066396066e-07 	0.01417064552 	3.970553478e-07 	2.701318888e-05
0.5294426081 	0.01654476836 	-0.005071185408 	-3.972213589e-07 	0.01384028489 	3.532403366e-07 	2.638342972e-05
0.5309597337 	0.01599846349 	-0.004745974312 	-3.863193865e-07 	0.01354985464 	3.093260028e-07 	2.582978892e-05
0.5324937889 	0.01550205849 	-0.004433746749 	-3.741592789e-07 	0.01329779324 	2.658589578e-07 	2.534928984e-05
0.5340449624 	0.0150553719 	-0.00413481233 	-3.60674385e-07 	0.01308229484 	2.232911397e-07 	2.493848999e-05
0.5356134452 	0.01465802686 	-0.003849742562 	-3.456114894e-07 	0.01290143656 	1.817526172e-07 	2.459372386e-05
0.5371994306 	0.0143091386 	-0.003578349554 	-3.311392029e-07 	0.01275368519 	1.406748858e-07 	2.431206868e-05
0.5388031139 	0.01400651384 	-0.003318685701 	-3.191216454e-07 	0.0126376617 	1.007358983e-07 	2.409089566e-05
0.5404246925 	0.01374704647 	-0.003069161665 	-3.077168944e-07 	0.012550792 	6.418940592e-08 	2.392529786e-05
0.5420643661 	0.01352731588 	-0.002829453889 	-2.96129842e-07 	0.01248941964 	3.195043212e-08 	2.380830509e-05
0.5437223366 	0.0133436297 	-0.002599074731 	-2.851658533e-07 	0.01244998434 	3.652504539e-09 	2.373313044e-05
0.5453988083 	0.01319234078 	-0.002377212054 	-2.749680455e-07 	0.01242938223 	-2.110659267e-08 	2.36938571e-05
0.5470939875 	0.01307007767 	-0.00216308675 	-2.655230269e-07 	0.01242490574 	-4.270218704e-08 	2.368532367e-05
0.5488080831 	0.01297376143 	-0.0019559759 	-2.568042539e-07 	0.01243419589 	-6.147414202e-08 	2.370303328e-05
0.5505413061 	0.01290060309 	-0.001755214815 	-2.487753928e-07 	0.01245520049 	-7.774059378e-08 	2.374307387e-05
0.5522938699 	0.01284809344 	-0.001560196571 	-2.413956176e-07 	0.01248614099 	-9.179458315e-08 	2.380205508e-05
0.5540659904 	0.0128139882 	-0.001370369496 	-2.34621952e-07 	0.01252548054 	-1.039026371e-07 	2.387704718e-05
0.5558578859 	0.01279629018 	-0.001185234003 	-2.284108006e-07 	0.01257189444 	-1.143049219e-07 	2.396552497e-05
0.5576697768 	0.01279322967 	-0.001004339116 	-2.227189994e-07 	0.01262424353 	-1.23216221e-07 	2.40653169e-05
0.5595018865 	0.01280324409 	-0.000827278873 	-2.175045492e-07 	0.01268155017 	-1.308272842e-07 	2.417455928e-05
0.5613544406 	0.01282495755 	-0.0006536887624 	-2.127270895e-07 	0.01274297683 	-1.373065583e-07 	2.429165556e-05
0.563227667 	0.01285716115 	-0.0004832422392 	-2.08348175e-07 	0.01280780689 	-1.428018386e-07 	2.441523967e-05
0.5651217966 	0.01289879398 	-0.0003156474772 	-2.043320453e-07 	0.01287543104 	-1.474462858e-07 	2.45441501e-05
0.5670370626 	0.01294892629 	-0.0001506476063 	-2.00615727e-07 	0.01294532082 	-1.51342579e-07 	2.467737944e-05
0.5689737009 	0.01300674415 	1.19715115e-05 	-1.972015461e-07 	0.01301703207 	-1.545856124e-07 	2.481408103e-05
0.5709319499 	0.01307152871 	0.0001724254542 	-1.941255517e-07 	0.0130901959 	-1.572767824e-07 	2.495355162e-05
0.5729120508 	0.01314265143 	0.0003309346485 	-1.912931593e-07 	0.01316447809 	-1.594840582e-07 	2.509515411e-05
0.5749142474 	0.01321956269 	0.0004876517123 	-1.886432553e-07 	0.01323960467 	-1.612663667e-07 	2.523836625e-05
0.5769387863 	0.01330177424 	0.0006426963361 	-1.861887321e-07 	0.01331534751 	-1.626800966e-07 	2.538275315e-05
0.5789859169 	0.01338885532 	0.0007961949122 	-1.839137106e-07 	0.01339150029 	-1.637707717e-07 	2.552792153e-05
0.5810558911 	0.01348042319 	0.0009482580136 	-1.817974501e-07 	0.01346789481 	-1.645795577e-07 	2.567355072e-05
0.583148964 	0.01357613674 	0.001098979594 	-1.798187903e-07 	0.01354438735 	-1.651389772e-07 	2.581936677e-05
0.5852653933 	0.01367569036 	0.001248439855 	-1.779623044e-07 	0.01362085342 	-1.654793297e-07 	2.596513233e-05
0.5874054395 	0.01377880884 	0.001396707746 	-1.762133202e-07 	0.01369718779 	-1.65626096e-07 	2.611064687e-05
0.5895693664 	0.01388524284 	0.001543841596 	-1.745579447e-07 	0.0137733007 	-1.656007644e-07 	2.625573922e-05
0.5917574402 	0.0139947651 	0.001689889953 	-1.729831576e-07 	0.01384911544 	-1.654217714e-07 	2.640026319e-05
0.5939699306 	0.01410716694 	0.001834892387 	-1.714767524e-07 	0.0139245665 	-1.65104865e-07 	2.654409389e-05
0.5962071099 	0.01422225544 	0.001978880232 	-1.700272651e-07 	0.01399959789 	-1.646634544e-07 	2.668712456e-05
0.5984692536 	0.01433985083 	0.002121877259 	-1.686238975e-07 	0.01407416165 	-1.641089257e-07 	2.682926381e-05
0.6007566404 	0.01445978435 	0.002263900287 	-1.672564449e-07 	0.01414821671 	-1.634509169e-07 	2.697043335e-05
0.6030695519 	0.01458189634 	0.002404959736 	-1.659152295e-07 	0.01422172783 	-1.626975525e-07 	2.711056597e-05
0.6054082729 	0.0147060346 	0.002545060121 	-1.645910416e-07 	0.01429466466 	-1.618556446e-07 	2.724960385e-05
0.6077730914 	0.01483205299 	0.002684200516 	-1.632750876e-07 	0.01436700107 	-1.609308645e-07 	2.738749715e-05
0.6101642987 	0.01495981019 	0.002822374967 	-1.619589459e-07 	0.01443871442 	-1.599278915e-07 	2.752420272e-05
0.6125821893 	0.01508916869 	0.002959572879 	-1.606345284e-07 	0.01450978505 	-1.588505393e-07 	2.76596831e-05
0.6150270608 	0.0152199939 	0.003095779378 	-1.592940504e-07 	0.01458019578 	-1.577018665e-07 	2.779390551e-05
0.6174992144 	0.01535215337 	0.003230975646 	-1.579300055e-07 	0.01464993151 	-1.564842707e-07 	2.792684119e-05
0.6199989545 	0.01548551621 	0.00336513924 	-1.565351477e-07 	0.01471897885 	-1.551995716e-07 	2.805846462e-05
0.622526589 	0.01561995257 	0.003498244398 	-1.551024787e-07 	0.01478732586 	-1.538490823e-07 	2.818875302e-05
0.625082429 	0.01575533322 	0.003630262333 	-1.536252417e-07 	0.01485496174 	-1.524336729e-07 	2.831768579e-05
0.6276667894 	0.01589152925 	0.003761161517 	-1.520969193e-07 	0.01492187663 	-1.509538267e-07 	2.844524418e-05
0.6302799884 	0.01602841184 	0.003890907966 	-1.505112378e-07 	0.01498806145 	-1.494096893e-07 	2.857141084e-05
0.6329223478 	0.01616585215 	0.004019465513 	-1.488621751e-07 	0.0150535077 	-1.47801115e-07 	2.869616959e-05
0.6355941931 	0.01630372119 	0.004146796083 	-1.47143974e-07 	0.01511820739 	-1.46127707e-07 	2.881950517e-05
0.6382958531 	0.01644188991 	0.004272859971 	-1.45351159e-07 	0.01518215287 	-1.443888554e-07 	2.894140303e-05
0.6410276607 	0.01658022918 	0.004397616113 	-1.434785568e-07 	0.01524533681 	-1.425837733e-07 	2.906184919e-05
0.6437899523 	0.01671860998 	0.004521022367 	-1.415213215e-07 	0.01530775213 	-1.407115294e-07 	2.918083013e-05
0.646583068 	0.01685690359 	0.004643035781 	-1.394749617e-07 	0.01536939193 	-1.3877108e-07 	2.929833273e-05
0.6494073518 	0.01699498176 	0.004763612881 	-1.373353715e-07 	0.01543024954 	-1.367612996e-07 	2.941434424e-05
0.6522631514 	0.01713271708 	0.004882709937 	-1.350988636e-07 	0.01549031847 	-1.346810102e-07 	2.952885231e-05
0.6551508186 	0.01726998322 	0.005000283247 	-1.327622053e-07 	0.01554959245 	-1.325290099e-07 	2.9641845e-05
0.658070709 	0.01740665534 	0.005116289406 	-1.303226562e-07 	0.0156080655 	-1.303041007e-07 	2.975331088e-05
0.6610231822 	0.01754261046 	0.005230685572 	-1.277780077e-07 	0.01566573196 	-1.280051159e-07 	2.986323917e-05
0.6640086017 	0.01767772783 	0.00534342973 	-1.25126624e-07 	0.01572258657 	-1.25630946e-07 	2.997161987e-05
0.6670273351 	0.01781188939 	0.005454480942 	-1.223674844e-07 	0.0157786246 	-1.23180565e-07 	3.007844393e-05
0.6700797543 	0.01794498017 	0.005563799585 	-1.195002261e-07 	0.01583384194 	-1.206530547e-07 	3.018370352e-05
0.6731662352 	0.01807688874 	0.005671347571 	-1.165251872e-07 	0.01588823524 	-1.180476287e-07 	3.028739227e-05
0.6762871577 	0.01820750759 	0.005777088552 	-1.134434503e-07 	0.01594180206 	-1.153636551e-07 	3.038950553e-05
0.6794429063 	0.01833673359 	0.005880988097 	-1.102568849e-07 	0.01599454107 	-1.126006771e-07 	3.049004073e-05
0.6826338695 	0.0184644683 	0.005983013842 	-1.069681888e-07 	0.01604645218 	-1.097584337e-07 	3.058899774e-05
0.6858604404 	0.01859061841 	0.00608313561 	-1.03580928e-07 	0.01609753681 	-1.068368769e-07 	3.068637923e-05
0.6891230163 	0.018715096 	0.006181325489 	-1.000995736e-07 	0.01614779806 	-1.038361881e-07 	3.078219114e-05
0.6924219988 	0.01883781883 	0.006277557879 	-9.652953487e-08 	0.01619724098 	-1.007567926e-07 	3.087644309e-05
0.6957577944 	0.01895871061 	0.00637180948 	-9.287718716e-08 	0.01624587282 	-9.759937145e-08 	3.09691489e-05
0.6991308138 	0.01907770118 	0.006464059238 	-8.91498926e-08 	0.0162937033 	-9.436487242e-08 	3.106032709e-05
0.7025414724 	0.01919472661 	0.006554288238 	-8.535601138e-08 	0.0163407449 	-9.105451855e-08 	3.115000146e-05
0.7059901901 	0.01930972933 	0.00664247953 	-8.150490079e-08 	0.01638701318 	-8.766981581e-08 	3.123820165e-05
0.7094773917 	0.01942265819 	0.006728617903 	-7.76068983e-08 	0.01643252706 	-8.421255984e-08 	3.132496376e-05
0.7130035066 	0.01953346838 	0.006812689587 	-7.367328438e-08 	0.01647730922 	-8.068484252e-08 	3.141033101e-05
0.7165689691 	0.01964212147 	0.00689468189 	-6.971622022e-08 	0.01652138642 	-7.70890592e-08 	3.14943544e-05
0.7201742182 	0.01974858529 	0.006974582768 	-6.574865444e-08 	0.01656478988 	-7.342791723e-08 	3.157709345e-05
0.7238196978 	0.01985283386 	0.007052380348 	-6.178419118e-08 	0.01660755572 	-6.970444452e-08 	3.165861703e-05
0.727505857 	0.01995484735 	0.00712806246 	-5.783691574e-08 	0.01664972545 	-6.592201039e-08 	3.173900425e-05
0.7312331497 	0.02005461235 	0.007201616358 	-5.392114164e-08 	0.01669134588 	-6.2084344e-08 	3.181834437e-05
0.7350020349 	0.020151871 	0.00727284719 	-5.006093424e-08 	0.01673236017 	-5.820598203e-08 	3.1896529e-05
0.7387709215 	0.02024586448 	0.007341196196 	-4.630058992e-08 	0.01677249319 	-5.432465476e-08 	3.19730337e-05
0.7424982157 	0.02033594001 	0.007406187291 	-4.268027532e-08 	0.01681150382 	-5.047806424e-08 	3.204739879e-05
0.7461843763 	0.02042205421 	0.007467789831 	-3.921402331e-08 	0.01684939998 	-4.668092235e-08 	3.211963941e-05
0.7498298574 	0.02050441473 	0.007526152147 	-3.590308623e-08 	0.01688629105 	-4.293738116e-08 	3.218996404e-05
0.7534351078 	0.02058322345 	0.007581412995 	-3.274638613e-08 	0.01692228142 	-3.925126987e-08 	3.22585717e-05
0.7570005716 	0.0206586765 	0.007633702086 	-2.974057404e-08 	0.01695747102 	-3.562609167e-08 	3.232565285e-05
0.7605266877 	0.02073096476 	0.007683140991 	-2.688011259e-08 	0.01699195529 	-3.206499999e-08 	3.239138946e-05
0.7640138905 	0.02080027429 	0.007729844105 	-2.415741012e-08 	0.01702582529 	-2.857077751e-08 	3.245595508e-05
0.7674626093 	0.02086678692 	0.007773919644 	-2.156299944e-08 	0.01705916769 	-2.51458049e-08 	3.251951496e-05
0.770873269 	0.02093068065 	0.007815470624 	-1.908575927e-08 	0.01709206493 	-2.179202247e-08 	3.258222624e-05
0.7742462894 	0.02099213018 	0.007854595823 	-1.671317456e-08 	0.01712459527 	-1.851088661e-08 	3.264423812e-05
0.777582086 	0.02105130729 	0.007891390697 	-1.443162978e-08 	0.01715683296 	-1.530332341e-08 	3.270569211e-05
0.7808810695 	0.0211083812 	0.007925948269 	-1.222672332e-08 	0.0171888483 	-1.216968341e-08 	3.276672225e-05
0.7841436462 	0.02116351885 	0.007958359881 	-1.008359813e-08 	0.01722070779 	-9.109707648e-09 	3.282745529e-05
0.787370218 	0.02121688507 	0.007988715797 	-7.987293537e-09 	0.01725247443 	-6.1225093e-09 	3.288801135e-05
0.7905611821 	0.02126864249 	0.008017106313 	-5.92308456e-09 	0.01728420979 	-3.206440648e-09 	3.294850776e-05
0.7937169314 	0.02131895528 	0.008043632667 	-3.876149072e-09 	0.01731598213 	-3.582807496e-10 	3.300907467e-05
0.7968378547 	0.02136800437 	0.00806841292 	-1.829016176e-09 	0.01734780956 	2.425928511e-09 	3.30697466e-05
0.7999243362 	0.02141606642 	0.008091716357 	2.357760537e-10 	0.01737960816 	5.12635829e-09 	3.313036357e-05
0.8029767561 	0.02146412219 	0.008115104021 	2.424810216e-09 	0.01741103052 	7.746175894e-09 	3.319026331e-05
0.8059954902 	0.02151259632 	0.008138595213 	5.112344928e-09 	0.01744190259 	1.024545529e-08 	3.324911406e-05
0.8089809102 	0.02155961814 	0.008157277922 	7.326620756e-09 	0.01747311352 	1.287229961e-08 	3.330861076e-05
0.8119333839 	0.02160581383 	0.008171737947 	8.690871407e-09 	0.01750456599 	1.573572683e-08 	3.336856791e-05
0.8148532749 	0.02165321149 	0.008186190942 	1.008231133e-08 	0.01753555641 	1.865229004e-08 	3.342764428e-05
0.8177409426 	0.02170163732 	0.008200688636 	1.150050608e-08 	0.01756629343 	2.162603066e-08 	3.348623757e-05
0.8205967427 	0.02175093942 	0.008215272977 	1.294173578e-08 	0.01759694722 	2.465363405e-08 	3.354467221e-05
0.8234210268 	0.02180099351 	0.00823000616 	1.440967115e-08 	0.01762772051 	2.774774923e-08 	3.360333466e-05
0.8262141429 	0.02185170167 	0.008244918534 	1.590193701e-08 	0.01765873109 	3.090549149e-08 	3.366244945e-05
0.8289764348 	0.02190298957 	0.008260032836 	1.741543005e-08 	0.0176900693 	3.412026938e-08 	3.372218878e-05
0.8317082427 	0.02195480203 	0.008275367904 	1.894743958e-08 	0.01772180869 	3.738459335e-08 	3.378269288e-05
0.8344099031 	0.02200709929 	0.00829093996 	2.049624621e-08 	0.01775401068 	4.069193283e-08 	3.384407883e-05
0.8370817486 	0.0220598546 	0.008306762889 	2.206137308e-08 	0.01778672609 	4.403784194e-08 	3.390644349e-05
0.8397241082 	0.02211305322 	0.008322848248 	2.364365318e-08 	0.01781999562 	4.742056511e-08 	3.396986446e-05
0.8423373074 	0.02216669245 	0.008339205247 	2.524512919e-08 	0.0178538499 	5.084122528e-08 	3.403440013e-05
0.844921668 	0.0222207824 	0.008355840949 	2.686885501e-08 	0.0178883099 	5.430365632e-08 	3.410009048e-05
0.8474775082 	0.02227534693 	0.008372760789 	2.851866083e-08 	0.01792338817 	5.781396812e-08 	3.416695941e-05
0.8500051427 	0.02233042449 	0.008389969397 	3.019891215e-08 	0.01795909083 	6.138007442e-08 	3.42350186e-05
0.8525048829 	0.02238606858 	0.008407471653 	3.191432592e-08 	0.01799542039 	6.501130755e-08 	3.430427283e-05
0.8549770366 	0.02244234752 	0.008425273866 	3.366983886e-08 	0.01803237906 	6.871813269e-08 	3.437472632e-05
0.8574219081 	0.0224993435 	0.008443384948 	3.547052319e-08 	0.01806997228 	7.251195644e-08 	3.444638945e-05
0.8598397987 	0.02255715096 	0.008461817504 	3.73215338e-08 	0.01810821229 	7.640498351e-08 	3.451928555e-05
0.862231006 	0.02261587423 	0.008480588741 	3.922806454e-08 	0.01814712135 	8.041005419e-08 	3.459345703e-05
0.8645958245 	0.02267562493 	0.008499721128 	4.119529365e-08 	0.01818673447 	8.454039991e-08 	3.466897063e-05
0.8669345455 	0.02273651905 	0.008519242774 	4.32283056e-08 	0.01822710134 	8.880928083e-08 	3.474592112e-05
0.8692474569 	0.02279867438 	0.008539187501 	4.533198905e-08 	0.01826828747 	9.32295103e-08 	3.482443332e-05
0.8715348435 	0.02286220841 	0.008559594596 	4.751092232e-08 	0.01831037412 	9.781291565e-08 	3.490466219e-05
0.8737969871 	0.02292723709 	0.00858050828 	4.976926766e-08 	0.01835345732 	1.025698202e-07 	3.498679073e-05
0.8760341663 	0.02299387461 	0.008601976941 	5.211070053e-08 	0.01839764576 	1.075086491e-07 	3.507102617e-05
0.8782466565 	0.02306223432 	0.008624052206 	5.453839801e-08 	0.01844305798 	1.126357562e-07 	3.51575945e-05
0.8804347301 	0.02313243078 	0.008646787976 	5.705510325e-08 	0.01848981905 	1.1795554e-07 	3.524673409e-05
0.8825986568 	0.02320458275 	0.00867023953 	5.966326988e-08 	0.01853805713 	1.234708712e-07 	3.533868928e-05
0.8847387028 	0.02327881689 	0.008694462857 	6.236527678e-08 	0.01858790047 	1.291838009e-07 	3.543370454e-05
0.8868551318 	0.02335527189 	0.008719514305 	6.516368997e-08 	0.0186394752 	1.350964707e-07 	3.55320203e-05
0.8889482045 	0.02343410258 	0.008745450674 	6.806154011e-08 	0.0186929043 	1.412121119e-07 	3.563387101e-05
0.8910181784 	0.02351548384 	0.008772329785 	7.106258016e-08 	0.01874830809 	1.47536004e-07 	3.573948604e-05
0.8930653087 	0.02359961393 	0.008800211541 	7.417149063e-08 	0.01880580624 	1.540762732e-07 	3.584909349e-05
0.8950898473 	0.02368671707 	0.008829159435 	7.739400677e-08 	0.01886552125 	1.608444283e-07 	3.596292691e-05
0.8970920436 	0.02377704511 	0.008859242413 	8.07369523e-08 	0.01892758334 	1.678555702e-07 	3.608123451e-05
0.8990721441 	0.02387087832 	0.008890536954 	8.420817542e-08 	0.01899213615 	1.751282462e-07 	3.620429009e-05
0.9010303927 	0.02396852543 	0.008923129232 	8.781639382e-08 	0.01905934296 	1.826839638e-07 	3.633240495e-05
0.9029670306 	0.02407032298 	0.008957117174 	9.157096527e-08 	0.01912939288 	1.90546415e-07 	3.646593957e-05
0.9048822962 	0.02417663428 	0.008992612268 	9.548160943e-08 	0.01920250644 	1.987405039e-07 	3.660531433e-05
0.9067764254 	0.02428784836 	0.009029740974 	9.955811343e-08 	0.01927894005 	2.072913021e-07 	3.675101804e-05
0.9086496514 	0.02440437892 	0.009068645642 	1.038100568e-07 	0.01935898911 	2.162230759e-07 	3.690361379e-05
0.910502205 	0.02452666362 	0.009109484864 	1.08246587e-07 	0.01944298929 	2.25558519e-07 	3.706374148e-05
0.9123343142 	0.02465516373 	0.009152433267 	1.12876261e-07 	0.0195313162 	2.353182752e-07 	3.723211713e-05
0.9141462048 	0.02479036402 	0.009197680782 	1.177069453e-07 	0.01962438336 	2.455207457e-07 	3.7409529e-05
0.9159380997 	0.0249327727 	0.009245431478 	1.22745733e-07 	0.01972263886 	2.56182064e-07 	3.759683129e-05
0.9177102197 	0.0250829212 	0.009295902063 	1.279988174e-07 	0.01982656111 	2.673160381e-07 	3.779493598e-05
0.9194627831 	0.02524136346 	0.009349320182 	1.334712551e-07 	0.01993665405 	2.789338473e-07 	3.800480373e-05
0.9211960055 	0.02540867437 	0.00940592258 	1.391665822e-07 	0.02005344223 	2.910433775e-07 	3.822743446e-05
0.9229101006 	0.02558544733 	0.009465953216 	1.450862941e-07 	0.02017746588 	3.036482522e-07 	3.846385801e-05
0.9246052793 	0.0257722904 	0.009529661307 	1.512291907e-07 	0.02030927623 	3.167466398e-07 	3.871512516e-05
0.9262817504 	0.02596982109 	0.009597299278 	1.575905261e-07 	0.02044943084 	3.303297666e-07 	3.898229881e-05
0.9279397204 	0.02617865949 	0.009669120419 	1.641603086e-07 	0.02059848871 	3.443786667e-07 	3.926644453e-05
0.9295793934 	0.02639941932 	0.009745376297 	1.709275928e-07 	0.02075700498 	3.588735763e-07 	3.956862061e-05
0.9312009714 	0.02663269724 	0.009826314051 	1.778663854e-07 	0.02092552573 	3.737638118e-07 	3.988986799e-05
0.9328046541 	0.02687906007 	0.009912170959 	1.849399295e-07 	0.02110457643 	3.889731439e-07 	4.023118839e-05
0.9343906389 	0.02713903305 	0.01000316944 	1.921126262e-07 	0.02129465072 	4.044266746e-07 	4.059352281e-05