1.4326613e-19 	0.0035310077 	-2.3980814e-16 	-8.7163883e-23 	5.4058449e-19 	3.4147869e-31 	-7.4511101e-24
0.010869565 	0.0027214462 	-1.3548295e-05 	1.5045493e-09 	0.0028244506 	-4.2179054e-06 	0.001493885
0.02173913 	0.0027254525 	-2.6879903e-05 	1.1697254e-09 	0.002811725 	-4.9979658e-06 	0.0013999934
0.032608696 	0.0027445987 	-3.9983444e-05 	1.1779784e-09 	0.0028423406 	-2.3796998e-06 	0.0012952506
0.043478261 	0.0027794237 	-5.2677182e-05 	4.3685656e-09 	0.0028748436 	-3.5976977e-06 	0.0012044811
0.054347826 	0.0028238333 	-6.5000498e-05 	2.3279072e-09 	0.0029180886 	-2.5107863e-08 	0.0010488391
0.065217391 	0.0028801992 	-7.7572665e-05 	3.6035465e-08 	0.0029725977 	-3.5197177e-07 	0.00019918883
0.076086957 	0.0029328357 	-8.7629314e-05 	2.5382632e-09 	0.0030259674 	-3.8425623e-07 	0.00093520199
0.086956522 	0.0029939163 	-9.7732269e-05 	3.7840273e-08 	0.0030859205 	-5.0413892e-06 	0.00085669437
0.097826087 	0.0030569166 	-0.00010711959 	3.9255763e-08 	0.0031476043 	-3.4043165e-06 	0.00077851688
0.10869565 	0.0031218593 	-0.00011587711 	3.9740796e-08 	0.0032097529 	-3.1080193e-07 	3.5293503e-05
0.11956522 	0.0031846379 	-0.00012332465 	6.9106836e-08 	0.0032719307 	-4.1284953e-06 	0.00060141897
0.13043478 	0.0032465653 	-0.00013003882 	7.2203963e-08 	0.0033318174 	-3.1088758e-06 	0.00052137929
0.14130435 	0.0033068541 	-0.00013593928 	2.4527906e-08 	0.0033897831 	-1.0560946e-06 	0.00042653374
0.15217391 	0.0033627974 	-0.00014048696 	1.9069233e-07 	0.0034431244 	-6.1857879e-06 	0.00034574818
0.16304348 	0.0034176268 	-0.000144636 	1.5123875e-08 	0.0034948141 	-1.0675816e-07 	4.7573157e-05
0.17391304 	0.0034653754 	-0.00014702651 	2.5520041e-07 	0.0035398703 	-6.4787698e-06 	0.00017285706
0.18478261 	0.0035124846 	-0.00014921996 	1.8040276e-08 	0.0035838369 	-3.7049956e-07 	8.7373789e-05
0.19565217 	0.0035519284 	-0.00014957302 	3.2960602e-07 	0.0036198203 	-6.7692359e-06 	9.7239915e-06
0.20652174 	0.003591366 	-0.00014994499 	3.449941e-09 	0.0036560291 	-2.308913e-08 	5.2106172e-05
0.2173913 	0.0036221733 	-0.00014828542 	4.0918028e-07 	0.0036834894 	-6.9897069e-06 	0.00017661444
0.22826087 	0.0036529492 	-0.00014660991 	4.6633136e-08 	0.0037108313 	-7.9659741e-07 	0.00025651221
0.23913043 	0.0036767777 	-0.00014322687 	3.3260205e-07 	0.0037310412 	-4.8320381e-06 	0.00033533668
0.25 	0.0036988564 	-0.00013940213 	1.8781221e-07 	0.0037494714 	-2.7285333e-06 	0.00040905365
0.26086957 	0.0037174177 	-0.00013465155 	1.4382418e-07 	0.0037643057 	-1.8076069e-06 	0.00048417091
0.27173913 	0.0037314838 	-0.00012865308 	4.3584453e-07 	0.0037746069 	-5.4777688e-06 	0.00055113464
0.2826087 	0.0037452857 	-0.00012251711 	2.2150924e-08 	0.0037840604 	-1.4343448e-07 	0.00032670159
0.29347826 	0.0037533501 	-0.00011474273 	3.6805228e-07 	0.0037888858 	-4.0529782e-06 	0.00068174413
0.30434783 	0.0037606354 	-0.00010660141 	2.9256987e-07 	0.0037923949 	-3.2217687e-06 	0.00074153345
0.31521739 	0.0037664824 	-9.7904122e-05 	2.544337e-08 	0.0037937488 	-1.6493807e-07 	0.00045097572
0.32608696 	0.0037687789 	-8.7886879e-05 	5.0600932e-07 	0.0037930236 	-4.9253573e-06 	0.00085307588
0.33695652 	0.003770953 	-7.7692013e-05 	2.2626793e-07 	0.0037915118 	-2.2024306e-06 	0.00090546582
0.34782609 	0.0037715919 	-6.6764724e-05 	2.3661808e-08 	0.0037877748 	-1.5512624e-07 	0.00060848024
0.35869565 	0.0037705853 	-5.4854063e-05 	5.2450812e-07 	0.0037839178 	-4.5416124e-06 	0.0009986517
0.36956522 	0.003769574 	-4.276313e-05 	2.6663988e-07 	0.0037794073 	-2.3087822e-06 	0.0010436372
0.38043478 	0.0037677073 	-2.990506e-05 	5.132759e-08 	0.0037724554 	-3.4536004e-07 	0.00026725097
0.39130435 	0.003765165 	-1.656068e-05 	3.9762492e-07 	0.003768202 	-3.076808e-06 	0.0011207175
0.40217391 	0.0037629351 	-2.7917489e-06 	4.3592767e-07 	0.0037627436 	-3.3731933e-06 	0.001158513
0.41304348 	0.0037605429 	1.1408032e-05 	3.4956528e-08 	0.0037559178 	-2.4647191e-07 	0.00056795196
0.42391304 	0.0037576482 	2.6036419e-05 	1.1231675e-07 	0.003751155 	-7.7961459e-07 	0.0012229438
0.43478261 	0.0037559872 	4.1215753e-05 	7.4455866e-07 	0.0037466098 	-5.1681409e-06 	0.0012539307
0.44565217 	0.0037543261 	5.6395087e-05 	1.4547803e-07 	0.0037420647 	-1.0097941e-06 	0.0012849175
0.45652174 	0.003752756 	7.2514225e-05 	4.7481846e-08 	0.003735765 	-3.6130575e-07 	0.00031338351
0.4673913 	0.0037519162 	8.8210173e-05 	2.9603521e-07 	0.003734279 	-1.8848183e-06 	0.0013345787
0.47826087 	0.00375224 	0.00010423335 	5.8546219e-07 	0.0037321668 	-3.727563e-06 	0.0013592853
0.48913043 	0.0037525638 	0.00012025653 	4.716337e-09 	0.0037300546 	-3.0028293e-08 	0.0013839919
0.5 	0.0037536333 	0.00013725635 	3.1459582e-08 	0.0037272862 	-2.6910102e-07 	0.00058963992
0.51086957 	0.003755733 	0.00015402289 	3.4365854e-07 	0.0037288311 	-1.9931856e-06 	0.0014247376
0.52173913 	0.0037588796 	0.00017077418 	4.6527264e-07 	0.0037299859 	-2.6985353e-06 	0.0014439671
0.5326087 	0.0037622413 	0.00018758951 	1.0317795e-08 	0.0037307361 	-1.0428934e-07 	0.0011150166
0.54347826 	0.0037664756 	0.00020506557 	1.6443915e-08 	0.0037327933 	-1.6621044e-07 	0.00092770209
0.55434783 	0.0037722038 	0.00022263588 	4.2597796e-07 	0.0037379437 	-2.2294628e-06 	0.0014987286
0.56521739 	0.0037785529 	0.00024007582 	2.4802512e-07 	0.0037427331 	-1.2981018e-06 	0.0015135436
0.57608696 	0.003785544 	0.00025745302 	2.5452355e-08 	0.003746081 	-3.2241385e-07 	0.00034919946
0.58695652 	0.0037932239 	0.00027548397 	8.4464786e-08 	0.0037547176 	-4.1202749e-07 	0.0015484119
0.59782609 	0.0038025887 	0.000293121 	4.4264475e-07 	0.003762995 	-2.1592645e-06 	0.0015597998
0.60869565 	0.003812112 	0.00031070923 	5.3007265e-09 	0.0037707905 	-9.1119361e-08 	0.001209258
0.61956522 	0.0038224817 	0.0003285577 	6.3386818e-09 	0.0037802262 	-1.089618e-07 	0.0011572024
0.63043478 	0.0038342657 	0.00034636154 	4.277169e-07 	0.003792189 	-1.9663685e-06 	0.0016020354
0.64130435 	0.003846362 	0.00036402828 	8.2960401e-09 	0.0038036792 	-3.8139859e-08 	0.0016107598
0.65217391 	0.0038593436 	0.00038165374 	6.6079179e-09 	0.0038149379 	-1.748845e-07 	0.00088051727
0.66304348 	0.0038734822 	0.00039948773 	3.5000407e-07 	0.0038303142 	-1.5287672e-06 	0.0016405295
0.67391304 	0.0038880527 	0.00041706806 	1.7179809e-10 	0.0038446763 	-9.1516043e-09 	0.0016056695
0.68478261 	0.0039034394 	0.00043461595 	2.161438e-09 	0.0038593228 	-1.1513951e-07 	0.0011428592
0.69565217 	0.0039199774 	0.000452222 	3.3691317e-07 	0.0038771373 	-1.4091917e-06 	0.0016756874
0.70652174 	0.0039368716 	0.00046948353 	2.7951465e-10 	0.0038930738 	-1.4603423e-07 	0.00098325237
0.7173913 	0.0039545578 	0.00048708399 	4.7733273e-08 	0.0039127043 	-1.931618e-07 	0.0017040698
0.72826087 	0.0039732063 	0.00050429404 	1.4629341e-07 	0.0039320422 	-5.9200423e-07 	0.0017078641
0.73913043 	0.0039921311 	0.00052114062 	-3.3717118e-09 	0.0039492283 	-2.7213895e-07 	0.0003553698
0.75 	0.0040120077 	0.0005385183 	2.3794536e-07 	0.0039727023 	-9.4455044e-07 	0.0017344558
0.76086957 	0.004032178 	0.00055524176 	-3.5826629e-09 	0.0039924577 	-1.4826015e-07 	0.00096353149
0.77173913 	0.0040529092 	0.00057223795 	8.7883262e-08 	0.0040159331 	-3.482439e-07 	0.0017598973
0.7826087 	0.0040741285 	0.00058885156 	1.1821566e-08 	0.0040384241 	-4.6843809e-08 	0.0017619931
0.79347826 	0.0040954485 	0.0006053435 	1.2324355e-08 	0.0040612195 	-4.9624816e-08 	0.0017837448
0.80434783 	0.004117329 	0.00062161103 	4.9165041e-08 	0.0040845629 	-1.9796629e-07 	0.0017852775
0.81521739 	0.0041390432 	0.0006377449 	-4.8756012e-10 	0.0041077567 	-1.1952655e-08 	0.0017363201
0.82608696 	0.0041612648 	0.00065364945 	3.6704018e-08 	0.0041316976 	-1.5309362e-07 	0.0018068621
0.83695652 	0.0041831578 	0.00066934954 	2.0612963e-08 	0.0041552912 	-8.9592165e-08 	0.0018258741
0.84782609 	0.0042055567 	0.00068482696 	-1.5318952e-09 	0.0041789569 	-2.9930567e-08 	0.0016294421
0.85869565 	0.0042276678 	0.0007001899 	7.7355466e-08 	0.0042031534 	-3.550858e-07 	0.0018442735
0.86956522 	0.0042501052 	0.00071482371 	-1.2310201e-08 	0.0042241372 	-2.2378217e-07 	0.00022644664
0.88043478 	0.0042730453 	0.00073009356 	7.247343e-08 	0.0042517947 	-3.3556095e-07 	0.0018612551
0.89130435 	0.0042961644 	0.00074505576 	1.2288792e-08 	0.0042764878 	-6.0700589e-08 	0.001877109
0.90217391 	0.0043205545 	0.00075893611 	-8.4185004e-09 	0.0042998959 	-1.3667164e-07 	0.00059891269
0.91304348 	0.0043463296 	0.00077359052 	4.4642403e-08 	0.0043295305 	-1.8276333e-07 	0.0018928124
0.92391304 	0.0043733688 	0.00078876521 	3.7108192e-08 	0.004357904 	-2.4171874e-07 	0.0019089275
0.93478261 	0.0044013621 	0.00080049671 	9.341057e-09 	0.0043871937 	-3.1595005e-08 	0.001922424
0.94565217 	0.0044352357 	0.0008147958 	4.1412976e-08 	0.0044224583 	-1.3085726e-07 	0.0019340169
0.95652174 	0.004470734 	0.00082733417 	-5.216098e-09 	0.0044566961 	-5.6846822e-08 	0.0005258013
0.9673913 	0.0045058418 	0.00083902884 	2.0635946e-09 	0.0044962108 	-2.6853381e-08 	0.0019635791
0.97826087 	0.0045168083 	0.00084471959 	-4.0928908e-09 	0.0045064184 	-2.711144e-08 	0.00053005749
0.98913043 	0.0042576598 	0.00080459505 	-4.1347047e-09 	0.0042495777 	-2.241788e-08 	0.00043352422
