0.3814433 	9.2285827e-05 	-1.032579e-05 	-4.1324798e-07 	8.6575116e-05 	3.2188819e-06 	5.4887768e-06
0.39175258 	0.0087013356 	-0.0015221346 	1.4791438e-07 	0.0080182131 	-2.113282e-06 	0.00017458327
0.40206186 	0.0083502206 	-0.001277909 	-1.5322871e-08 	0.0081647491 	-1.5132025e-06 	0.0053340883
0.41237113 	0.0085883643 	-0.0010695407 	-1.5181178e-07 	0.0089545234 	-8.4941457e-06 	0.0024422871
0.42268041 	0.0088377985 	-0.00088974766 	-2.4734697e-07 	0.0097023925 	-7.1449407e-06 	0.0033157526
0.43298969 	0.0090076126 	-0.00071043535 	-5.0367668e-07 	0.010301675 	-1.0470414e-05 	0.00071315593
0.44329897 	0.0090988611 	-0.00054399576 	-3.3042428e-07 	0.010767885 	-5.0474933e-06 	0.0028130481
0.45360825 	0.0091225563 	-0.00038410234 	-2.0122734e-07 	0.011117493 	-2.3210533e-06 	0.0035037082
0.46391753 	0.0090894601 	-0.00023166859 	-2.1081554e-07 	0.011367927 	-1.8699581e-06 	0.0029463981
0.4742268 	0.0090108151 	-8.704662e-05 	-4.39989e-07 	0.011535375 	-3.0456619e-06 	0.0013364426
0.48453608 	0.0089054475 	4.8853447e-05 	-3.7411926e-07 	0.011647035 	-2.0443327e-06 	0.0012366239
0.49484536 	0.0087749556 	0.00017588223 	1.1186223e-06 	0.011705587 	-1.5686931e-06 	0.0021789538
0.50515464 	0.0086175284 	0.00029552228 	2.2984408e-06 	0.01170884 	-4.7919727e-06 	0.0016135196
0.51546392 	0.0084488335 	0.00040837611 	4.2822016e-07 	0.011680325 	-1.2326435e-06 	0.0010951547
0.5257732 	0.0082697261 	0.000512062 	1.0189835e-06 	0.011614916 	-2.9331732e-06 	0.00065120048
0.53608247 	0.0080815692 	0.00060731588 	2.4492393e-06 	0.011518127 	-9.4385934e-06 	0.00023597889
0.54639175 	0.0078920257 	0.00069854761 	9.4443348e-08 	0.011409897 	-4.8589033e-07 	0.00019265448
0.55670103 	0.0076989133 	0.00077799977 	1.903594e-06 	0.011269395 	-9.7935749e-06 	0.00053333251
0.56701031 	0.0075082321 	0.00085434072 	4.0078377e-07 	0.011122823 	-2.816259e-06 	0.00083856285
0.57731959 	0.0073193059 	0.00092068985 	1.0843992e-06 	0.010954606 	-7.6199422e-06 	0.0011201295
0.58762887 	0.0071358293 	0.00098359156 	2.8314181e-07 	0.010781843 	-2.8659454e-06 	0.0013473302
0.59793814 	0.006958289 	0.0010368927 	7.4119781e-07 	0.010594337 	-7.5023626e-06 	0.001571519
0.60824742 	0.0067867774 	0.0010885178 	2.5185575e-08 	0.010406726 	-4.1613239e-07 	0.0017342155
0.6185567 	0.0066279262 	0.0011289092 	5.8962902e-07 	0.010210151 	-9.7422176e-06 	0.0019041862
0.62886598 	0.0064676157 	0.0011678205 	-3.7325579e-07 	0.010003974 	-2.5501708e-07 	0.00046446991
0.63917526 	0.0063355262 	0.0011993418 	2.7460868e-07 	0.0098214068 	-1.0969546e-05 	0.0021376442
0.64948454 	0.0062008241 	0.0012267868 	-8.6266326e-08 	0.0096244136 	6.9459295e-09 	0.001790139
0.65979381 	0.0060838051 	0.0012507406 	-3.5330442e-08 	0.0094429749 	-3.398095e-06 	0.0022924849
0.67010309 	0.0059800618 	0.0012668259 	-6.1807223e-08 	0.0092644186 	-5.9446492e-06 	0.0023667348
0.68041237 	0.0058773546 	0.0012801714 	-2.3613592e-07 	0.0090793322 	3.0042001e-07 	0.00057329289
0.69072165 	0.0057977763 	0.0012913849 	-3.5767407e-07 	0.0089255295 	-8.1420011e-06 	0.0024251976
0.70103093 	0.0057217423 	0.0012976469 	-7.2327599e-09 	0.0087654353 	2.6733793e-08 	0.0023591466
0.71134021 	0.0056529485 	0.001302196 	-5.9982772e-08 	0.0086135161 	-8.0347359e-07 	0.0024444355
0.72164948 	0.0055990778 	0.001301095 	-3.5491419e-07 	0.0084707805 	-4.7541083e-06 	0.0024482918
0.73195876 	0.0055459248 	0.0012975006 	-4.237043e-08 	0.0083249074 	5.6258305e-07 	0.00068832781
0.74226804 	0.005505875 	0.0012941483 	-7.3764532e-07 	0.0082023738 	-7.2723428e-06 	0.0024048956
0.75257732 	0.0054680651 	0.0012859822 	2.0149418e-08 	0.0080706442 	5.6176812e-07 	0.00075460994
0.7628866 	0.0054366593 	0.0012789619 	-5.6779064e-07 	0.0079568635 	-4.6642576e-06 	0.002330253
0.77319588 	0.0054096832 	0.0012682782 	3.3740201e-08 	0.0078382633 	3.0264806e-07 	0.0014240221
0.78350515 	0.0053842884 	0.0012578314 	-5.1319605e-07 	0.0077279975 	-3.798471e-06 	0.0022264481
0.79381443 	0.0053631248 	0.0012451673 	5.0189792e-08 	0.0076154366 	2.9960343e-07 	0.0012985324
0.80412371 	0.0053416759 	0.0012329388 	-6.1396943e-07 	0.0075085126 	-4.3192266e-06 	0.0020971075
0.81443299 	0.0053224543 	0.001218723 	1.2250335e-07 	0.0073951814 	5.798096e-07 	0.00028153338
0.82474227 	0.0053031128 	0.0012061051 	-5.9560663e-07 	0.0072915254 	-4.1354614e-06 	0.001946819
0.83505155 	0.0052830103 	0.0011923533 	3.6214051e-10 	0.0071811487 	1.4671657e-09 	0.0018534046
0.84536082 	0.0052650744 	0.0011787918 	-1.4871577e-07 	0.0070711226 	-1.0478778e-06 	0.0017804424
0.8556701 	0.0052449499 	0.0011653475 	-5.1355305e-07 	0.0069566154 	-3.750958e-06 	0.001684307
0.86597938 	0.0052255227 	0.0011521303 	3.0520692e-08 	0.0068396107 	1.0100968e-07 	0.0012504397
0.87628866 	0.0052075993 	0.0011398699 	-8.4161919e-08 	0.0067217675 	-6.4913085e-07 	0.0015021151
0.88659794 	0.0051906542 	0.0011283204 	-4.1993346e-07 	0.0065983976 	-3.4713428e-06 	0.001401491
0.89690722 	0.0051768595 	0.0011177917 	-2.9940709e-07 	0.0064725495 	-2.7046695e-06 	0.0013013712
0.90721649 	0.005167964 	0.0011087077 	-9.278979e-08 	0.0063446623 	-9.2526018e-07 	0.0012025101
0.91752577 	0.0051669629 	0.0011012674 	2.0484014e-08 	0.0062158371 	5.8600532e-08 	0.00092495567
0.92783505 	0.0051784895 	0.0010967821 	9.0888595e-08 	0.0060894799 	2.6554583e-07 	0.000259682
0.93814433 	0.0052076579 	0.0010948296 	7.2691411e-08 	0.0059731405 	2.2272343e-07 	0.00035684401
0.94845361 	0.0052648305 	0.0010995812 	-9.4816001e-09 	0.0058781463 	-2.1245858e-07 	0.00083381396
0.95876289 	0.0053615103 	0.001106068 	-9.3016913e-09 	0.0058198002 	-8.4654922e-07 	0.00074955555
0.96907216 	0.0055321439 	0.0011233235 	6.1860521e-08 	0.005827842 	4.4930612e-08 	0.00067380351
0.97938144 	0.0058068679 	0.0011512908 	2.6410611e-08 	0.0059567185 	1.5501855e-07 	0.00060028727
0.98969072 	0.0060559741 	0.0011644652 	-1.488889e-07 	0.0060902568 	-1.0407508e-06 	0.00052780603
