4.0776948e-36 	1.0208601 	-6.933162e-14 	-2.5200209e-20
0.010869565 	1.0209795 	-9.7753785e-05 	-6.8624609e-07
0.02173913 	1.0212748 	-0.00039417077 	3.4549634e-07
0.032608696 	1.0217574 	-0.00056224718 	-1.4478937e-08
0.043478261 	1.0224203 	-0.00075241626 	4.604473e-08
0.054347826 	1.0232379 	-0.00092920415 	3.2279625e-07
0.065217391 	1.0242873 	-0.0011151034 	6.5787247e-07
0.076086957 	1.0253071 	-0.0012673987 	5.5106356e-07
0.086956522 	1.0264992 	-0.0014236362 	6.3642575e-08
0.097826087 	1.0278112 	-0.0015751754 	1.5523907e-07
0.10869565 	1.0292088 	-0.0017198192 	1.4150961e-06
0.11956522 	1.0306176 	-0.0018507555 	2.9062191e-07
0.13043478 	1.0321235 	-0.0019769763 	5.7589426e-07
0.14130435 	1.0336667 	-0.0020943161 	1.5456177e-06
0.15217391 	1.0351862 	-0.00220161 	7.5881446e-09
0.16304348 	1.0368026 	-0.0023015262 	2.205109e-06
0.17391304 	1.0383258 	-0.0023912656 	1.2169612e-07
0.18478261 	1.0399467 	-0.0024724844 	2.2339228e-06
0.19565217 	1.0414653 	-0.002546223 	1.2833929e-07
0.20652174 	1.0430538 	-0.0026093116 	2.3013774e-06
0.2173913 	1.0445238 	-0.002667132 	1.8385217e-07
0.22826087 	1.0460498 	-0.0027125858 	2.034742e-06
0.23913043 	1.0474595 	-0.0027542482 	3.8628618e-07
0.25 	1.0488793 	-0.002784932 	1.0822201e-06
0.26086957 	1.0502249 	-0.0028098054 	1.1393375e-06
0.27173913 	1.0515244 	-0.0028298351 	1.8333842e-07
0.2826087 	1.0527794 	-0.0028371689 	1.9007722e-06
0.29347826 	1.0539249 	-0.0028449562 	1.7082063e-07
0.30434783 	1.055049 	-0.0028416201 	4.0824176e-07
0.31521739 	1.0560849 	-0.0028318792 	1.3669992e-06
0.32608696 	1.057043 	-0.0028222025 	9.5882301e-07
0.33695652 	1.0579454 	-0.002801492 	4.7051751e-07
0.34782609 	1.0587507 	-0.0027767807 	1.0712475e-06
0.35869565 	1.059489 	-0.0027522151 	1.379033e-06
0.36956522 	1.0601618 	-0.0027186248 	2.2486812e-07
0.38043478 	1.0607219 	-0.0026801653 	1.0625692e-06
0.39130435 	1.0612279 	-0.0026448821 	6.238459e-07
0.40217391 	1.0616579 	-0.0026009049 	8.643202e-07
0.41304348 	1.061972 	-0.0025518753 	8.4489472e-07
0.42391304 	1.0622363 	-0.0025066691 	2.4544162e-07
0.43478261 	1.0624132 	-0.0024559614 	3.6675356e-06
0.44565217 	1.0625279 	-0.0024018619 	1.7881998e-07
0.45652174 	1.0625215 	-0.0023451626 	6.5070706e-07
0.4673913 	1.0624947 	-0.0022927567 	6.806998e-07
0.47826087 	1.0623593 	-0.0022345935 	2.838983e-06
0.48913043 	1.0621644 	-0.0021752864 	2.214603e-07
0.5 	1.0618706 	-0.0021152365 	3.9726095e-07
0.51086957 	1.0615403 	-0.0020562189 	1.5745691e-06
0.52173913 	1.0611324 	-0.0019948913 	2.313757e-06
0.5326087 	1.0606589 	-0.0019335445 	2.0576233e-07
0.54347826 	1.0600972 	-0.0018719748 	2.0081427e-07
0.55434783 	1.0594683 	-0.001809392 	2.5788589e-06
0.56521739 	1.058799 	-0.0017462148 	9.8305882e-07
0.57608696 	1.0580429 	-0.0016844116 	2.5405447e-07
0.58695652 	1.0572221 	-0.0016224412 	2.3263629e-07
0.59782609 	1.0563167 	-0.0015598244 	2.6439337e-06
0.60869565 	1.0553804 	-0.0014979341 	7.1799802e-08
0.61956522 	1.0543507 	-0.0014372284 	5.8037304e-08
0.63043478 	1.0532347 	-0.0013761005 	2.9123216e-06
0.64130435 	1.05209 	-0.0013152222 	1.3219654e-08
0.65217391 	1.0508398 	-0.0012563329 	4.4296163e-08
0.66304348 	1.0494936 	-0.0011971563 	2.3935899e-06
0.67391304 	1.0481111 	-0.0011383963 	4.0520872e-09
0.68478261 	1.0466155 	-0.0010816583 	8.1238392e-09
0.69565217 	1.0450065 	-0.0010250157 	2.1200194e-06
0.70652174 	1.0433515 	-0.00096939934 	-1.4884569e-08
0.7173913 	1.0415606 	-0.00091516957 	3.0433101e-07
0.72826087 	1.0396577 	-0.00086164139 	8.2746483e-07
0.73913043 	1.0376745 	-0.00080996226 	-5.4391052e-08
0.75 	1.0355094 	-0.00075915522 	1.5916139e-06
0.76086957 	1.0332763 	-0.00070966988 	-5.3357497e-08
0.77173913 	1.0308513 	-0.00066195291 	5.7747091e-07
0.7826087 	1.0283091 	-0.00061529514 	-2.7527977e-09
0.79347826 	1.025584 	-0.00057096177 	8.3471891e-08
0.80434783 	1.0226711 	-0.00052803796 	2.3033466e-07
0.81521739 	1.0195852 	-0.00048711155 	-4.2551537e-09
0.82608696 	1.0162569 	-0.0004480524 	1.6133496e-07
0.83695652 	1.0127074 	-0.00041108143 	1.2637915e-07
0.84782609 	1.0088931 	-0.00037611805 	-2.5649384e-08
0.85869565 	1.004743 	-0.00034346686 	4.4356464e-07
0.86956522 	1.000327 	-0.00031274709 	-1.2893971e-07
0.88043478 	0.99539986 	-0.00028422716 	3.5077313e-07
0.89130435 	0.99008393 	-0.00025750025 	6.5905348e-08
0.90217391 	0.9841599 	-0.00023283739 	-8.4603922e-08
0.91304348 	0.97742657 	-0.00020964879 	1.7659581e-07
0.92391304 	0.96991572 	-0.00018780283 	2.332546e-07
0.93478261 	0.9611759 	-0.00016658037 	5.4707235e-08
0.94565217 	0.94970135 	-0.00014340675 	2.0819681e-07
0.95652174 	0.93557954 	-0.00011946436 	-3.3573572e-08
0.9673913 	0.91545534 	-9.2368404e-05 	3.979601e-08
0.97826087 	0.88248743 	-6.1283327e-05 	-1.1114834e-08
0.98913043 	0.80138749 	-2.6897965e-05 	-4.1594006e-09
