0.46067416 	0.0084677562 	-0.0016246934 	-8.1950401e-09 	0.0087991753 	1.3481345e-07 	0.00012366997
0.47191011 	0.0082700848 	-0.0015511252 	3.4592129e-07 	0.0084570422 	-1.8116207e-06 	0.00050584086
0.48314607 	0.0076438689 	-0.001394112 	4.9913832e-07 	0.0076797698 	-2.4325212e-06 	0.00079768095
0.49438202 	0.0070728276 	-0.0012431988 	9.54527e-07 	0.006974796 	-4.5012079e-06 	0.0010201727
0.50561798 	0.0065676192 	-0.0010990871 	3.4264062e-07 	0.0063533757 	-1.5246988e-06 	0.001147769
0.51685393 	0.0061168463 	-0.00096476686 	1.7925263e-06 	0.0057967919 	-7.714845e-06 	0.0012811362
0.52808989 	0.0057141545 	-0.00083847426 	1.4963534e-06 	0.0052974508 	-6.2609084e-06 	0.0013757177
0.53932584 	0.0053578687 	-0.00071961139 	9.6262306e-07 	0.0048518617 	-3.875337e-06 	0.0014362632
0.5505618 	0.0050466918 	-0.00060764099 	8.5349374e-07 	0.0044571652 	-3.2823808e-06 	0.0014683166
0.56179775 	0.0047790862 	-0.00050179552 	1.1152177e-06 	0.0041106479 	-4.0441549e-06 	0.0014779753
0.57303371 	0.0045528024 	-0.00040148664 	1.6880051e-06 	0.0038092648 	-5.6833086e-06 	0.0014717754
0.58426966 	0.0043646691 	-0.00030608152 	1.0303268e-06 	0.0035494114 	-3.1545391e-06 	0.0014563593
0.59550562 	0.004212187 	-0.00021515347 	4.5942063e-08 	0.003327214 	-1.6295965e-07 	0.0012194545
0.60674157 	0.0040999295 	-0.00012928277 	1.1939466e-07 	0.0031463958 	-4.2982321e-07 	0.00091083878
0.61797753 	0.0040168645 	-4.7316343e-05 	1.1358591e-06 	0.0030051206 	-2.6151628e-06 	0.0014556131
0.62921348 	0.0039588327 	3.1376552e-05 	4.1957074e-07 	0.002891122 	-7.7052535e-07 	0.001436731
0.64044944 	0.0039320804 	0.00010568931 	1.7161229e-07 	0.0028079885 	-6.5647324e-07 	0.00064504553
0.65168539 	0.0039246151 	0.00017705099 	1.3413825e-06 	0.0027602134 	-1.7419508e-06 	0.0014414705
0.66292135 	0.0039371519 	0.00024559379 	1.0466648e-07 	0.0027313425 	-4.1811596e-07 	0.00093031769
0.6741573 	0.0039695322 	0.00031059341 	5.5818003e-07 	0.0027349895 	-3.7462673e-07 	0.0014429791
0.68539326 	0.0040162105 	0.00037374946 	1.9351388e-07 	0.0027576568 	1.2420267e-08 	0.0014546799
0.69662921 	0.0040806727 	0.00043349547 	2.2299887e-07 	0.002805848 	1.4312696e-08 	0.0014455622
0.70786517 	0.0041577768 	0.00049167131 	3.341262e-07 	0.0028738996 	3.0010424e-07 	0.0014710184
0.71910112 	0.004246564 	0.00054641958 	2.3386852e-07 	0.0029610711 	2.1005517e-07 	0.0014525018
0.73033708 	0.0043491883 	0.00060083267 	2.5283041e-07 	0.0030674073 	4.6315006e-07 	0.0014923798
0.74157303 	0.0044615332 	0.00065234513 	2.999656e-07 	0.0031912659 	5.4949514e-07 	0.0014645801
0.75280899 	0.0045878032 	0.00070393128 	2.3862931e-07 	0.0033326712 	6.6655175e-07 	0.0015117457
0.76404494 	0.0047240896 	0.00075396853 	1.8243408e-07 	0.003491943 	5.0958435e-07 	0.0014751203
0.7752809 	0.0048740365 	0.00080356466 	4.425068e-07 	0.0036676795 	1.6322709e-06 	0.0015207937
0.78651685 	0.0050316926 	0.00085174984 	3.2911117e-08 	0.0038556781 	-1.6936963e-07 	0.0010783981
0.79775281 	0.005203604 	0.00090024696 	8.2066096e-07 	0.0040638854 	3.6898163e-06 	0.0015152236
0.80898876 	0.0053834953 	0.00094752337 	4.2011073e-08 	0.004279276 	-2.2236334e-07 	0.00088866793
0.82022472 	0.0055741503 	0.00099521746 	2.8039604e-07 	0.0045150299 	1.458854e-06 	0.0014918257
0.83146067 	0.0057763666 	0.001042495 	5.5281853e-07 	0.0047611363 	3.2111709e-06 	0.0015154872
0.84269663 	0.0059865161 	0.0010894221 	1.4686866e-08 	0.005016874 	-8.3372635e-08 	0.0011746603
0.85393258 	0.0062056674 	0.001136576 	6.178822e-08 	0.0052881865 	3.9038426e-07 	0.0014572589
0.86516854 	0.0064356046 	0.0011838248 	4.4705834e-07 	0.0055702271 	3.0127203e-06 	0.0014566865
0.87640449 	0.0066726747 	0.0012311836 	5.417721e-07 	0.0058619016 	3.8394407e-06 	0.00144556
0.88764045 	0.0069166425 	0.0012786918 	3.1586212e-07 	0.0061631785 	2.3264295e-06 	0.0014233029
0.8988764 	0.0071668093 	0.0013264059 	1.9720185e-07 	0.006473584 	1.500023e-06 	0.0013897467
0.91011236 	0.0074220342 	0.0013742528 	1.7759147e-07 	0.0067922678 	1.3813337e-06 	0.0013450068
0.92134831 	0.0076807764 	0.001422292 	2.4491314e-07 	0.0071180071 	1.9608309e-06 	0.00128943
0.93258427 	0.0079408635 	0.0014701509 	3.9872644e-07 	0.0074490388 	3.2012212e-06 	0.001223447
0.94382022 	0.0081991737 	0.0015176131 	2.4334936e-07 	0.0077826612 	2.0745306e-06 	0.0011476698
0.95505618 	0.0084513239 	0.0015653105 	-4.6354881e-09 	0.0081132106 	-4.4788135e-08 	0.00046599403
0.96629213 	0.0086753289 	0.0016050742 	8.132061e-08 	0.0084244593 	8.9211769e-07 	0.00098609941
0.97752809 	0.0088435928 	0.0016388344 	1.4138938e-08 	0.0086855074 	4.7088731e-07 	0.00088923994
0.98876404 	0.0086896233 	0.0016211947 	-5.3461421e-07 	0.0086256622 	-2.7206359e-06 	0.00075573639
