1.4101108e-19 	0.9553614 	-6.4882531e-14 	-1.271263e-20
0.010869565 	0.95576512 	-0.00027053562 	-3.4072706e-07
0.02173913 	0.95662831 	-0.00085673386 	2.6306257e-07
0.032608696 	0.95803809 	-0.001245719 	1.8712805e-07
0.043478261 	0.95995753 	-0.0016503321 	1.7967225e-07
0.054347826 	0.96230648 	-0.0020345235 	1.1070905e-06
0.065217391 	0.96522755 	-0.0024198729 	9.5608356e-07
0.076086957 	0.96811319 	-0.0027415797 	8.3684362e-07
0.086956522 	0.97141976 	-0.0030585983 	7.2510829e-07
0.097826087 	0.97490636 	-0.0033551757 	1.5069864e-06
0.10869565 	0.97855801 	-0.0036346829 	5.5157284e-07
0.11956522 	0.98236704 	-0.0038833628 	1.3317525e-06
0.13043478 	0.98621771 	-0.0041097839 	2.821129e-06
0.14130435 	0.99015502 	-0.0043209725 	1.2258183e-08
0.15217391 	0.99409786 	-0.0044952693 	5.1800772e-06
0.16304348 	0.99805713 	-0.0046609412 	9.2015481e-07
0.17391304 	1.0019894 	-0.0047917427 	5.5333584e-06
0.18478261 	1.0059037 	-0.0049144068 	1.5612903e-06
0.19565217 	1.0097248 	-0.0050050724 	5.9555543e-06
0.20652174 	1.0135545 	-0.0050890298 	3.6651645e-07
0.2173913 	1.0172006 	-0.0051394817 	7.56833e-06
0.22826087 	1.0208795 	-0.0051872769 	1.1733926e-06
0.23913043 	1.0243165 	-0.0052030804 	7.3841344e-06
0.25 	1.0277148 	-0.0052153279 	1.0292807e-06
0.26086957 	1.0310079 	-0.0052051314 	2.7134618e-06
0.27173913 	1.0340879 	-0.0051824123 	5.4859391e-06
0.2826087 	1.0371819 	-0.0051507303 	1.9049627e-06
0.29347826 	1.0399465 	-0.0051015756 	6.4109559e-06
0.30434783 	1.0426438 	-0.0050482865 	1.602384e-06
0.31521739 	1.045262 	-0.004979538 	1.0747164e-06
0.32608696 	1.0475754 	-0.0049031639 	7.9610217e-06
0.33695652 	1.0498363 	-0.0048237847 	1.8097152e-07
0.34782609 	1.0519599 	-0.0047292371 	1.1528705e-06
0.35869565 	1.053822 	-0.004633258 	7.1291704e-06
0.36956522 	1.0556111 	-0.0045345509 	1.3210328e-07
0.38043478 	1.0572534 	-0.0044223215 	1.818801e-06
0.39130435 	1.0586966 	-0.004313229 	3.9421275e-06
0.40217391 	1.0600029 	-0.0042014558 	1.8292525e-06
0.41304348 	1.0611887 	-0.0040787215 	2.2998708e-06
0.42391304 	1.0622476 	-0.0039604066 	3.2961245e-07
0.43478261 	1.0630996 	-0.0038407156 	5.9845059e-06
0.44565217 	1.0638586 	-0.0037168592 	7.9604651e-07
0.45652174 	1.0644837 	-0.0035883597 	1.774261e-06
0.4673913 	1.0650423 	-0.003465564 	8.5708185e-07
0.47826087 	1.0653932 	-0.0033440018 	3.0774581e-06
0.48913043 	1.0656181 	-0.0032184297 	1.1204167e-06
0.5 	1.065765 	-0.0030907177 	1.389956e-06
0.51086957 	1.0658711 	-0.0029642366 	1.2922186e-06
0.52173913 	1.0658036 	-0.0028432712 	1.3038106e-06
0.5326087 	1.0655813 	-0.0027220248 	1.1881437e-06
0.54347826 	1.0653164 	-0.002596359 	9.8004577e-07
0.55434783 	1.0649889 	-0.0024704892 	2.4327217e-06
0.56521739 	1.0645223 	-0.0023516105 	2.1848406e-07
0.57608696 	1.0639307 	-0.0022352233 	1.4332198e-06
0.58695652 	1.0633052 	-0.0021108945 	2.9620047e-07
0.59782609 	1.062574 	-0.0019939918 	1.5799293e-06
0.60869565 	1.0617125 	-0.0018825346 	7.587844e-07
0.61956522 	1.060789 	-0.001766995 	5.7632074e-07
0.63043478 	1.0597903 	-0.0016525377 	2.6485786e-06
0.64130435 	1.0586602 	-0.0015465021 	4.3595325e-07
0.65217391 	1.0574463 	-0.0014387433 	5.3375743e-07
0.66304348 	1.0561531 	-0.0013297966 	1.969109e-06
0.67391304 	1.0547251 	-0.0012306965 	3.2135254e-07
0.68478261 	1.0532011 	-0.0011296241 	3.2237607e-07
0.69565217 	1.0515811 	-0.0010292819 	1.2464188e-06
0.70652174 	1.0498187 	-0.00093891973 	2.8349565e-07
0.7173913 	1.0479447 	-0.00084360698 	8.3788666e-08
0.72826087 	1.0459467 	-0.00075550709 	2.0749357e-08
0.73913043 	1.0437964 	-0.00067362733 	1.3787779e-07
0.75 	1.0415088 	-0.00058803482 	1.1028548e-06
0.76086957 	1.0390648 	-0.00051439867 	-6.966826e-09
0.77173913 	1.036457 	-0.00043685358 	-5.3654596e-10
0.7826087 	1.0336688 	-0.00037005011 	-7.1909878e-08
0.79347826 	1.0306933 	-0.00030402636 	-4.7738222e-08
0.80434783 	1.027523 	-0.00024404079 	-8.3841282e-08
0.81521739 	1.0241243 	-0.0001886015 	-1.0390731e-07
0.82608696 	1.0204968 	-0.0001382027 	-1.1995794e-07
0.83695652 	1.0166008 	-9.2682512e-05 	-9.3208598e-08
0.84782609 	1.0124259 	-5.4138872e-05 	-2.3840333e-07
0.85869565 	1.0079279 	-1.8686104e-05 	7.4664347e-08
0.86956522 	1.0030909 	6.8268489e-06 	-4.7532762e-07
0.88043478 	0.99780409 	3.0393021e-05 	5.1431735e-09
0.89130435 	0.99203971 	4.4631835e-05 	-1.3210935e-07
0.90217391 	0.98571732 	5.2631696e-05 	-4.2449322e-07
0.91304348 	0.9786717 	5.5703478e-05 	-5.0283183e-08
0.92391304 	0.97079235 	5.1169208e-05 	-1.7473693e-08
0.93478261 	0.96180512 	4.1152993e-05 	-8.7358309e-08
0.94565217 	0.95037767 	2.6410245e-05 	-4.9114392e-08
0.95652174 	0.93640791 	9.8892054e-06 	-2.4178531e-07
0.9673913 	0.91683153 	-5.7056898e-06 	-4.6762304e-08
0.97826087 	0.88467432 	-1.4073037e-05 	-9.0217887e-08
0.98913043 	0.80430784 	-9.8521102e-06 	-2.9112058e-08
