8.2204959e-36 	0.0048551005 	-3.2973447e-16 	-1.1984948e-22 	1.5268178e-18 	1.6519071e-30 	1.7569749e-20
0.010869565 	0.0037163754 	-4.9330973e-05 	1.3657321e-08 	0.0039358668 	-1.4757679e-05 	0.0011271923
0.02173913 	0.0037453765 	-9.7321857e-05 	6.3540837e-09 	0.0039471299 	-9.5320369e-06 	0.0013882296
0.032608696 	0.0038237639 	-0.00014430928 	2.7432258e-09 	0.0040408869 	-1.8516136e-06 	0.0016449339
0.043478261 	0.0039441856 	-0.00018987445 	2.357466e-08 	0.0041588237 	-6.3759106e-06 	0.0019354713
0.054347826 	0.0040918348 	-0.00023381768 	1.2691675e-07 	0.0043034776 	-9.0310453e-07 	0.00081398617
0.065217391 	0.0042671304 	-0.00027779527 	1.7486303e-07 	0.0044778241 	-1.1691931e-06 	0.00081391582
0.076086957 	0.0044274248 	-0.00031351637 	2.058764e-07 	0.0046365547 	-1.3067366e-06 	0.0010090919
0.086956522 	0.0045980413 	-0.00034889517 	1.2934039e-08 	0.0048084636 	-6.1903573e-07 	0.0032187192
0.097826087 	0.0047727334 	-0.00038217171 	2.8509992e-09 	0.0049799767 	-9.3341232e-08 	0.0036182423
0.10869565 	0.0049438097 	-0.00041248174 	4.1381097e-07 	0.0051403581 	-2.4633064e-06 	0.00065376545
0.11956522 	0.0050973121 	-0.00043892744 	1.4977103e-07 	0.0052927772 	-8.7382767e-07 	0.0031396355
0.13043478 	0.0052444891 	-0.00046291812 	1.3631136e-07 	0.0054339106 	-7.9529824e-07 	0.003615431
0.14130435 	0.0053804896 	-0.00048363629 	5.7078125e-07 	0.0055563184 	-3.2770208e-06 	0.0007062423
0.15217391 	0.0054983554 	-0.00050147336 	4.8408847e-08 	0.0056747327 	-7.3741955e-07 	0.0053208478
0.16304348 	0.0056062756 	-0.00051560952 	6.607415e-07 	0.0057640657 	-3.744836e-06 	0.00072370729
0.17391304 	0.005697329 	-0.00052751052 	1.1762901e-07 	0.0058536914 	-6.6040563e-07 	0.0049898409
0.18478261 	0.0057760393 	-0.00053545704 	6.0709178e-07 	0.0059143514 	-3.4084012e-06 	0.0011979045
0.19565217 	0.0058416961 	-0.00054180252 	6.7112245e-08 	0.0059769107 	-3.7491964e-07 	0.0050585136
0.20652174 	0.0058935744 	-0.00054376495 	6.0324902e-07 	0.0060093142 	-3.3700251e-06 	0.00084520532
0.2173913 	0.0059353657 	-0.00054493919 	1.4841333e-07 	0.006048645 	-1.4271469e-06 	0.0052422442
0.22826087 	0.0059634262 	-0.00054123997 	6.1409845e-07 	0.0060555648 	-3.4346795e-06 	0.00029584374
0.23913043 	0.0059840376 	-0.00053758924 	8.9864157e-09 	0.0060739919 	-5.0261336e-08 	0.0048327008
0.25 	0.0059916134 	-0.00052922724 	3.112296e-07 	0.0060651082 	-1.7570824e-06 	0.0022046782
0.26086957 	0.0059930983 	-0.00052003569 	2.2120248e-07 	0.0060567503 	-1.248824e-06 	0.0027619842
0.27173913 	0.0059871633 	-0.00050898392 	8.2845117e-08 	0.0060431276 	-6.5988496e-07 	0.0043933903
0.2826087 	0.0059720475 	-0.00049417244 	4.6791145e-07 	0.0060092692 	-2.6947286e-06 	0.00019963272
0.29347826 	0.0059540085 	-0.00048027339 	1.8235766e-07 	0.0059886399 	-1.3420801e-06 	0.0040541816
0.30434783 	0.0059277725 	-0.00046267429 	8.9573008e-08 	0.0059504902 	-5.3309485e-07 	0.0030793566
0.31521739 	0.0058977304 	-0.00044367098 	2.6618634e-07 	0.0059074411 	-1.5842114e-06 	0.001273524
0.32608696 	0.0058649524 	-0.00042460072 	6.7744498e-07 	0.0058700477 	-4.6415368e-06 	0.0035984924
0.33695652 	0.0058273486 	-0.00040291211 	9.4094875e-08 	0.0058214162 	-5.8773373e-07 	0.0025064367
0.34782609 	0.0057879458 	-0.00038040091 	1.836291e-07 	0.0057715787 	-1.1469809e-06 	0.0014332798
0.35869565 	0.0057466878 	-0.00035766636 	8.3219381e-07 	0.0057257472 	-5.3439476e-06 	0.0031886511
0.36956522 	0.0057026958 	-0.00033318518 	2.5325612e-08 	0.0056731966 	-1.6913813e-07 	0.0027912731
0.38043478 	0.0056580328 	-0.00030753381 	1.8015847e-07 	0.0056175889 	-1.203196e-06 	0.00084974825
0.39130435 	0.0056134935 	-0.00028261404 	6.2297971e-07 	0.0055700674 	-3.7710958e-06 	0.0028270656
0.40217391 	0.005566714 	-0.00025597373 	4.2827546e-07 	0.0055165511 	-2.5924886e-06 	0.0027455239
0.41304348 	0.0055201776 	-0.00022821404 	1.6527485e-07 	0.0054592623 	-1.2089486e-06 	0.00037614874
0.42391304 	0.0054758359 	-0.00020210093 	6.9959612e-08 	0.0054132846 	-4.012586e-07 	0.0025134572
0.43478261 	0.0054297047 	-0.00017398577 	1.2492326e-06 	0.0053617177 	-7.1650683e-06 	0.0024483969
0.44565217 	0.0053836895 	-0.00014578967 	1.122394e-08 	0.0053099348 	-9.3099862e-08 	0.0021914182
0.45652174 	0.0053400798 	-0.00011713095 	8.9083894e-08 	0.0052589208 	-7.3892971e-07 	0.00077269473
0.4673913 	0.0052981819 	-8.9581439e-05 	6.423901e-07 	0.00521548 	-3.5427814e-06 	0.0021952955
0.47826087 	0.0052561844 	-6.1225431e-05 	1.0112884e-06 	0.0051694116 	-5.5772558e-06 	0.0021449455
0.48913043 	0.0052148317 	-3.278378e-05 	2.1524692e-08 	0.0051231699 	-2.1406167e-07 	0.0016064656
0.5 	0.0051764164 	-4.2671407e-06 	4.043611e-08 	0.0050804244 	-4.0213455e-07 	0.0010967397
0.51086957 	0.0051392029 	2.3994076e-05 	8.4408304e-07 	0.0050418961 	-4.4573371e-06 	0.0019469957
0.52173913 	0.0051025945 	5.2346056e-05 	8.5010485e-07 	0.0050024985 	-4.4891363e-06 	0.0019090021
0.5326087 	0.0050673478 	8.0529365e-05 	2.0074877e-08 	0.0049633653 	-2.6283198e-07 	0.0012007412
0.54347826 	0.0050349767 	0.00010882451 	8.8367223e-09 	0.0049294685 	-1.1569549e-07 	0.0015026789
0.55434783 	0.0050042182 	0.00013718891 	1.0456717e-06 	0.0048976647 	-5.2346758e-06 	0.0017615708
0.56521739 	0.0049737531 	0.00016550397 	4.711563e-07 	0.0048656813 	-2.3586279e-06 	0.0017331451
0.57608696 	0.004946689 	0.00019307323 	2.5788727e-08 	0.0048345832 	-5.3473122e-07 	0.00017509593
0.58695652 	0.0049218624 	0.0002209992 	3.7860358e-07 	0.0048119859 	-1.8147858e-06 	0.0016497721
0.59782609 	0.0048989904 	0.00024853467 	8.5812845e-07 	0.0047889603 	-4.1133246e-06 	0.0016284838
0.60869565 	0.0048768451 	0.00027588904 	1.7464234e-09 	0.0047660913 	-1.0703719e-07 	0.0012655256
0.61956522 	0.0048594976 	0.00030267325 	4.5493393e-08 	0.004749908 	-2.0792485e-07 	0.0015684246
0.63043478 	0.0048449086 	0.00032918621 	9.5623243e-07 	0.0047365406 	-4.370404e-06 	0.0015524741
0.64130435 	0.0048303195 	0.00035569917 	7.4453211e-08 	0.0047231732 	-3.4028399e-07 	0.0015365236
0.65217391 	0.0048207564 	0.00038134558 	-8.6122371e-10 	0.0047150548 	-4.770615e-08 	0.0013461742
0.66304348 	0.0048145506 	0.00040672347 	7.939555e-07 	0.0047116046 	-3.4464715e-06 	0.0015005691
0.67391304 	0.0048085306 	0.00043204417 	5.4900536e-08 	0.0047080546 	-2.3831703e-07 	0.0014886352
0.68478261 	0.0048074523 	0.0004564802 	3.594475e-08 	0.0047099108 	-1.4836525e-07 	0.0014772053
0.69565217 	0.0048096941 	0.00048049326 	6.0082048e-07 	0.0047156269 	-2.4799419e-06 	0.0014682924
0.70652174 	0.0048126032 	0.00050423936 	-1.063829e-08 	0.0047210639 	-1.3060152e-07 	0.00094671001
0.7173913 	0.0048202503 	0.00052728026 	2.1843498e-07 	0.0047336344 	-8.6908821e-07 	0.0014579637
0.72826087 	0.0048297382 	0.0005498933 	2.7792356e-07 	0.0047473194 	-1.1057757e-06 	0.0014513461
0.73913043 	0.004841098 	0.00057179933 	-2.0208957e-08 	0.0047614633 	-1.9479302e-07 	0.00067501895
0.75 	0.0048556965 	0.00059323377 	4.4869152e-07 	0.004782169 	-1.7810574e-06 	0.0014505311
0.76086957 	0.0048709183 	0.00061413886 	-1.5614048e-08 	0.0048010317 	-1.3265671e-07 	0.00092287372
0.77173913 	0.0048884368 	0.00063422197 	2.0674739e-07 	0.004824352 	-8.7213157e-07 	0.0014545403
0.7826087 	0.0049065019 	0.00065385158 	5.9586957e-08 	0.0048473062 	-2.5135826e-07 	0.0014509806
0.79347826 	0.0049249468 	0.00067255308 	8.8660982e-08 	0.0048706171 	-4.3526847e-07 	0.0014609499
0.80434783 	0.0049432647 	0.0006906445 	9.0930956e-08 	0.0048938801 	-4.4641258e-07 	0.0014583881
0.81521739 	0.0049604787 	0.00070797732 	5.0562567e-08 	0.0049159425 	-3.2264548e-07 	0.0014675389
0.82608696 	0.0049760604 	0.00072450713 	6.3328949e-08 	0.0049363826 	-4.0410922e-07 	0.0014657225
0.83695652 	0.0049888999 	0.00074022442 	5.549944e-08 	0.004953918 	-5.1280849e-07 	0.0014724779
0.84782609 	0.0049989032 	0.0007552318 	1.0892096e-08 	0.004968573 	-1.0064171e-07 	0.001471211
0.85869565 	0.0050034808 	0.00076919406 	7.0439723e-08 	0.0049775233 	-1.0855771e-06 	0.0014744501
0.86956522 	0.0050046151 	0.00078218552 	-4.4197218e-08 	0.0049802247 	-3.8481685e-07 	8.3262359e-05
0.88043478 	0.0049978634 	0.00079466159 	3.5767829e-08 	0.0049800632 	-1.0365964e-06 	0.0014726388
0.89130435 	0.0049859173 	0.00080628503 	4.3799239e-09 	0.004971694 	-6.1300382e-07 	0.0014672224
0.90217391 	0.0049667947 	0.0008163617 	-2.556128e-08 	0.0049539833 	-2.4181713e-07 	0.00053328788
0.91304348 	0.0049386958 	0.00082620566 	-2.3134097e-10 	0.00493024 	-9.5916628e-07 	0.0014573157
0.92391304 	0.0049050643 	0.00083555101 	-3.980297e-08 	0.0048985189 	-1.4389931e-06 	0.0014445727
0.93478261 	0.0048636519 	0.00084185984 	-1.7674184e-08 	0.0048583384 	-5.9067285e-07 	0.0014307563
0.94565217 	0.0048119603 	0.00084900415 	-3.0979708e-08 	0.0048070489 	-1.1696115e-06 	0.0014194304
0.95652174 	0.0047586127 	0.00085482623 	-1.3306205e-08 	0.0047514049 	-1.3960418e-07 	0.00041589825
0.9673913 	0.0047007753 	0.00085958968 	-1.6881484e-08 	0.0046945557 	-3.3663749e-07 	0.0013898908
0.97826087 	0.0046282848 	0.00085940089 	-5.5991825e-09 	0.0046196528 	-4.9021281e-08 	0.00043113304
0.98913043 	0.004313313 	0.00081442218 	-2.3058183e-09 	0.00430574 	-1.4216076e-08 	0.00054756772
