0.21649485 	5.6113967e-05 	-5.2499015e-06 	-2.1592715e-07 	4.832043e-05 	1.4924988e-06 	1.262063e-05
0.22680412 	0.01197248 	-0.0011711022 	-9.4089877e-10 	0.011443129 	8.5134179e-08 	0.0065847407
0.2371134 	0.012764059 	-0.0012634312 	2.5737373e-07 	0.013931651 	1.2982545e-06 	0.0048356256
0.24742268 	0.011028731 	-0.0011593749 	1.2021878e-07 	0.013244611 	-8.7305618e-07 	0.002647832
0.25773196 	0.0090916606 	-0.001005417 	1.5875454e-06 	0.012065817 	-1.2277344e-05 	0.0010150108
0.26804124 	0.0074827826 	-0.00082519673 	3.3267724e-07 	0.010919049 	-2.4305759e-06 	0.00012489604
0.27835052 	0.006434529 	-0.0006702389 	4.86605e-08 	0.010052661 	2.3077276e-07 	0.00034010858
0.28865979 	0.0056545173 	-0.00053321286 	1.4292725e-07 	0.0092955744 	2.5773273e-06 	0.00049049904
0.29896907 	0.0051184722 	-0.00043130979 	1.1433559e-07 	0.0088167709 	-1.0325404e-06 	0.0014263556
0.30927835 	0.0047027372 	-0.00033421665 	5.3536932e-07 	0.0083179659 	-6.3363547e-06 	0.0017571763
0.31958763 	0.0044002989 	-0.00025869111 	1.5171946e-07 	0.0079503857 	-2.6638503e-06 	0.0020503084
0.32989691 	0.0042795523 	-0.00023375027 	2.4664804e-06 	0.0077472378 	1.5719862e-05 	0.00073157736
0.34020619 	0.0041488383 	-0.00019385399 	2.5176236e-06 	0.0076174017 	1.1127141e-05 	0.0014211416
0.35051546 	0.0040140089 	-0.0001643241 	1.4191796e-07 	0.0074893796 	6.2724504e-07 	0.0028501738
0.36082474 	0.0040239305 	-0.00014888917 	6.0951927e-06 	0.0074767063 	2.0695073e-05 	0.00046707512
0.37113402 	0.0039285592 	-0.00012541705 	1.7564289e-06 	0.0074076574 	4.9799743e-06 	0.0021618535
0.3814433 	0.003915079 	-0.00010353431 	2.6759519e-06 	0.0074059684 	7.5870792e-06 	0.0014779782
0.39175258 	0.0038724866 	-7.9012419e-05 	2.3549364e-06 	0.0073774595 	5.8812807e-06 	0.0013573371
0.40206186 	0.003841469 	-5.617118e-05 	3.4576435e-07 	0.0073740385 	8.6352148e-07 	0.0019258669
0.41237113 	0.0038016357 	-2.9375243e-05 	1.7041525e-06 	0.0073323562 	3.8037504e-06 	0.0011209487
0.42268041 	0.0037622851 	-2.8056631e-06 	5.1780329e-08 	0.0073111025 	-1.2397498e-06 	0.0015980252
0.43298969 	0.0037037655 	2.2742362e-05 	1.1134012e-07 	0.0072412797 	2.2127521e-07 	0.0013423708
0.44329897 	0.0036587269 	5.2320841e-05 	6.3831352e-08 	0.0071946452 	-1.2437583e-06 	0.0011770573
0.45360825 	0.0035971548 	7.839145e-05 	1.9971406e-07 	0.0071154494 	-3.8914415e-06 	0.00099735141
0.46391753 	0.0035463902 	0.00010613878 	2.4196947e-07 	0.0070533057 	4.3169906e-07 	0.00070805265
0.4742268 	0.0034924349 	0.00013087315 	4.9344386e-07 	0.0069863777 	-8.7981419e-06 	0.00066010333
0.48453608 	0.0034418803 	0.00015540219 	3.4248119e-07 	0.0069206968 	5.5892528e-07 	0.00035690915
0.49484536 	0.003402787 	0.00018053311 	4.4043008e-07 	0.0068791866 	-6.1450284e-06 	0.0003759722
0.50515464 	0.003363984 	0.0002052314 	3.8292733e-07 	0.0068348345 	-5.3427306e-06 	0.00025186448
0.51546392 	0.0033308843 	0.00023191663 	1.9501661e-07 	0.0067973866 	-1.5158391e-06 	0.00013444737
0.5257732 	0.0033096518 	0.00026380853 	1.2171459e-06 	0.0067671704 	-9.4607189e-06 	3.5755122e-05
0.53608247 	0.0032876563 	0.00029524966 	4.5590119e-07 	0.0067372799 	-3.5436614e-06 	9.8880868e-05
0.54639175 	0.0032780339 	0.00032903091 	4.8781911e-07 	0.0066984101 	-3.1498928e-06 	0.00019978744
0.55670103 	0.0032861345 	0.00036605195 	1.6204201e-06 	0.006649879 	-1.0463202e-05 	0.00028438763
0.56701031 	0.0032942351 	0.00040307299 	4.0946755e-07 	0.0066013479 	-2.6439697e-06 	0.00036898781
0.57731959 	0.0033158883 	0.00043727524 	3.4631265e-07 	0.0065376512 	-2.3547436e-06 	0.00046304833
0.58762887 	0.0033528084 	0.00047248219 	1.4593932e-06 	0.0064803769 	-9.9231047e-06 	0.00052313245
0.59793814 	0.0033897284 	0.00050768915 	4.8065131e-07 	0.0064231026 	-3.2681757e-06 	0.00058321658
0.60824742 	0.0034286113 	0.00053982709 	3.592701e-08 	0.0063655176 	-2.5657213e-07 	0.00067451754
0.6185567 	0.0034806552 	0.00057007619 	9.2352448e-07 	0.0063277728 	-6.5953344e-06 	0.00071045895
0.62886598 	0.0035326991 	0.0006003253 	4.9506967e-07 	0.0062900279 	-3.5355316e-06 	0.00074640036
0.63917526 	0.0035875745 	0.00062666377 	3.5277963e-07 	0.00624909 	7.0395807e-07 	0.00035979062
0.64948454 	0.0036461903 	0.00065128526 	5.1841505e-07 	0.0062256969 	-4.4199371e-06 	0.00084058397
0.65979381 	0.0037078682 	0.00067573242 	3.286628e-07 	0.0062043045 	-2.8021349e-06 	0.00085414536
0.67010309 	0.0037699013 	0.00069694121 	2.4830696e-07 	0.0061814579 	5.1208815e-07 	0.00048996228
0.68041237 	0.003832022 	0.00071725169 	3.7193466e-07 	0.0061713604 	-3.9600265e-06 	0.00090435265
0.69072165 	0.0038961612 	0.0007374904 	1.4129345e-07 	0.0061616808 	-1.5043659e-06 	0.00089811916
0.70103093 	0.0039584699 	0.00075434517 	3.2248744e-08 	0.0061491493 	-4.9808079e-07 	0.00092544225
0.71134021 	0.0040213665 	0.00077124546 	2.5208606e-07 	0.0061430009 	-3.8934609e-06 	0.00090206753
0.72164948 	0.0040843967 	0.00078794892 	4.2661406e-08 	0.0061363355 	9.5019523e-08 	0.00076744182
0.73195876 	0.0041424166 	0.0008012965 	8.2868901e-08 	0.006126893 	-2.311443e-06 	0.00087542481
0.74226804 	0.0042008774 	0.00081546916 	5.939929e-08 	0.0061199714 	-1.6568106e-06 	0.00083755195
0.75257732 	0.0042559564 	0.00082754955 	6.5148409e-09 	0.0061086472 	-7.5692846e-07 	0.00081808523
0.7628866 	0.0043078163 	0.00083928832 	2.4567149e-08 	0.0060973434 	-2.8543405e-06 	0.00076824665
0.77319588 	0.0043583203 	0.00084997771 	4.5789896e-08 	0.0060828747 	1.0998445e-07 	0.0005420225
0.78350515 	0.0044016256 	0.00085952934 	-5.0538975e-08 	0.006065072 	-3.5813236e-06 	0.00067288492
0.79381443 	0.0044455309 	0.00086861687 	1.1784442e-07 	0.0060444297 	2.9229391e-07 	2.6957601e-05
0.80412371 	0.0044790849 	0.00087618042 	-1.2159031e-07 	0.0060185835 	-3.8282821e-06 	0.00055518965
0.81443299 	0.0045132167 	0.00088344814 	4.9752478e-08 	0.0059898837 	1.2687105e-07 	0.00019202948
0.82474227 	0.0045376023 	0.0008893479 	-1.5564309e-07 	0.0059535629 	-3.505715e-06 	0.00041962714
0.83505155 	0.0045603954 	0.000894804 	-3.7386135e-08 	0.0059139487 	-7.095663e-07 	0.00034753232
0.84536082 	0.004575771 	0.00089927675 	-1.3138247e-07 	0.0058662103 	-2.4935601e-06 	0.00027089254
0.8556701 	0.0045870508 	0.00090308504 	-1.4374018e-07 	0.005812687 	-2.4983985e-06 	0.000192791
0.86597938 	0.0045938804 	0.0009063484 	-3.8198174e-08 	0.005753509 	-6.6393586e-07 	0.00011333103
0.87628866 	0.0045946128 	0.00090880221 	-2.2342862e-07 	0.0056842811 	-3.7620134e-06 	3.1957779e-05
0.88659794 	0.0045926486 	0.00091095433 	-1.3532672e-07 	0.0056099961 	-2.2680259e-06 	6.9820881e-05
0.89690722 	0.0045875908 	0.00091267664 	-7.6438763e-09 	0.0055288114 	-1.2810855e-07 	0.00015036261
0.90721649 	0.0045804745 	0.00091422432 	-1.220126e-07 	0.0054386862 	-2.1263345e-06 	0.0002298673
0.91752577 	0.0045742372 	0.00091559058 	-2.0949437e-07 	0.0053438098 	-3.6636716e-06 	0.00030801111
0.92783505 	0.0045712367 	0.0009171843 	-1.3084741e-07 	0.0052457632 	-2.6036202e-06 	0.00038485285
0.93814433 	0.0045750464 	0.00091927778 	-9.2403096e-08 	0.0051494327 	-1.4400944e-06 	0.00046095421
0.94845361 	0.004591219 	0.00091970169 	-7.1767213e-08 	0.0050604082 	-1.0850772e-06 	0.00053770724
0.95876289 	0.0046323731 	0.00092170478 	-2.4546968e-08 	0.0049825253 	-4.3340846e-07 	0.00061611697
0.96907216 	0.0047056638 	0.00092419389 	-4.4430703e-08 	0.0049409617 	-4.6470997e-07 	0.00069835875
0.97938144 	0.0047983729 	0.00092406311 	2.371234e-08 	0.0049228494 	1.9349047e-07 	0.00023570236
0.98969072 	0.0046700609 	0.00089206262 	-5.4067516e-07 	0.0047000897 	-3.1412907e-06 	0.00084019476
