0.27835052 	0.0077237238 	-0.0012005961 	2.232619e-07 	0.0064864236 	-1.9018753e-06 	0.0044846102
0.28865979 	0.0097379217 	-0.0011881564 	1.2726772e-07 	0.0093504667 	1.8826124e-06 	0.0054880172
0.29896907 	0.010472948 	-0.0010989588 	1.8666261e-07 	0.011165143 	9.9684619e-07 	0.0043033958
0.30927835 	0.010232142 	-0.00096348948 	1.2093131e-06 	0.011708471 	-2.8563551e-08 	0.0028297542
0.31958763 	0.0095831508 	-0.00079696258 	6.8303962e-08 	0.011709004 	-1.6172585e-07 	0.0014469869
0.32989691 	0.0089529219 	-0.00063917111 	1.1919409e-06 	0.011566019 	-3.2615053e-06 	0.00047328166
0.34020619 	0.008327113 	-0.00047641264 	1.2894252e-06 	0.011395168 	-3.8713655e-06 	0.00035888924
0.35051546 	0.0077685197 	-0.00031980985 	3.6929336e-07 	0.011236551 	-1.1711647e-06 	0.0010451386
0.36082474 	0.0072569428 	-0.00017507185 	1.1909459e-07 	0.011065253 	-6.700584e-07 	0.00021848015
0.37113402 	0.0068805721 	-3.7300854e-05 	4.0014747e-08 	0.010923961 	1.6974643e-07 	0.0018177652
0.3814433 	0.0065482121 	8.7888304e-05 	8.950609e-07 	0.010810778 	-4.2857749e-06 	0.0025448429
0.39175258 	0.0062399445 	0.00020367268 	1.8024412e-07 	0.010723816 	-1.0990243e-06 	0.0028439149
0.40206186 	0.0059614455 	0.00028501354 	1.0976485e-06 	0.010430748 	8.3522184e-06 	0.00033774116
0.41237113 	0.0057561388 	0.00038055592 	4.3926123e-07 	0.010432776 	2.505879e-06 	0.0028718867
0.42268041 	0.0055473428 	0.00045039872 	7.4505299e-07 	0.010201654 	4.2503286e-06 	0.0027509641
0.43298969 	0.0053808932 	0.00048729265 	3.2825147e-06 	0.0099611523 	1.4424917e-05 	0.00080086406
0.44329897 	0.0051949386 	0.00056569481 	1.168552e-07 	0.0098494867 	5.1352963e-07 	0.0041226219
0.45360825 	0.0050581276 	0.00057152203 	4.3397157e-06 	0.0096030458 	1.5519513e-05 	0.00027208484
0.46391753 	0.0048834359 	0.0006284904 	5.1274216e-08 	0.0094401299 	-1.4256915e-06 	0.0035566521
0.4742268 	0.0047630575 	0.00063457319 	3.8686948e-06 	0.0092419993 	1.1690164e-05 	0.00049354005
0.48453608 	0.0046089092 	0.00066722428 	7.6265492e-09 	0.0090517912 	-4.0795619e-06 	0.0029555356
0.49484536 	0.0045060518 	0.0006780451 	3.8509028e-06 	0.0088762308 	1.016659e-05 	0.00014681918
0.50515464 	0.0043778547 	0.00069773825 	-1.1601786e-07 	0.0087072556 	-5.7491823e-06 	0.0024491904
0.51546392 	0.0042804781 	0.00071048945 	2.2579975e-06 	0.0085521253 	5.4191199e-06 	0.00077224875
0.5257732 	0.0041858635 	0.00072202941 	-7.3230154e-08 	0.0084204593 	-2.1566933e-06 	0.0020387303
0.53608247 	0.0040920045 	0.00073207914 	-2.3777975e-08 	0.0082810094 	-7.0027956e-07 	0.0018848043
0.54639175 	0.0040274355 	0.00074557241 	9.2860486e-07 	0.0081827513 	2.0759381e-06 	0.0010938623
0.55670103 	0.0039637903 	0.00075536317 	-2.879908e-07 	0.0080620901 	-8.4974175e-06 	0.0015944656
0.56701031 	0.0039144608 	0.0007673966 	1.0369353e-06 	0.0079424061 	2.1622627e-06 	0.00068599839
0.57731959 	0.0038810529 	0.00078380972 	-8.1545584e-08 	0.0078402496 	-3.3310338e-06 	0.0013842495
0.58762887 	0.0038598241 	0.0007940284 	-1.5908783e-07 	0.0077065221 	-6.4985381e-06 	0.0012960237
0.59793814 	0.0038554967 	0.00080723514 	1.2424808e-06 	0.0075744327 	2.5295011e-06 	5.4523496e-05
0.60824742 	0.0038570189 	0.00082253152 	-7.9813738e-08 	0.0074626404 	-5.9125068e-06 	0.00118484
0.6185567 	0.0038632504 	0.0008348493 	-8.2893856e-08 	0.0073452307 	-6.1406784e-06 	0.0011248508
0.62886598 	0.0038806971 	0.00084943882 	8.8403871e-07 	0.0072357901 	1.8837664e-06 	2.3631068e-05
0.63917526 	0.0039016306 	0.00086467239 	-8.7401673e-08 	0.0071502078 	-5.5641084e-06 	0.001076448
0.64948454 	0.0039257636 	0.0008761419 	-8.5572215e-08 	0.007060901 	-5.4476427e-06 	0.0010431229
0.65979381 	0.003958652 	0.00088780904 	6.4622915e-07 	0.0069782181 	1.4414373e-06 	3.2627918e-05
0.67010309 	0.0039942964 	0.00089924266 	-1.6031819e-07 	0.0069155888 	-5.1100754e-06 	0.0010450951
0.68041237 	0.0040312166 	0.00090797688 	-1.0475502e-07 	0.0068506344 	-3.3390224e-06 	0.0010355779
0.69072165 	0.0040748296 	0.00091765961 	1.6311686e-07 	0.0067974156 	3.7745103e-07 	0.0007481897
0.70103093 	0.0041178697 	0.00092474164 	-2.9030765e-07 	0.0067508891 	-5.9046225e-06 	0.0010829092
0.71134021 	0.0041611658 	0.00093114705 	-2.4618462e-08 	0.0067030499 	-5.0071957e-07 	0.0010938212
0.72164948 	0.004209617 	0.0009381674 	-1.1896416e-07 	0.0066665052 	-1.8362341e-06 	0.0011536768
0.73195876 	0.00425438 	0.00094272719 	-1.9375362e-07 	0.0066264571 	-2.9906233e-06 	0.0011818793
0.74226804 	0.004302175 	0.00094790527 	1.6583158e-07 	0.0065905384 	4.0531772e-07 	0.00074923403
0.75257732 	0.0043445763 	0.00095165776 	-3.3445361e-07 	0.0065548621 	-4.3534341e-06 	0.0012894921
0.7628866 	0.0043891274 	0.00095473122 	2.5630601e-07 	0.0065164655 	6.4395105e-07 	0.00042154878
0.77319588 	0.0044281577 	0.00095818179 	-2.8243152e-07 	0.0064822182 	-3.3308719e-06 	0.0014147125
0.78350515 	0.0044666532 	0.00096008806 	1.03323e-07 	0.0064418539 	2.668003e-07 	0.0010272181
0.79381443 	0.0045009782 	0.00096247859 	-2.3831142e-07 	0.0064032669 	-2.660264e-06 	0.0015540926
0.80412371 	0.0045331266 	0.0009633758 	1.1619642e-07 	0.0063578434 	3.0836289e-07 	0.0010272336
0.81443299 	0.0045597331 	0.00096474553 	-2.5756254e-07 	0.006312649 	-2.8131331e-06 	0.0017038249
0.82474227 	0.0045856622 	0.00096478079 	2.4753901e-07 	0.0062590483 	6.7595713e-07 	0.0003009252
0.83505155 	0.0046022828 	0.00096517382 	-2.5228354e-07 	0.0062058298 	-2.7531041e-06 	0.0018600438
0.84536082 	0.0046188436 	0.0009649996 	8.2356456e-08 	0.0061457622 	2.323067e-07 	0.0013724149
0.8556701 	0.0046282779 	0.000963981 	-4.5175483e-08 	0.0060790752 	-5.0069621e-07 	0.0020192474
0.86597938 	0.0046352986 	0.00096324218 	-1.6712671e-07 	0.0060077804 	-1.8987875e-06 	0.0020963333
0.87628866 	0.0046410144 	0.00096156339 	1.7268411e-07 	0.0059273027 	5.3285283e-07 	0.00065480781
0.88659794 	0.0046400417 	0.00096003212 	-5.3221825e-09 	0.0058442921 	-6.2622659e-08 	0.0022523959
0.89690722 	0.0046396523 	0.00095847116 	-1.9405199e-07 	0.0057535121 	-2.357803e-06 	0.0023216589
0.90721649 	0.0046393493 	0.00095663225 	-3.7548896e-08 	0.0056572219 	-4.8104445e-07 	0.0023880255
0.91752577 	0.0046435641 	0.0009547454 	1.1520138e-07 	0.0055535819 	4.5257058e-07 	0.0011133989
0.92783505 	0.0046528759 	0.00095256695 	1.8485564e-07 	0.0054478601 	8.0665451e-07 	0.00020438264
0.93814433 	0.0046701887 	0.00095205048 	1.2828104e-07 	0.005346104 	6.1303374e-07 	0.00090582547
0.94845361 	0.0047001616 	0.00095140491 	1.2403054e-07 	0.0052547226 	6.2714138e-07 	0.001007578
0.95876289 	0.0047543723 	0.00095057322 	-2.1495198e-08 	0.0051707121 	-3.6544855e-07 	0.0027542971
0.96907216 	0.0048351567 	0.00095303441 	1.9054212e-08 	0.0051145213 	9.2003964e-08 	0.002617535
0.97938144 	0.004940705 	0.00095799856 	-3.2593527e-10 	0.0050887721 	-4.1152274e-09 	0.0029578466
0.98969072 	0.0049219438 	0.00094642232 	1.7881513e-07 	0.0049560605 	8.4288903e-07 	0.0015842242
