0.34020619 	0.008086077 	-0.0013776542 	2.402212e-07 	0.0071168722 	-1.565981e-06 	0.0052709029
0.35051546 	0.0085957604 	-0.00131614 	1.779384e-07 	0.0080354992 	-1.0266037e-05 	0.00092514668
0.36082474 	0.0090345126 	-0.0011183173 	1.9277383e-07 	0.0092412087 	-1.1338635e-05 	0.0018279407
0.37113402 	0.009334951 	-0.00093946977 	1.7271417e-11 	0.010211166 	-1.2553764e-09 	0.0050521384
0.3814433 	0.0094409378 	-0.0007650419 	-3.1921428e-09 	0.010864424 	-1.4642526e-06 	0.0034029609
0.39175258 	0.0093715977 	-0.00058619178 	-8.501686e-08 	0.011260383 	-4.5326809e-06 	0.00083077704
0.40206186 	0.0092285894 	-0.0004139004 	-1.4735007e-07 	0.011518532 	-3.3262589e-06 	0.00015618178
0.41237113 	0.0090491977 	-0.00024679906 	-1.193115e-07 	0.011690109 	-1.4735832e-06 	0.00015785204
0.42268041 	0.0088484394 	-8.789223e-05 	5.8585997e-07 	0.011796457 	-5.6553442e-07 	0.00038985466
0.43298969 	0.0086255635 	6.1966789e-05 	1.7978431e-06 	0.011843689 	-2.6280636e-06 	0.00035455018
0.44329897 	0.0083988176 	0.00020285992 	2.9118464e-06 	0.011857109 	-5.8154995e-06 	0.00099764118
0.45360825 	0.00816999 	0.00033494439 	1.3598193e-06 	0.011839118 	-3.5970306e-06 	0.0015662728
0.46391753 	0.0079210999 	0.0004569308 	-5.2966642e-07 	0.011770451 	-1.5407051e-06 	0.00025586443
0.4742268 	0.0076997792 	0.00056767503 	8.2010116e-07 	0.01170209 	-2.8861393e-06 	0.0025746057
0.48453608 	0.0074675834 	0.00067025639 	5.3354946e-07 	0.011598093 	-2.5612854e-06 	0.0029519759
0.49484536 	0.0072120271 	0.00075834653 	-7.2510208e-07 	0.011439375 	-9.1920789e-07 	0.00087184159
0.50515464 	0.0070028527 	0.00084351128 	9.1594115e-07 	0.011315702 	-6.1216812e-06 	0.0036604223
0.51546392 	0.0067525911 	0.00091269712 	-8.3808469e-07 	0.011116178 	-3.6926533e-07 	0.00086091112
0.5257732 	0.0065580954 	0.00098169803 	1.9580126e-07 	0.010970059 	-1.9938557e-06 	0.004211326
0.53608247 	0.0063236243 	0.0010320128 	-7.1168241e-07 	0.010746764 	3.9885671e-07 	0.0013307518
0.54639175 	0.0061464284 	0.0010846163 	1.543824e-08 	0.010583232 	-3.378398e-07 	0.004628013
0.55670103 	0.0059318312 	0.001113319 	-5.8357309e-07 	0.010335684 	1.4480324e-06 	0.00091723066
0.56701031 	0.0057791623 	0.0011543479 	-4.9482469e-09 	0.010169838 	-1.4402289e-06 	0.004936378
0.57731959 	0.0055965322 	0.0011610583 	-1.3021032e-07 	0.0099024982 	2.9626147e-06 	0.00021311399
0.58762887 	0.0054642378 	0.001192112 	-1.9795551e-08 	0.0097326732 	4.503893e-07 	0.004435172
0.59793814 	0.0053325773 	0.0011936393 	3.6802558e-07 	0.0094933201 	2.6915029e-06 	0.0019843358
0.60824742 	0.0052157443 	0.0012028246 	3.2760805e-07 	0.0092847793 	2.3959151e-06 	0.0024314274
0.6185567 	0.0051166734 	0.0012143222 	2.5251036e-07 	0.0090966772 	1.1079926e-06 	0.00419978
0.62886598 	0.0050303446 	0.0012028211 	1.1166153e-06 	0.0088628293 	4.8995944e-06 	6.9387902e-05
0.63917526 	0.00495579 	0.0012152171 	2.6573526e-07 	0.0087044476 	1.1660211e-06 	0.0039048519
0.64948454 	0.0048986412 	0.001212204 	5.8393001e-07 	0.0085264444 	2.1697608e-06 	0.002900817
0.65979381 	0.0048538937 	0.0012045021 	1.0799117e-06 	0.0083509002 	4.0127222e-06 	0.0010063499
0.67010309 	0.0048072335 	0.0012108116 	3.1608776e-08 	0.0082132685 	1.1745275e-07 	0.0048225138
0.68041237 	0.0047869602 	0.0012004985 	8.3740417e-07 	0.0080655294 	2.9003013e-06 	0.0019484212
0.69072165 	0.0047692313 	0.001194769 	7.9912082e-07 	0.0079353375 	2.767709e-06 	0.0020709502
0.70103093 	0.0047505219 	0.00119302 	1.0867891e-07 	0.0078190751 	3.6168306e-07 	0.0044941365
0.71134021 	0.0047550499 	0.0011803549 	1.231499e-06 	0.0076980965 	4.0984168e-06 	0.00033585151
0.72164948 	0.0047514038 	0.001177586 	2.2447762e-07 	0.0076063491 	7.4705974e-07 	0.0041063806
0.73195876 	0.00475851 	0.0011679624 	6.8236936e-07 	0.0075051144 	2.2217842e-06 	0.0021922033
0.74226804 	0.0047681806 	0.0011598804 	6.2283183e-07 	0.0074167456 	2.0279309e-06 	0.0024806043
0.75257732 	0.0047771762 	0.0011525279 	3.2763793e-07 	0.0073336607 	1.0564762e-06 	0.0035737446
0.7628866 	0.0047928706 	0.001142419 	8.1960527e-07 	0.007246941 	2.6428361e-06 	0.001386053
0.77319588 	0.0048032062 	0.0011355591 	1.571553e-07 	0.0071752273 	5.0664586e-07 	0.0043806545
0.78350515 	0.0048196607 	0.001125058 	8.3944528e-07 	0.007089194 	2.7062489e-06 	0.00092911964
0.79381443 	0.0048295514 	0.001117918 	1.4182046e-07 	0.0070212941 	4.6042352e-07 	0.0045014101
0.80412371 	0.004843155 	0.0011078291 	7.1635713e-07 	0.0069359508 	2.3256701e-06 	0.0012226669
0.81443299 	0.004850978 	0.0011000472 	2.5128916e-07 	0.0068642518 	8.2582538e-07 	0.0038219635
0.82474227 	0.0048592182 	0.0010908172 	4.7590874e-07 	0.0067805581 	1.564005e-06 	0.0023809501
0.83505155 	0.0048643353 	0.001082224 	4.3500045e-07 	0.0066977778 	1.4526699e-06 	0.0022300539
0.84536082 	0.0048655281 	0.0010740996 	1.1204132e-07 	0.0066174422 	3.7415838e-07 	0.0045167146
0.8556701 	0.0048682532 	0.0010647888 	5.9157128e-07 	0.0065185082 	2.0112704e-06 	0.00043265228
0.86597938 	0.0048646731 	0.0010571003 	2.1666215e-07 	0.0064311748 	7.4971892e-07 	0.0032214354
0.87628866 	0.0048602852 	0.0010490485 	7.1951725e-08 	0.0063348657 	2.4897552e-07 	0.0043952916
0.88659794 	0.0048584119 	0.0010408228 	3.7080574e-07 	0.0062247754 	1.3024756e-06 	0.0013991001
0.89690722 	0.0048553913 	0.001033531 	3.6848174e-07 	0.0061159891 	1.3070258e-06 	0.001141325
0.90721649 	0.0048530743 	0.0010269537 	1.5296106e-07 	0.0060068995 	5.4470561e-07 	0.0031328215
0.91752577 	0.0048555957 	0.0010208135 	-3.7788241e-09 	0.0058926552 	-4.2142491e-08 	0.0045643457
0.92783505 	0.0048675656 	0.0010166653 	-4.0893802e-08 	0.0057739542 	-4.8273345e-07 	0.0044418968
0.93814433 	0.0048916252 	0.0010125256 	-1.8824079e-08 	0.0056576855 	-2.7723032e-07 	0.0043270058
0.94845361 	0.0049339433 	0.0010153225 	-3.7945625e-08 	0.0055527346 	-5.2759426e-07 	0.0042242444
0.95876289 	0.0050061197 	0.001014863 	3.2580341e-07 	0.0054633802 	1.1952821e-06 	0.0015091643
0.96907216 	0.0051175631 	0.0010246947 	2.2379819e-07 	0.0054215183 	8.8729247e-07 	0.0024725845
0.97938144 	0.0052998355 	0.0010425339 	2.0130729e-07 	0.005457525 	8.8677284e-07 	0.0027681882
0.98969072 	0.005434296 	0.0010436719 	3.7782134e-07 	0.0054711196 	1.9318425e-06 	0.0017800982
