0.47777778 	0.0090291997 	-0.0017063792 	5.6627844e-09 	0.0090868469 	1.3302047e-07 	0.0016269097
0.48888889 	0.0086331887 	-0.0016246093 	3.5515879e-07 	0.0086812875 	-1.8337114e-06 	0.0046193122
0.5 	0.0080006616 	-0.0014927614 	1.5108124e-08 	0.0080315231 	-7.7221747e-08 	0.0040702464
0.51111111 	0.0073949568 	-0.0013656346 	2.0423903e-07 	0.0074028202 	-5.2742184e-07 	0.00056479519
0.52222222 	0.0068377641 	-0.001241584 	9.6213217e-07 	0.0068353394 	-4.568426e-06 	0.0032193171
0.53333333 	0.0063212248 	-0.0011217227 	3.2484808e-07 	0.0063025988 	-1.4912084e-06 	0.0029165414
0.54444444 	0.0058510223 	-0.0010066898 	1.5857841e-07 	0.0058123126 	-3.3421519e-07 	0.0014137853
0.55555556 	0.0054295185 	-0.00089625946 	3.0004756e-07 	0.0053712992 	-6.068461e-07 	0.00036620588
0.56666667 	0.0050568969 	-0.00079097048 	3.1631468e-07 	0.0049816312 	-6.1843781e-07 	0.00028464768
0.57777778 	0.0047318317 	-0.00069024148 	2.0298295e-07 	0.0046415963 	-3.8681428e-07 	0.0008869206
0.58888889 	0.0044520116 	-0.00059357324 	1.0077668e-07 	0.0043479436 	-3.4698205e-07 	0.0017774919
0.6 	0.0042177133 	-0.00049977749 	1.0636702e-06 	0.0040958411 	-3.2821441e-06 	0.0016258132
0.61111111 	0.0040225726 	-0.00040913578 	1.2009652e-06 	0.0038828782 	-3.232884e-06 	0.0014997635
0.62222222 	0.0038625936 	-0.00032111844 	7.0647432e-08 	0.0037042801 	-1.3115787e-07 	0.0011323847
0.63333333 	0.0037396775 	-0.0002363768 	6.9950913e-08 	0.0035652555 	-1.3071623e-07 	0.0011180345
0.64444444 	0.0036529779 	-0.00015485542 	1.6329525e-06 	0.0034629681 	-2.9643985e-06 	0.0013128143
0.65555556 	0.0035892964 	-7.511683e-05 	1.2031189e-08 	0.0033830065 	-2.2766917e-08 	0.0012256336
0.66666667 	0.0035552942 	2.0446006e-06 	2.0429507e-07 	0.0033353825 	-2.7355182e-07 	0.0012630921
0.67777778 	0.0035485085 	7.6513977e-05 	1.1054644e-06 	0.003314905 	-9.2215476e-07 	0.0012485521
0.68888889 	0.0035604697 	0.00015021476 	2.3400665e-07 	0.003310956 	-4.6038055e-07 	0.0003631305
0.7 	0.003595248 	0.00021981565 	1.7127349e-06 	0.0033393681 	-4.9968546e-07 	0.0012639745
0.71111111 	0.0036477027 	0.00028964378 	2.6954579e-07 	0.003377804 	-5.4323596e-07 	0.00017405569
0.72222222 	0.0037173762 	0.00035480271 	1.5457939e-06 	0.00344543 	4.3549243e-07 	0.0013158867
0.73333333 	0.0038033549 	0.00041982688 	2.5054729e-07 	0.0035206328 	-5.1831368e-07 	0.00018299787
0.74444444 	0.0039056311 	0.00048270028 	1.4107443e-06 	0.0036239973 	1.2810264e-06 	0.0014048845
0.75555556 	0.0040217498 	0.0005441671 	2.2789342e-07 	0.0037324206 	-4.8426164e-07 	0.00020570174
0.76666667 	0.0041563292 	0.00060599159 	1.0765789e-06 	0.003871158 	1.6799666e-06 	0.0015260306
0.77777778 	0.0043030367 	0.00066587779 	1.1044049e-07 	0.0040157007 	-2.4091096e-07 	0.00088765958
0.78888889 	0.004465932 	0.00072570988 	4.9728742e-07 	0.0041831247 	1.0843041e-06 	0.0016731147
0.8 	0.0046416152 	0.00078394319 	2.385593e-07 	0.0043627328 	6.6045319e-07 	0.0018139455
0.81111111 	0.0048310744 	0.00084178385 	7.4421232e-08 	0.0045538656 	-1.7117487e-07 	0.0011203426
0.82222222 	0.0050349826 	0.0008991717 	8.0287686e-07 	0.0047666936 	2.6623954e-06 	0.0019994781
0.83333333 	0.0052494273 	0.00095577555 	4.6035268e-09 	0.004988641 	-1.0913945e-08 	0.0021062666
0.84444444 	0.0054779805 	0.0010120097 	7.8817843e-08 	0.005221552 	-1.9359488e-07 	0.0010151985
0.85555556 	0.0057186791 	0.001068546 	3.3267426e-07 	0.0054756721 	1.4215343e-06 	0.002379812
0.86666667 	0.005970344 	0.0011242999 	4.9619937e-07 	0.0057385559 	2.3213107e-06 	0.0025626362
0.87777778 	0.006232354 	0.0011799344 	8.2652391e-08 	0.0060128358 	4.1630372e-07 	0.0027494886
0.88888889 	0.006505002 	0.0012351802 	3.6483221e-08 	0.0062955508 	-1.0497175e-07 	0.0017682726
0.9 	0.0067871168 	0.001290424 	5.384104e-08 	0.0065894641 	-1.6764074e-07 	0.00091283305
0.91111111 	0.0070778547 	0.0013457607 	4.5073263e-08 	0.0068956229 	-1.5475419e-07 	0.00090686494
0.92222222 	0.0073763015 	0.0014014491 	2.1151151e-08 	0.0072135822 	-8.2183772e-08 	0.0020076634
0.93333333 	0.0076810531 	0.0014567608 	7.2000018e-08 	0.007540499 	4.4446377e-07 	0.0037000911
0.94444444 	0.0079901683 	0.0015122583 	2.4950065e-07 	0.0078693211 	1.6298304e-06 	0.0038866224
0.95555556 	0.0082989011 	0.0015661743 	6.224804e-09 	0.0081939516 	-8.6860076e-08 	0.001379047
0.96666667 	0.0085964131 	0.0016155861 	7.8928539e-08 	0.0085211035 	6.1241512e-07 	0.0043348183
0.97777778 	0.008862363 	0.0016623538 	1.1748104e-08 	0.0088131977 	9.3780298e-08 	0.0045639111
0.98888889 	0.0088796769 	0.0016693154 	-9.833231e-08 	0.008857319 	-4.9555733e-07 	0.0046422293
