0.17894737 	0.0021060843 	-0.00022501849 	-1.3715136e-07 	0.0016057041 	4.4276571e-07 	0.0011793079
0.18947368 	0.015517698 	-0.0013757773 	-4.6337446e-07 	0.016338152 	5.79906e-06 	0.0082424042
0.2 	0.013992084 	-0.0015539812 	3.2509757e-07 	0.016673437 	-5.1853897e-06 	0.0048906956
0.21052632 	0.0096740106 	-0.0013228833 	1.7575438e-06 	0.013207512 	-2.2193359e-05 	0.001879132
0.22105263 	0.0072231169 	-0.0010640121 	9.7529878e-07 	0.010831506 	-8.2416624e-06 	0.00065054886
0.23157895 	0.0056442122 	-0.00083211194 	3.0466268e-06 	0.0090316859 	-2.7528071e-05 	8.7283577e-05
0.24210526 	0.0046770594 	-0.0006881202 	1.9355538e-06 	0.0078509645 	-1.965449e-05 	0.00045443153
0.25263158 	0.0041052187 	-0.0005914425 	1.2628536e-06 	0.0070757613 	-1.6140502e-05 	0.00083608609
0.26315789 	0.003745667 	-0.00053100953 	3.161325e-07 	0.0065501305 	-6.8472744e-06 	0.0011251432
0.27368421 	0.0035486892 	-0.00050856053 	6.3351109e-07 	0.0062240289 	4.750819e-06 	0.00099924722
0.28421053 	0.0034946322 	-0.00050066517 	2.9943717e-06 	0.0061193395 	1.3783648e-05 	0.0004042213
0.29473684 	0.0033394235 	-0.00049173495 	3.5838549e-09 	0.0059301032 	-1.5427795e-07 	0.0019074578
0.30526316 	0.0033277872 	-0.00048867336 	1.4845549e-06 	0.0059161035 	5.0518847e-06 	0.0016249857
0.31578947 	0.003380949 	-0.00046749822 	6.706191e-06 	0.0060001452 	1.8942436e-05 	0.00018310033
0.32631579 	0.0032939399 	-0.00047459993 	7.8323894e-07 	0.0059286238 	1.9559747e-06 	0.0021883963
0.33684211 	0.0033472676 	-0.00044841462 	3.6717446e-06 	0.0060294981 	9.1694065e-06 	0.00088426831
0.34736842 	0.0033280505 	-0.0004367222 	1.7596223e-06 	0.0060472972 	4.0125743e-06 	0.0013442661
0.35789474 	0.0033355709 	-0.00041863853 	8.2018054e-07 	0.0061062986 	1.8703077e-06 	0.0014598163
0.36842105 	0.0033407042 	-0.0003939653 	1.6058271e-06 	0.0061497676 	3.3967604e-06 	0.00095658883
0.37894737 	0.0033360144 	-0.00037378656 	1.0658043e-07 	0.0061971972 	-9.8873209e-07 	0.0013348545
0.38947368 	0.003328796 	-0.00034635292 	4.477089e-07 	0.0062231942 	8.758956e-07 	0.00097040071
0.4 	0.0033228835 	-0.00031961781 	2.2810668e-07 	0.0062594797 	-1.8421613e-06 	0.00094677684
0.41052632 	0.0033002472 	-0.00029037629 	2.2980514e-07 	0.0062612254 	-1.8558778e-06 	0.00076487918
0.42105263 	0.0032825583 	-0.00026028517 	1.9995873e-07 	0.0062716962 	-1.5589134e-06 	0.00059185932
0.43157895 	0.0032490202 	-0.00022995042 	7.1791114e-07 	0.0062514235 	-5.5969616e-06 	0.00043205982
0.44210526 	0.0032179776 	-0.00019938567 	3.3897797e-08 	0.006235389 	5.4204545e-08 	0.00026019242
0.45263158 	0.003185532 	-0.00017030877 	1.1316416e-06 	0.0062135811 	-8.5131502e-06 	0.00013659658
0.46315789 	0.0031531357 	-0.00014116423 	3.6793774e-07 	0.0061916368 	-2.7679339e-06 	2.4932859e-05
0.47368421 	0.0031257687 	-0.00011105146 	6.7337388e-07 	0.0061785353 	-3.8351714e-06 	0.00016414916
0.48421053 	0.0031028388 	-8.0043115e-05 	9.9764711e-07 	0.0061728472 	-5.6820553e-06 	0.00029392996
0.49473684 	0.003083263 	-4.9427654e-05 	8.7035388e-07 	0.0061657425 	1.3133092e-06 	3.3221773e-05
0.50526316 	0.0030702052 	-1.0453003e-05 	1.2349399e-06 	0.0061588609 	-4.6736418e-06 	0.00052874676
0.51578947 	0.0030646593 	3.0694682e-05 	8.6865172e-07 	0.0061536232 	-3.2874207e-06 	0.00063260488
0.52631579 	0.0030629502 	7.2486449e-05 	8.0811229e-07 	0.0061426646 	1.2557307e-06 	0.00033428388
0.53684211 	0.0030758902 	0.00012025995 	1.4990346e-06 	0.0061192747 	-5.1578291e-06 	0.00083546737
0.54736842 	0.0030989491 	0.00016968176 	8.2640878e-07 	0.0060913239 	-2.8434802e-06 	0.000916034
0.55789474 	0.0031369322 	0.00021657312 	1.1932078e-06 	0.0060411778 	2.069048e-06 	0.00027015596
0.56842105 	0.0031721131 	0.00026147297 	1.0555637e-06 	0.0060054268 	-3.7508168e-06 	0.0011303471
0.57894737 	0.003220518 	0.00030824079 	9.5310183e-07 	0.0059741317 	-3.3867311e-06 	0.001189848
0.58947368 	0.0032797829 	0.00035226616 	1.1958463e-06 	0.0059358686 	2.2249196e-06 	0.00025902712
0.6 	0.0033268129 	0.00039183168 	3.8003037e-07 	0.0059123737 	-1.3747177e-06 	0.0013936577
0.61052632 	0.0033885101 	0.00043160349 	1.0008458e-06 	0.0058988944 	-3.6204485e-06 	0.0014312643
0.62105263 	0.0034552698 	0.00046903853 	5.8423713e-07 	0.0058813808 	1.132106e-06 	0.00082285929
0.63157895 	0.0035173024 	0.00050062887 	2.9325796e-08 	0.0058663183 	-1.1292737e-07 	0.0016069363
0.64210526 	0.0035867025 	0.00053392537 	8.0499153e-07 	0.0058669374 	-3.0998503e-06 	0.0016234156
0.65263158 	0.0036590003 	0.00056563574 	4.3358125e-07 	0.0058644035 	8.7187788e-07 	0.00099913954
0.66315789 	0.0037254607 	0.00059219424 	3.0672572e-08 	0.0058642185 	-1.3213239e-07 	0.0017509813
0.67368421 	0.0037962095 	0.00062047643 	4.9916134e-07 	0.0058732741 	-2.150305e-06 	0.0017482427
0.68421053 	0.0038704851 	0.00064663335 	5.9023755e-07 	0.0058759248 	1.249475e-06 	0.00058724366
0.69473684 	0.0039355564 	0.00066924027 	1.7034903e-07 	0.0058839152 	-9.0815388e-07 	0.0018225608
0.70526316 	0.0040042288 	0.00069333745 	1.7864335e-07 	0.0058949239 	-9.5237204e-07 	0.0018028608
0.71578947 	0.0040738956 	0.0007140946 	4.3385544e-07 	0.0058967961 	9.6703954e-07 	0.00068641549
0.72631579 	0.0041350805 	0.00073394441 	3.2058485e-07 	0.0059068231 	-2.3372398e-06 	0.00182309
0.73684211 	0.0041997722 	0.00075373037 	2.2009923e-07 	0.0059118728 	5.1625252e-07 	0.0010449812
0.74736842 	0.0042567387 	0.00076996743 	8.9192428e-08 	0.0059139475 	-1.0235962e-06 	0.0018053069
0.75789474 	0.0043134608 	0.00078722716 	4.2987797e-08 	0.0059174393 	-4.9333949e-07 	0.001758909
0.76842105 	0.0043655234 	0.0008012159 	9.0074669e-09 	0.0059118425 	-2.0411951e-07 	0.0017514319
0.77894737 	0.0044134878 	0.00081552896 	5.3463097e-08 	0.0059075415 	-1.211535e-06 	0.0016952305
0.78947368 	0.0044579026 	0.00082763483 	3.1256814e-08 	0.0058952845 	7.9459786e-08 	0.0014888712
0.8 	0.0044957528 	0.00083920701 	1.5092092e-08 	0.0058815669 	-1.5054358e-06 	0.0016015943
0.81052632 	0.0045299926 	0.00084906719 	-8.0579545e-10 	0.0058602756 	-5.2975086e-08 	0.001552766
0.82105263 	0.0045574593 	0.0008583015 	-1.9504957e-08 	0.0058351964 	-1.2823065e-06 	0.0014829408
0.83157895 	0.004579914 	0.00086589448 	-2.9748997e-08 	0.0058016512 	-9.0563714e-07 	0.0014187683
0.84210526 	0.0045967579 	0.00087302195 	-1.3487061e-08 	0.0057644895 	-4.1058134e-07 	0.0013446728
0.85263158 	0.0046065002 	0.00087843957 	-1.1305102e-07 	0.0057160053 	-2.5461152e-06 	0.0012690991
0.86315789 	0.0046135933 	0.00088350933 	7.3480726e-08 	0.0056623218 	1.9229846e-07 	0.0003704797
0.87368421 	0.004610693 	0.00088730643 	-8.7504621e-08 	0.0056005903 	-1.7193342e-06 	0.0011087952
0.88421053 	0.0046050701 	0.00089050969 	-1.2892885e-07 	0.0055295156 	-2.3944214e-06 	0.0010222237
0.89473684 	0.0045959602 	0.00089320478 	1.0022425e-08 	0.0054515341 	2.6707301e-08 	0.00080754858
0.90526316 	0.0045818794 	0.00089558311 	-3.8650004e-08 	0.0053645041 	-7.3179197e-07 	0.00085340696
0.91578947 	0.0045675385 	0.00089773018 	-1.316225e-07 	0.0052692328 	-2.5420683e-06 	0.00076458466
0.92631579 	0.0045546177 	0.00090014071 	-1.3940507e-07 	0.0051694214 	-3.1838881e-06 	0.00067687487
0.93684211 	0.0045464434 	0.00090304625 	-1.0894314e-07 	0.0050702062 	-2.0118081e-06 	0.00059129913
0.94736842 	0.0045480512 	0.00090460033 	-8.3390844e-08 	0.0049748072 	-1.6808031e-06 	0.00050871783
0.95789474 	0.0045716081 	0.0009086389 	-8.5853228e-09 	0.0048907147 	-2.336423e-07 	0.00042853271
0.96842105 	0.0046360533 	0.00091329477 	-2.49966e-08 	0.0048498096 	-3.7290597e-07 	0.00035060876
0.97894737 	0.004736205 	0.00091482198 	-1.6455703e-08 	0.0048503147 	-7.033573e-08 	0.00027420925
0.98947368 	0.0046126473 	0.00087812014 	-7.1981245e-07 	0.0046408635 	-4.1364009e-06 	0.00018730061
