0.4742268 	0.006443942 	-0.001248592 	8.3921047e-09 	0.0064344155 	-4.3140971e-08 	0.0015582641
0.48453608 	0.0092121697 	-0.0017364152 	2.7731189e-09 	0.0091959852 	-1.4500537e-08 	0.0031396747
0.49484536 	0.008666378 	-0.0016411704 	5.4226394e-07 	0.0086479053 	-2.9998389e-06 	0.003896126
0.50515464 	0.0080638863 	-0.0015280821 	2.3461827e-10 	0.008041433 	-6.3527929e-09 	0.0030788743
0.51546392 	0.0075544955 	-0.0014223701 	1.5995654e-07 	0.0075318891 	-7.1912215e-07 	0.0033551601
0.5257732 	0.0071065745 	-0.0013159704 	1.1304445e-06 	0.007084591 	-4.7593456e-06 	0.0031962911
0.53608247 	0.0067333307 	-0.0012123508 	3.4745598e-07 	0.0067133629 	-1.3122574e-06 	0.0030504627
0.54639175 	0.0064293466 	-0.0011135546 	-4.0362718e-10 	0.0064122155 	-1.3424909e-08 	0.0027597292
0.55670103 	0.0061844954 	-0.0010181349 	-7.4847941e-10 	0.0061710974 	-2.9050363e-08 	0.0025422881
0.56701031 	0.0059876696 	-0.00092654108 	1.8503343e-07 	0.0059791368 	-4.9747117e-07 	0.002707908
0.57731959 	0.0058295457 	-0.00083787775 	7.8111557e-07 	0.0058255216 	-1.8669461e-06 	0.0026249438
0.58762887 	0.0057014391 	-0.00075196519 	1.2408196e-06 	0.0057018323 	-2.6479276e-06 	0.0025558697
0.59793814 	0.0055967659 	-0.00066836017 	1.3453939e-07 	0.0056013453 	-2.5776484e-07 	0.0024993125
0.60824742 	0.005513585 	-0.00058599737 	-7.8358653e-09 	0.0055174446 	-5.1987292e-07 	7.2468691e-05
0.6185567 	0.0054470689 	-0.00050782193 	3.4848145e-07 	0.0054588703 	-6.0355871e-07 	0.0024538655
0.62886598 	0.005393833 	-0.00043040559 	9.1495912e-07 	0.0054084862 	-1.4413847e-06 	0.0024187098
0.63917526 	0.0053515084 	-0.00035363998 	-5.9892783e-09 	0.0053649417 	-4.8116171e-07 	0.00048691231
0.64948454 	0.0053196685 	-0.00028026381 	6.406162e-07 	0.0053386825 	-9.2155984e-07 	0.0023928649
0.65979381 	0.0052956264 	-0.00020729574 	1.8119969e-07 	0.00531614 	-2.3796003e-07 	0.0023760802
0.67010309 	0.0052799659 	-0.00013542223 	-1.6744588e-09 	0.0053004565 	-1.5487814e-07 	0.0017937617
0.68041237 	0.0052715146 	-6.5379579e-05 	8.8988582e-07 	0.0052937895 	-1.0590756e-06 	0.0023683678
0.69072165 	0.0052692255 	4.6067987e-06 	-3.9474807e-09 	0.0052890812 	-3.8797022e-07 	0.00090589616
0.70103093 	0.0052733693 	7.2056759e-05 	1.1486534e-06 	0.0052960698 	-1.215041e-06 	0.0023704756
0.71134021 	0.0052834167 	0.00014002469 	-3.8261973e-09 	0.0053029737 	-3.9618683e-07 	0.00083391363
0.72164948 	0.0052993672 	0.00020512426 	9.8340839e-07 	0.0053214325 	-9.0985906e-07 	0.0023838754
0.73195876 	0.0053206798 	0.00026967994 	-2.063642e-09 	0.0053403683 	-2.2085689e-07 	0.0014762476
0.74226804 	0.0053491097 	0.00033393305 	5.691112e-07 	0.0053697247 	-4.2160773e-07 	0.0024101234
0.75257732 	0.005382113 	0.00039660996 	-4.4785981e-10 	0.0054013211 	-4.8558892e-08 	0.002192251
0.7628866 	0.0054241523 	0.00045960768 	2.8350187e-07 	0.0054426548 	-1.4105086e-07 	0.002448315
0.77319588 	0.0054713448 	0.00052186342 	-1.4531163e-10 	0.0054883809 	-1.5668624e-08 	0.0023695684
0.78350515 	0.0055280615 	0.00058342955 	3.4631102e-07 	0.0055438601 	-8.3715186e-08 	0.0024964153
0.79381443 	0.005590713 	0.00064412434 	-1.1594953e-09 	0.0056035543 	-1.2399675e-07 	0.0017808335
0.80412371 	0.0056638719 	0.00070475999 	6.9805675e-07 	0.0056764325 	3.4693883e-08 	0.002553558
0.81443299 	0.0057438146 	0.0007637437 	-3.1488626e-09 	0.0057501427 	-3.3863159e-07 	0.00025987195
0.82474227 	0.0058356002 	0.00082402305 	6.3578138e-07 	0.0058443861 	2.4010828e-07 	0.0026190075
0.83505155 	0.0059365968 	0.00088301039 	-4.7631313e-11 	0.0059432824 	-5.2473708e-09 	0.0026479909
0.84536082 	0.0060489347 	0.00094117114 	-1.0450785e-09 	0.0060510238 	-1.2436975e-07 	0.0014433838
0.8556701 	0.006175387 	0.00099995729 	5.6316224e-07 	0.0061775575 	6.4271681e-07 	0.0027719968
0.86597938 	0.0063141885 	0.0010580828 	2.0652653e-07 	0.0063139846 	3.2475521e-07 	0.0028582515
0.87628866 	0.0064668758 	0.0011153561 	-6.1661516e-10 	0.0064602386 	-1.2164077e-07 	0.00084199059
0.88659794 	0.0066366446 	0.0011735495 	-1.1740298e-10 	0.0066289742 	-5.5247209e-08 	0.0016762945
0.89690722 	0.0068243706 	0.0012319078 	9.8188536e-08 	0.0068167576 	2.4635271e-07 	0.0030476429
0.90721649 	0.0070309067 	0.0012899159 	2.7384616e-07 	0.0070211236 	8.2203077e-07 	0.0031489775
0.91752577 	0.0072569934 	0.0013479836 	3.1187863e-07 	0.0072453316 	1.0867789e-06 	0.0032536222
0.92783505 	0.0075035827 	0.0014062484 	2.2168005e-07 	0.0074904474 	8.8288758e-07 	0.0033605174
0.93814433 	0.0077705866 	0.0014643851 	1.895535e-08 	0.0077564895 	8.3103204e-08 	0.0034683511
0.94845361 	0.0080559921 	0.0015212418 	-4.9833628e-10 	0.0080356858 	-3.199195e-09 	0.00049660919
0.95876289 	0.0083586501 	0.0015820691 	7.6461531e-08 	0.0083446591 	4.3566192e-07 	0.0037829256
0.96907216 	0.008660482 	0.0016320057 	-1.6784718e-09 	0.008642041 	-5.6413125e-09 	0.0011130704
0.97938144 	0.0089382044 	0.0016807305 	1.4749402e-08 	0.008926386 	9.6268368e-08 	0.004016036
0.98969072 	0.008939824 	0.0016824318 	-8.9868877e-08 	0.008929699 	-4.5494236e-07 	0.0040398783
