0.4742268 	0.0064615488 	-0.0012519723 	7.7093148e-09 	0.0064519741 	-3.9638041e-08 	0.0015618824
0.48453608 	0.0092254529 	-0.0017388716 	2.0046421e-09 	0.0092088743 	-1.052831e-08 	0.0031439089
0.49484536 	0.0086754143 	-0.0016424848 	5.8825138e-07 	0.008655581 	-3.2418321e-06 	0.0035855289
0.50515464 	0.0080733594 	-0.0015285095 	1.4878417e-10 	0.0080498912 	-3.6259124e-09 	0.003081936
0.51546392 	0.0075694428 	-0.0014220506 	2.4582598e-07 	0.0075452467 	-1.0853025e-06 	0.003090796
0.5257732 	0.0071314634 	-0.0013150016 	1.2180883e-06 	0.0071080048 	-5.0078058e-06 	0.0029479921
0.53608247 	0.0067708374 	-0.0012110557 	4.3504122e-07 	0.0067496232 	-1.5952789e-06 	0.0028182439
0.54639175 	0.006480374 	-0.0011120679 	2.8091025e-08 	0.0064625969 	-9.2303749e-08 	0.0027035221
0.55670103 	0.0062489793 	-0.00101654 	-1.0376683e-10 	0.0062353828 	-4.4983227e-09 	0.0025662617
0.56701031 	0.0060649954 	-0.00092481778 	2.7645904e-07 	0.0060561461 	-7.1460282e-07 	0.0025194506
0.57731959 	0.0059181332 	-0.00083614089 	8.7389205e-07 	0.0059140601 	-2.0089058e-06 	0.00244852
0.58762887 	0.0057998927 	-0.0007502254 	1.3374359e-06 	0.0058004571 	-2.7523018e-06 	0.0023899341
0.59793814 	0.0057037665 	-0.00066663486 	2.3316412e-07 	0.0057086914 	-4.3291452e-07 	0.002342287
0.60824742 	0.0056275583 	-0.00058436518 	-6.9984807e-09 	0.0056321791 	-5.0989209e-07 	7.4010059e-05
0.6185567 	0.0055671015 	-0.00050615793 	4.4540493e-07 	0.0055794447 	-7.5292074e-07 	0.0023041882
0.62886598 	0.0055186104 	-0.00042877918 	1.0161543e-06 	0.0055338613 	-1.5770774e-06 	0.0022748075
0.63917526 	0.0054798909 	-0.0003521022 	-5.3746225e-09 	0.0054942531 	-4.6119945e-07 	0.0004986942
0.64948454 	0.0054509338 	-0.00027869936 	7.3990857e-07 	0.0054705883 	-1.0610911e-06 	0.0022531765
0.65979381 	0.0054287837 	-0.00020577154 	2.8572697e-07 	0.0054499405 	-3.7955343e-07 	0.0022389834
0.67010309 	0.0054139246 	-0.00013399418 	-1.1400411e-09 	0.0054354057 	-1.107721e-07 	0.0018384984
0.68041237 	0.0054057847 	-6.3938644e-05 	9.9515493e-07 	0.0054286778 	-1.219801e-06 	0.0022321454
0.69072165 	0.0054027309 	5.9572589e-06 	-3.584353e-09 	0.0054235016 	-3.5964898e-07 	0.000928668
0.70103093 	0.0054057386 	7.3426365e-05 	1.2548861e-06 	0.0054290189 	-1.3993174e-06 	0.0022332391
0.71134021 	0.0054135619 	0.00014130486 	-3.6252953e-09 	0.0054339916 	-3.7004635e-07 	0.00085453164
0.72164948 	0.0054271066 	0.00020637819 	1.0888728e-06 	0.0054497101 	-1.0951468e-06 	0.002243497
0.73195876 	0.0054449492 	0.00027088816 	-1.824708e-09 	0.0054655038 	-1.857892e-07 	0.0015111511
0.74226804 	0.0054697502 	0.0003350272 	6.6871401e-07 	0.0054908657 	-5.6437526e-07 	0.0022643484
0.75257732 	0.0054981751 	0.00039774127 	-5.6462135e-11 	0.0055182515 	-5.6160708e-09 	0.0022402737
0.7628866 	0.0055354645 	0.00046059454 	3.7318495e-07 	0.005554445 	-2.3171001e-07 	0.0022953182
0.77319588 	0.0055771645 	0.00052285276 	5.2133905e-08 	0.0055948333 	-3.2369811e-08 	0.0022953952
0.78350515 	0.0056280407 	0.00058433967 	4.2577601e-07 	0.0056443128 	-1.6311198e-07 	0.0023349462
0.79381443 	0.0056842133 	0.00064508549 	-1.0188086e-09 	0.0056979117 	-9.511532e-08 	0.0018117142
0.80412371 	0.005750893 	0.0007055694 	7.6843308e-07 	0.0057639409 	-8.1779062e-08 	0.0023826648
0.81443299 	0.0058237631 	0.0007645895 	-3.6694175e-09 	0.0058309357 	-3.2864982e-07 	0.00026373586
0.82474227 	0.0059084022 	0.00082470452 	6.9700706e-07 	0.0059176996 	1.4650736e-07 	0.0024379738
0.83505155 	0.0060019116 	0.0008836308 	4.6129411e-08 	0.0060091877 	2.6153727e-08 	0.0025002091
0.84536082 	0.0061064937 	0.00094176694 	-1.2112862e-09 	0.0061094865 	-1.090382e-07 	0.0014581628
0.8556701 	0.006225383 	0.001000366 	6.1312481e-07 	0.0062280248 	5.9037426e-07 	0.0025692691
0.86597938 	0.0063564676 	0.0010583838 	2.5391826e-07 	0.0063566767 	3.5435066e-07 	0.0026442753
0.87628866 	0.0065014855 	0.0011156273 	-1.0438302e-09 	0.0064956076 	-1.1301702e-07 	0.00084590157
0.88659794 	0.006663862 	0.0011737096 	-3.3474166e-10 	0.0066568579 	-4.6404621e-08 	0.0016840547
0.89690722 	0.0068447866 	0.0012318874 	1.3774391e-07 	0.0068372478 	3.2379398e-07 	0.0028110269
0.90721649 	0.0070450548 	0.0012898206 	3.1020598e-07 	0.00703517 	8.8721557e-07 	0.0029012541
0.91752577 	0.0072657453 	0.0013478625 	3.458871e-07 	0.0072537963 	1.1636687e-06 	0.0029951007
0.92783505 	0.0075080632 	0.0014061229 	2.5328829e-07 	0.0074944639 	9.8447848e-07 	0.0030916162
0.93814433 	0.0077721499 	0.0014643437 	4.8507465e-08 	0.0077574401 	2.0931671e-07 	0.0031895836
0.94845361 	0.0080562 	0.0015213877 	-6.3363653e-10 	0.0080357295 	1.7284684e-09 	0.00049664352
0.95876289 	0.0083585234 	0.001582136 	9.6424675e-08 	0.0083437722 	5.488651e-07 	0.0034780776
0.96907216 	0.0086620058 	0.0016325338 	-1.678521e-09 	0.0086434255 	-3.5582315e-09 	0.0011133034
0.97938144 	0.0089412479 	0.0016813415 	2.0844165e-08 	0.0089287448 	1.3663722e-07 	0.0036935097
0.98969072 	0.0089434999 	0.001682907 	-1.0939728e-07 	0.0089327376 	-5.5341111e-07 	0.0037160398
