0.4742268 	0.028314369 	-0.013232051 	2.8889044e-07 	0.046787707 	-9.9746429e-07 	0.0083379823
0.48453608 	0.039694195 	-0.018286134 	6.7385692e-08 	0.065405529 	-1.8919366e-07 	0.016473078
0.49484536 	0.034925397 	-0.016415977 	9.0053369e-06 	0.058128002 	-3.4058184e-05 	0.020813594
0.50515464 	0.029316985 	-0.014037125 	-2.0346613e-07 	0.049209987 	7.8929402e-07 	0.014085119
0.51546392 	0.024464779 	-0.011733351 	1.4467732e-06 	0.040961614 	-4.8477077e-06 	0.014126495
0.5257732 	0.020625033 	-0.0093438901 	2.0309729e-05 	0.033223701 	-6.2775308e-05 	0.012138841
0.53608247 	0.018188294 	-0.0071110843 	4.7323196e-06 	0.026851651 	-1.3076824e-05 	0.010508465
0.54639175 	0.016984775 	-0.0051892551 	-2.5701633e-07 	0.022253505 	5.2877935e-07 	0.0081573179
0.55670103 	0.016643511 	-0.0035608142 	-3.2492177e-07 	0.019333521 	4.4597188e-07 	0.0072191675
0.56701031 	0.016753001 	-0.0021524344 	1.2117372e-06 	0.017757007 	-1.3823844e-06 	0.0082867105
0.57731959 	0.017003987 	-0.00094326053 	7.7996192e-06 	0.01718981 	-4.000892e-06 	0.0082319177
0.58762887 	0.017257101 	0.00010333462 	1.1285782e-05 	0.017270966 	5.936721e-07 	0.0083416785
0.59793814 	0.017482107 	0.0010222461 	3.070877e-07 	0.017758373 	1.6190647e-07 	0.008551177
0.60824742 	0.01767702 	0.0018280156 	-1.4883447e-06 	0.018517515 	-1.7601755e-06 	0.00024141218
0.6185567 	0.01784808 	0.0025340345 	1.8723918e-06 	0.019410704 	1.6931811e-06 	0.0088247262
0.62886598 	0.018005749 	0.0031676895 	5.2301841e-06 	0.02036861 	6.2352667e-06 	0.0091357365
0.63917526 	0.018157844 	0.0037420395 	-1.0645441e-06 	0.021339975 	-2.0327945e-06 	0.0017857245
0.64948454 	0.018301928 	0.0042499232 	2.9672946e-06 	0.022307933 	4.1585433e-06 	0.0094713223
0.65979381 	0.018444238 	0.0047145226 	3.5091085e-07 	0.023245405 	5.3967014e-07 	0.0098149812
0.67010309 	0.018584915 	0.0051292732 	-3.3386453e-07 	0.02413083 	-7.8733391e-07 	0.0068602275
0.68041237 	0.018721496 	0.0055026494 	2.9247154e-06 	0.024973939 	4.6716506e-06 	0.010158996
0.69072165 	0.018857236 	0.005842647 	-6.4551281e-07 	0.025752899 	-1.6281444e-06 	0.0036022911
0.70103093 	0.018986406 	0.0061459465 	3.030929e-06 	0.026490451 	4.7177544e-06 	0.010491263
0.71134021 	0.019114044 	0.0064228854 	-5.9300551e-07 	0.027156609 	-1.5818205e-06 	0.0034227806
0.72164948 	0.019233264 	0.0066693914 	1.8617119e-06 	0.027783726 	2.4605393e-06 	0.0108027
0.73195876 	0.019347524 	0.0068904434 	-3.1765547e-07 	0.028334347 	-8.9282123e-07 	0.0061959573
0.74226804 	0.019457817 	0.007095235 	6.817636e-07 	0.028864843 	5.5213114e-07 	0.011076664
0.75257732 	0.019561075 	0.0072763585 	-9.4227333e-08 	0.029326162 	-2.7998935e-07 	0.0093260545
0.7628866 	0.019662416 	0.0074462493 	1.8864331e-07 	0.029765355 	-1.8274116e-08 	0.011301008
0.77319588 	0.019758567 	0.0076006229 	-4.5659006e-08 	0.030157489 	-1.4559979e-07 	0.010123126
0.78350515 	0.019853382 	0.0077474678 	1.8285074e-07 	0.030530698 	-2.760931e-07 	0.011484354
0.79381443 	0.019945922 	0.0078841906 	-9.2188976e-08 	0.030864917 	-3.3140044e-07 	0.007585835
0.80412371 	0.020042303 	0.0080232536 	3.9829795e-07 	0.031213128 	-8.7628644e-07 	0.011644493
0.81443299 	0.020141798 	0.0081563088 	-8.8137442e-08 	0.031517281 	-4.6309369e-07 	0.0011091963
0.82474227 	0.020253009 	0.0083050372 	4.8572705e-07 	0.031892286 	-6.0137636e-07 	0.011798639
0.83505155 	0.020378797 	0.0084601754 	7.4167017e-09 	0.03226239 	-5.0592484e-10 	0.01089097
0.84536082 	0.02052718 	0.0086300624 	1.3368619e-07 	0.032663266 	2.7018439e-07 	0.005943249
0.8556701 	0.020711133 	0.0088306988 	1.1009618e-06 	0.033165732 	1.1954577e-06 	0.012154707
0.86597938 	0.020939477 	0.0090597084 	5.1823237e-07 	0.033741736 	8.931564e-07 	0.012388563
0.87628866 	0.021230251 	0.0093250009 	4.537922e-07 	0.034415236 	1.2377615e-06 	0.0033612171
0.88659794 	0.021605965 	0.0096460523 	3.6541588e-07 	0.035283202 	1.0653665e-06 	0.0066755906
0.89690722 	0.022095352 	0.010029875 	3.7200399e-07 	0.03636619 	9.2533512e-07 	0.013046932
0.90721649 	0.022740341 	0.01048505 	1.962399e-06 	0.037698411 	5.3977993e-06 	0.013496455
0.91752577 	0.023575852 	0.011019547 	2.8483969e-06 	0.039334252 	8.4806819e-06 	0.014038971
0.92783505 	0.024649216 	0.011640241 	2.3461359e-06 	0.04132259 	7.4426684e-06 	0.014676607
0.93814433 	0.025998931 	0.012347281 	2.6169178e-08 	0.043694286 	9.6784386e-08 	0.014994199
0.94845361 	0.02764707 	0.013122285 	7.7240428e-07 	0.046408396 	2.9752799e-06 	0.0021031222
0.95876289 	0.029534079 	0.013989794 	9.5831433e-07 	0.049530446 	3.8444735e-06 	0.017882664
0.96907216 	0.03163649 	0.014692475 	3.5597459e-07 	0.052425546 	1.5318042e-06 	0.0050278495
0.97938144 	0.033496617 	0.015355209 	1.4056331e-07 	0.055122003 	6.3372425e-07 	0.019838207
0.98969072 	0.033566946 	0.015313153 	-7.0181309e-07 	0.055166741 	-2.6274383e-06 	0.019999279
