0.12903226 	0.023744695 	-0.0048610924 	6.8607264e-06 	0.038291303 	2.6336797e-06 	0.019346058
0.13978495 	0.018876722 	-0.0056610929 	5.3999761e-05 	0.032784923 	-5.7540755e-05 	0.0015942929
0.15053763 	0.015184044 	-0.0052089428 	9.9354226e-07 	0.026956211 	-1.2421909e-05 	0.0060819436
0.16129032 	0.013485369 	-0.0045492492 	3.0429219e-06 	0.02336879 	-9.3643692e-07 	0.0032680404
0.17204301 	0.012316944 	-0.0042198691 	1.6592129e-06 	0.021232436 	-1.7686985e-05 	0.002331934
0.1827957 	0.011559079 	-0.0039079564 	2.0293964e-06 	0.019808683 	6.9989183e-10 	0.00059352617
0.19354839 	0.010939261 	-0.0037375744 	6.1979625e-07 	0.018846768 	-5.3170735e-06 	0.000166655
0.20430108 	0.010514075 	-0.0035893138 	1.4049925e-07 	0.01817624 	-1.2053071e-06 	0.0012370323
0.21505376 	0.01017594 	-0.0034778043 	1.445713e-06 	0.017665406 	-1.1653194e-05 	0.0021634776
0.22580645 	0.0099238132 	-0.0034005624 	2.3284806e-06 	0.017305781 	-1.8166984e-05 	0.0030096524
0.23655914 	0.009759075 	-0.0033508355 	5.0145409e-06 	0.017031442 	7.4653005e-07 	0.0029156952
0.24731183 	0.0096803072 	-0.0033074123 	1.6120203e-05 	0.016846063 	3.9458385e-06 	0.0016286882
0.25806452 	0.0095384694 	-0.0032844966 	5.3933612e-07 	0.016907458 	-3.8557287e-06 	0.0054009475
0.2688172 	0.0095560059 	-0.0032720979 	1.8044157e-05 	0.016801738 	6.1099997e-06 	0.0026650951
0.27956989 	0.0095380542 	-0.0032628052 	1.8399472e-05 	0.016864694 	7.9333092e-06 	0.002976241
0.29032258 	0.0095167806 	-0.0032754525 	5.3943486e-06 	0.017023711 	2.3258838e-06 	0.0052853301
0.30107527 	0.0096075085 	-0.0032594818 	2.0797823e-05 	0.017023065 	1.0856347e-05 	0.00080095106
0.31182796 	0.0095909952 	-0.0032941139 	1.7983342e-07 	0.017316362 	-4.4172111e-06 	0.0051608378
0.32258065 	0.0097044085 	-0.0032765939 	1.7110204e-05 	0.017378604 	1.0451263e-05 	0.00025106761
0.33333333 	0.0097201718 	-0.0033168599 	3.7954588e-07 	0.017709749 	-6.8693507e-06 	0.003886161
0.34408602 	0.0098258583 	-0.0033067275 	1.1909322e-05 	0.017868691 	8.2947205e-06 	0.00024510901
0.35483871 	0.0098672015 	-0.0033434756 	6.7454273e-07 	0.018222215 	-8.3223173e-06 	0.0027084642
0.3655914 	0.009952806 	-0.0033448534 	5.2940182e-06 	0.018478194 	4.1083776e-06 	0.00075496813
0.37634409 	0.010013457 	-0.0033694525 	8.3736409e-07 	0.018843973 	-6.4297307e-06 	0.0016082033
0.38709677 	0.010078001 	-0.0033797161 	2.7758495e-07 	0.019189212 	-2.1314462e-06 	0.0010615005
0.39784946 	0.010141762 	-0.0033898869 	8.5075286e-07 	0.019570537 	-3.5221882e-06 	0.00056847483
0.40860215 	0.010194346 	-0.0033962185 	1.2185361e-06 	0.019977134 	-5.0448418e-06 	7.1812984e-05
0.41935484 	0.010242766 	-0.0034017611 	2.8061124e-07 	0.020398453 	-4.5507132e-07 	0.00053712259
0.43010753 	0.010273993 	-0.0034026161 	2.2241021e-06 	0.020871347 	-3.6068586e-06 	0.0010132833
0.44086022 	0.010305221 	-0.0034034712 	2.6606962e-07 	0.02134424 	-4.3148897e-07 	0.0014894441
0.4516129 	0.010311004 	-0.0033885854 	1.0679257e-06 	0.021855796 	8.0065345e-08 	0.001999319
0.46236559 	0.010304153 	-0.0033733603 	1.9619988e-06 	0.022400219 	1.4709648e-07 	0.0024160809
0.47311828 	0.010322754 	-0.0033435747 	9.058076e-06 	0.022911955 	3.9116785e-06 	0.00047185646
0.48387097 	0.010256024 	-0.0033060816 	2.02429e-06 	0.023533372 	1.8452677e-06 	0.0033405167
0.49462366 	0.010191377 	-0.0032542832 	1.8718113e-06 	0.02416111 	1.7062737e-06 	0.0036941286
0.50537634 	0.010165049 	-0.0031747063 	1.3970648e-05 	0.024742287 	4.0743111e-06 	0.00024029238
0.51612903 	0.010080159 	-0.0030608534 	3.8514883e-06 	0.025374799 	3.4262226e-07 	0.0045852615
0.52688172 	0.010032364 	-0.002859085 	3.8432385e-06 	0.025933932 	3.4188837e-07 	0.0048717336
0.53763441 	0.010022187 	-0.0026230991 	1.2283028e-05 	0.026446786 	6.1512034e-06 	0.00056818401
0.5483871 	0.0098411485 	-0.0025478698 	1.0158063e-06 	0.027243297 	-3.5651448e-07 	0.005774442
0.55913978 	0.009877497 	-0.0022099975 	8.3537106e-06 	0.027651758 	-2.9318766e-06 	0.0059900032
0.56989247 	0.010011931 	-0.0017887598 	4.5278825e-06 	0.027902212 	8.2102453e-06 	0.0027197385
0.58064516 	0.010033895 	-0.0015009692 	2.9660306e-06 	0.02836494 	5.3781958e-06 	0.0045823922
0.59139785 	0.010074655 	-0.0012054438 	1.1392826e-05 	0.028815568 	-6.0499888e-06 	0.0072939232
0.60215054 	0.010246466 	-0.00079168514 	8.6852616e-07 	0.029053555 	5.9289524e-06 	0.0053900921
0.61290323 	0.010490247 	-0.0003513841 	2.1579285e-06 	0.02919395 	1.4730996e-05 	0.0027711661
0.62365591 	0.010625492 	-5.3374358e-05 	5.983349e-06 	0.029555382 	-3.6179898e-06 	0.0085840119
0.6344086 	0.010824107 	0.00033400965 	7.1518862e-08 	0.029812971 	3.850851e-06 	0.0072245229
0.64516129 	0.011068976 	0.00075051318 	3.2422038e-07 	0.029997383 	1.7457274e-05 	0.0024244892
0.65591398 	0.01127471 	0.0010486717 	4.8267833e-06 	0.030296934 	-3.077924e-06 	0.0095980321
0.66666667 	0.011502742 	0.001412031 	-1.66959e-07 	0.030545434 	5.2952434e-06 	0.0071003021
0.67741935 	0.011764366 	0.0017777466 	-3.6604538e-07 	0.030745416 	1.1609433e-05 	0.0044258501
0.68817204 	0.012001174 	0.0020761999 	6.3197388e-06 	0.031024121 	-4.5365025e-06 	0.010307147
0.69892473 	0.012259774 	0.0024262919 	-7.163538e-07 	0.031231744 	1.0175094e-05 	0.0041489404
0.70967742 	0.012525769 	0.0027244022 	-1.2863553e-07 	0.031468447 	1.8271399e-06 	0.0096583054
0.72043011 	0.012777216 	0.0030224421 	9.0611962e-07 	0.031720034 	-7.607953e-07 	0.010711148
0.7311828 	0.013062356 	0.0033498694 	-1.1114069e-06 	0.031878066 	1.0275869e-05 	0.0029163739
0.74193548 	0.013327541 	0.0036154126 	4.7238828e-06 	0.032122601 	-4.8120253e-06 	0.010996689
0.75268817 	0.013608618 	0.0039173529 	-1.3017199e-06 	0.032277869 	8.5955728e-06 	0.0025773943
0.76344086 	0.013885292 	0.0041744856 	2.0928455e-06 	0.032484301 	-2.6607488e-06 	0.011111205
0.77419355 	0.014161866 	0.0044465898 	-7.9520227e-07 	0.032637434 	3.944963e-06 	0.0061259574
0.78494624 	0.014444612 	0.0046984857 	9.4011555e-07 	0.032787727 	-1.5257454e-06 	0.011065315
0.79569892 	0.01471778 	0.0049483439 	-5.6737707e-07 	0.032913154 	2.1643537e-06 	0.0075062505
0.80645161 	0.014996963 	0.0051852763 	9.9542174e-07 	0.033013255 	-2.104177e-06 	0.010873171
0.8172043 	0.015265675 	0.0054166177 	-7.8203197e-07 	0.033084628 	2.3201707e-06 	0.0060729891
0.82795699 	0.015531291 	0.0056324068 	1.7720003e-06 	0.033139507 	-4.9727569e-06 	0.010551866
0.83870968 	0.015793353 	0.0058464346 	-1.5583152e-06 	0.033130033 	3.6015544e-06 	0.0011874682
0.84946237 	0.016035111 	0.00603759 	1.6047799e-06 	0.033143543 	-6.0975566e-06 	0.010119666
0.86021505 	0.016277371 	0.0062266123 	-2.3472897e-07 	0.033077769 	4.1866915e-07 	0.0085181762
0.87096774 	0.016496761 	0.0063996892 	-3.3707094e-07 	0.032990461 	4.5208143e-07 	0.0075414877
0.88172043 	0.01670399 	0.0065623239 	1.3140019e-06 	0.032843509 	-9.7693651e-06 	0.0093365625
0.89247312 	0.016896613 	0.0067158051 	5.8943122e-08 	0.032647296 	-6.4617234e-07 	0.0090327031
0.90322581 	0.01706234 	0.0068546485 	-9.6914747e-07 	0.032388529 	6.1585346e-07 	0.0021984221
0.91397849 	0.017194775 	0.0069822736 	1.8004034e-07 	0.032096107 	-2.9963345e-06 	0.0083363425
0.92473118 	0.017300439 	0.0071007293 	3.3300613e-07 	0.031707473 	-1.0274763e-05 	0.0079583583
0.93548387 	0.017376709 	0.0071982725 	-2.6167126e-07 	0.031255498 	-1.122313e-05 	0.0075544722
0.94623656 	0.01745222 	0.0072641524 	7.0105772e-09 	0.030700334 	-9.7520911e-06 	0.0071503926
0.95698925 	0.017468371 	0.0074074598 	1.2262947e-08 	0.03021672 	1.4295011e-06 	0.00011154108
0.96774194 	0.017510083 	0.0076542693 	8.2463008e-08 	0.030002718 	-1.8749008e-07 	0.0063834275
0.97849462 	0.017874831 	0.0080974118 	4.5424792e-07 	0.030410465 	5.8812947e-07 	0.0061713747
0.98924731 	0.018174308 	0.0084003063 	-3.5930282e-06 	0.030622255 	-1.1676639e-05 	0.0058312127
