0.4742268 	0.029245015 	-0.013687621 	1.8402754e-07 	0.048364121 	-6.3394836e-07 	0.0085822743
0.48453608 	0.039823492 	-0.018436889 	1.0600081e-08 	0.065767185 	-4.1069649e-08 	0.016469736
0.49484536 	0.033847488 	-0.016069374 	1.4501521e-05 	0.056577511 	-5.4512151e-05 	0.014200548
0.50515464 	0.027175164 	-0.013149693 	1.2562334e-06 	0.045785754 	-4.5929555e-06 	0.011945269
0.51546392 	0.021951952 	-0.010387794 	9.2316086e-06 	0.036285338 	-2.8738346e-05 	0.0087892507
0.5257732 	0.018569141 	-0.0076137382 	2.9048666e-05 	0.028120843 	-8.0633798e-05 	0.0074395392
0.53608247 	0.01693037 	-0.0052947642 	1.0848824e-05 	0.022390246 	-2.5452215e-05 	0.0064987881
0.54639175 	0.01651526 	-0.0034337306 	3.1506512e-06 	0.019038835 	-5.4235128e-06 	0.005966377
0.55670103 	0.016717126 	-0.0018824526 	2.2186956e-06 	0.017483517 	-2.2590313e-06 	0.0057624471
0.56701031 	0.017058827 	-0.00058666417 	5.3300699e-06 	0.017119744 	-1.9365489e-06 	0.0057608099
0.57731959 	0.017374695 	0.00050723381 	1.0587128e-05 	0.017458702 	2.1390394e-06 	0.0058710025
0.58762887 	0.01764197 	0.0014512051 	1.3269679e-05 	0.01818797 	8.7682343e-06 	0.0060434669
0.59793814 	0.017869952 	0.0022814226 	3.2438261e-06 	0.019126998 	3.2963679e-06 	0.0062526512
0.60824742 	0.018069151 	0.0030149294 	-1.0670569e-06 	0.020175295 	-1.6706786e-06 	0.00025429943
0.6185567 	0.018245232 	0.0036544422 	4.177048e-06 	0.021263192 	5.3651763e-06 	0.0064856899
0.62886598 	0.018410282 	0.0042312051 	6.8258661e-06 	0.022338134 	1.0102039e-05 	0.0067283022
0.63917526 	0.018568684 	0.0047563828 	-6.9741796e-07 	0.023382308 	-1.4465406e-06 	0.0018758824
0.64948454 	0.018717474 	0.0052139955 	4.4152804e-06 	0.02437567 	7.1110463e-06 	0.0069766032
0.65979381 	0.01886277 	0.0056327503 	1.8923332e-06 	0.025315097 	3.1681558e-06 	0.0072198633
0.67010309 	0.019003063 	0.0060070506 	-3.4173139e-09 	0.026189951 	-8.0973173e-09 	0.0071912434
0.68041237 	0.019137511 	0.0063340876 	3.5681573e-06 	0.026985377 	5.8898037e-06 	0.0074551228
0.69072165 	0.019268508 	0.0066344857 	-3.678393e-07 	0.02772468 	-9.0928708e-07 	0.0037675708
0.70103093 	0.019390996 	0.0068916504 	3.0884485e-06 	0.028388614 	4.5449752e-06 	0.0076741784
0.71134021 	0.019510199 	0.0071281555 	-3.5699872e-07 	0.028994839 	-9.1427626e-07 	0.0035680948
0.72164948 	0.019618492 	0.0073264785 	1.6242018e-06 	0.029527032 	1.3275215e-06 	0.0078708865
0.73195876 	0.019721655 	0.0075062188 	-1.0665974e-07 	0.03000481 	-2.8265199e-07 	0.0064322602
0.74226804 	0.019816284 	0.0076584861 	4.1764813e-07 	0.030419389 	-8.5171938e-07 	0.0080337227
0.75257732 	0.019904265 	0.00779279 	8.6891215e-08 	0.030784829 	-1.7719924e-07 	0.0080344193
0.7628866 	0.019984696 	0.0079073914 	-7.2062989e-08 	0.03109665 	-1.4842905e-06 	0.0081550313
0.77319588 	0.020058523 	0.0080069661 	-2.9409641e-08 	0.031366339 	-6.0575407e-07 	0.0081555454
0.78350515 	0.020124264 	0.0080922907 	-3.4745259e-07 	0.031591833 	-2.4409981e-06 	0.0082408914
0.79381443 	0.020184235 	0.0081668562 	-1.7188936e-08 	0.031783358 	-5.3359966e-08 	0.007755084
0.80412371 	0.020237533 	0.0082333721 	-7.7834082e-07 	0.031944447 	-4.7383504e-06 	0.0083022763
0.81443299 	0.02028734 	0.0082930923 	-1.5380616e-07 	0.032068601 	-5.4825122e-07 	0.0011267391
0.82474227 	0.020335818 	0.0083577748 	-7.2346286e-07 	0.032217289 	-4.6498613e-06 	0.0083497247
0.83505155 	0.020386148 	0.0084247529 	-1.0215622e-07 	0.03235156 	-8.7287198e-07 	0.008393463
0.84536082 	0.020441541 	0.008498962 	2.3805329e-08 	0.032489989 	8.5495201e-09 	0.0059404018
0.8556701 	0.020513284 	0.0085962354 	-4.4657548e-08 	0.032686202 	-3.0268539e-06 	0.0084446675
0.86597938 	0.020606351 	0.008716109 	3.0454793e-07 	0.032932168 	-6.836225e-07 	0.0085138087
0.87628866 	0.020732909 	0.0088672897 	2.3601199e-07 	0.033248867 	5.4796006e-07 	0.0032524717
0.88659794 	0.020914576 	0.0090704093 	1.3363341e-07 	0.033719722 	3.4273388e-07 	0.0064590132
0.89690722 	0.021183115 	0.0093401716 	8.6101024e-07 	0.034383483 	1.4788653e-06 	0.0087560955
0.90721649 	0.021573175 	0.0096895377 	2.3592401e-06 	0.035292972 	5.2642098e-06 	0.0089546546
0.91752577 	0.022135564 	0.01013724 	3.5996023e-06 	0.036530712 	9.2867989e-06 	0.0092231292
0.92783505 	0.022941988 	0.010703955 	3.6803007e-06 	0.038193329 	1.0474e-05 	0.0095738638
0.93814433 	0.02407556 	0.011406105 	1.5561188e-06 	0.040381539 	4.81551e-06 	0.010015772
0.94845361 	0.025633696 	0.012247599 	8.1018752e-07 	0.043160952 	2.9199869e-06 	0.0019507931
0.95876289 	0.02764448 	0.013248498 	3.0072006e-06 	0.046625634 	1.1395687e-05 	0.0118252
0.96907216 	0.030142146 	0.014183535 	3.9782781e-07 	0.050288226 	1.6291842e-06 	0.0048295445
0.97938144 	0.032626415 	0.015100706 	8.8793422e-07 	0.053949722 	3.8293838e-06 	0.01358779
0.98969072 	0.033366292 	0.015273076 	-1.2739751e-06 	0.054917783 	-4.5865462e-06 	0.013967172
