0.47916667 	0.040292123 	-0.018505036 	-6.7732214e-08 	0.066376324 	4.5646277e-07 	0.02567208
0.48958333 	0.037604177 	-0.017455192 	2.506201e-09 	0.06217424 	2.084117e-07 	0.0041826058
0.5 	0.032483969 	-0.015380779 	8.8175919e-07 	0.054267005 	-3.2743804e-06 	0.021181662
0.51041667 	0.027225131 	-0.013114614 	1.1056514e-05 	0.045825386 	-3.9710341e-05 	0.017776683
0.52083333 	0.022795261 	-0.010740368 	-1.1730098e-06 	0.037691589 	4.0431809e-06 	0.0035484847
0.53125 	0.019560296 	-0.0084766743 	-6.6311017e-07 	0.030647047 	2.0264547e-06 	0.0074947705
0.54166667 	0.017662412 	-0.0064114463 	3.1094924e-06 	0.025073776 	-7.6354817e-06 	0.010270438
0.55208333 	0.016820266 	-0.0046462553 	6.6487884e-06 	0.021175413 	-1.2876331e-05 	0.0094030951
0.5625 	0.016660461 	-0.0031164605 	4.8244334e-06 	0.01874458 	-6.3347162e-06 	0.0089660453
0.57291667 	0.016818405 	-0.001786555 	-6.2389008e-08 	0.017493208 	5.0739735e-08 	0.0085633936
0.58333333 	0.017061184 	-0.00064026394 	-1.0032401e-06 	0.017136376 	1.0615619e-07 	0.0041404012
0.59375 	0.017294256 	0.00035502822 	-1.3307579e-06 	0.017338686 	-7.1248081e-07 	0.0021115791
0.60416667 	0.017498386 	0.0012217994 	1.5478586e-06 	0.017899309 	6.1035926e-07 	0.0091080459
0.61458333 	0.017676286 	0.0019885525 	7.4874401e-06 	0.018683313 	5.9724115e-06 	0.0093797639
0.625 	0.017838889 	0.0026774236 	-6.8176584e-07 	0.019576885 	-1.0327088e-06 	0.0052883873
0.63541667 	0.017990344 	0.0032885533 	-3.6148032e-07 	0.020525438 	-6.7231599e-07 	0.0071755409
0.64583333 	0.018134628 	0.0038354363 	5.8022727e-06 	0.021488363 	7.7756085e-06 	0.010052673
0.65625 	0.018278603 	0.0043343253 	-9.8422912e-07 	0.022429156 	-2.0976581e-06 	0.0024070332
0.66666667 	0.018417257 	0.0047779374 	2.6772854e-06 	0.023348309 	4.0047286e-06 	0.010420127
0.67708333 	0.0185563 	0.0051838741 	-2.506268e-07 	0.024220452 	-5.8841654e-07 	0.0084770517
0.6875 	0.018692441 	0.0055479297 	-2.9122233e-08 	0.025043321 	-7.3588949e-08 	0.010491415
0.69791667 	0.018826539 	0.0058787536 	1.4571557e-07 	0.025816287 	2.2780812e-07 	0.011150042
0.70833333 	0.018957044 	0.0061756492 	-1.2583116e-07 	0.026525886 	-3.3795093e-07 	0.0096280662
0.71875 	0.019083932 	0.0064479957 	1.2459274e-08 	0.027195716 	1.730288e-08 	0.011493344
0.72916667 	0.019203514 	0.0066884764 	6.6255338e-08 	0.027794003 	9.201244e-08 	0.011494485
0.73958333 	0.019321348 	0.0069114734 	-1.5988111e-07 	0.028352104 	-4.544268e-07 	0.0093598522
0.75 	0.019432729 	0.0071131637 	5.4990728e-07 	0.028867371 	5.6463507e-07 	0.011801687
0.76041667 	0.019542201 	0.0072985777 	-2.2935998e-07 	0.029332013 	-6.9219752e-07 	0.0075258938
0.77083333 	0.019649772 	0.0074757362 	4.331584e-07 	0.029789651 	2.0973216e-07 	0.012059462
0.78125 	0.019755934 	0.0076398944 	-1.2440134e-07 	0.030198843 	-4.053442e-07 	0.0087901358
0.79166667 	0.019862215 	0.0077996562 	4.8350191e-08 	0.03060502 	-8.6126391e-09 	0.012276566
0.80208333 	0.019973479 	0.0079570056 	1.1178613e-07 	0.030995781 	-4.1567968e-08 	0.012471512
0.8125 	0.020089986 	0.0081114065 	-3.6514567e-08 	0.031364793 	-2.2928215e-07 	0.0062476887
0.82291667 	0.02022072 	0.0082794188 	9.8638598e-07 	0.031787251 	1.2115049e-07 	0.012664298
0.83333333 	0.020367832 	0.0084524285 	6.6267521e-08 	0.032199652 	4.8808009e-08 	0.0055305289
0.84375 	0.020539859 	0.0086471137 	4.3878041e-08 	0.032689902 	9.501785e-08 	0.011021396
0.85416667 	0.020752989 	0.0088684153 	1.6259091e-06 	0.033250736 	2.4061161e-06 	0.013111322
0.86458333 	0.021011637 	0.0091168001 	1.1225755e-07 	0.03388567 	2.8822756e-07 	0.010316787
0.875 	0.021337771 	0.0094032864 	5.659742e-07 	0.03463229 	1.5861066e-06 	0.0018664671
0.88541667 	0.021751454 	0.0097468406 	1.2521234e-07 	0.035588894 	3.7371304e-07 	0.011614309
0.89583333 	0.022286643 	0.010148755 	1.473435e-06 	0.036739073 	3.8217839e-06 	0.014182444
0.90625 	0.022972883 	0.010617494 	3.2339206e-06 	0.038132768 	9.1638341e-06 	0.014700979
0.91666667 	0.023848179 	0.011161118 	4.1534274e-06 	0.039819624 	1.2650028e-05 	0.015313998
0.92708333 	0.024954813 	0.011784439 	3.5972612e-06 	0.041840694 	1.1618786e-05 	0.016020409
0.9375 	0.026323491 	0.012486016 	1.0362631e-06 	0.044216985 	3.5440058e-06 	0.016810792
0.94791667 	0.027963584 	0.013245936 	5.4088218e-07 	0.04690207 	2.1096971e-06 	0.0064277057
0.95833333 	0.029813587 	0.01408884 	6.3444305e-08 	0.049938098 	2.5694198e-07 	0.017699676
0.96875 	0.031842346 	0.01475261 	4.3342529e-07 	0.052693159 	1.8801516e-06 	0.00089979852
0.97916667 	0.03361649 	0.015388089 	3.3388414e-07 	0.055280291 	1.5186661e-06 	0.021405769
0.98958333 	0.033635239 	0.015333857 	-1.0898538e-06 	0.055261925 	-4.1026832e-06 	0.021510548
