0.47777778 	1.9910457 	0.00014064667 	-9.4662043e-08
0.48888889 	2.4276959 	0.00017114385 	-7.5084301e-08
0.5 	2.6184276 	0.00032037725 	-1.1479771e-07
0.51111111 	2.7407653 	0.00045868458 	-9.2192535e-08
0.52222222 	2.8285145 	0.00063652542 	-5.659477e-07
0.53333333 	2.8952479 	0.00078725737 	1.7623393e-07
0.54444444 	2.9467854 	0.00093764481 	2.3429522e-07
0.55555556 	2.9867597 	0.0010758819 	-1.7443044e-07
0.56666667 	3.0175865 	0.0011968312 	-2.7242444e-07
0.57777778 	3.0411393 	0.0012931162 	-1.0081458e-07
0.58888889 	3.0586294 	0.0013654715 	1.3570464e-07
0.6 	3.0713103 	0.0014139422 	9.8791304e-09
0.61111111 	3.0799772 	0.0014340342 	-7.2917815e-07
0.62222222 	3.085685 	0.0014335054 	-1.5066875e-06
0.63333333 	3.0891289 	0.0014236642 	-1.7478017e-07
0.64444444 	3.0904113 	0.0013969628 	-2.5176988e-08
0.65555556 	3.0898239 	0.0013515589 	-1.6439063e-06
0.66666667 	3.0883205 	0.001311055 	-8.2255288e-09
0.67777778 	3.08525 	0.0012533673 	-5.9052936e-07
0.68888889 	3.0812222 	0.0011906321 	-8.6984837e-07
0.7 	3.0765087 	0.0011284745 	-4.4129218e-08
0.71111111 	3.0704085 	0.0010510703 	-1.2763944e-06
0.72222222 	3.0640935 	0.00098360638 	-4.2658524e-07
0.73333333 	3.0564798 	0.00090302892 	-1.2875728e-06
0.74444444 	3.0484295 	0.00083103726 	-4.7985069e-07
0.75555556 	3.0393301 	0.00075069692 	-1.2515296e-06
0.76666667 	3.0293524 	0.0006768667 	-7.0338617e-07
0.77777778 	3.0184378 	0.00059699429 	-1.4174315e-06
0.78888889 	3.0064821 	0.00052716389 	-3.1370554e-07
0.8 	2.9934174 	0.00045416333 	-7.0041855e-07
0.81111111 	2.9791574 	0.00038803252 	-5.2877678e-07
0.82222222 	2.9635649 	0.00032648059 	-3.1489389e-07
0.83333333 	2.9464146 	0.00026732204 	-7.8463015e-07
0.84444444 	2.9274881 	0.00021691349 	-5.245824e-07
0.85555556 	2.9065814 	0.00017311259 	-1.6494088e-07
0.86666667 	2.8833486 	0.00013402186 	-2.6741336e-08
0.87777778 	2.8572995 	0.00010128676 	-4.2927671e-07
0.88888889 	2.8280817 	7.5303315e-05 	-6.4999635e-07
0.9 	2.7949292 	5.5989966e-05 	-6.7905171e-07
0.91111111 	2.7569283 	4.2536286e-05 	-6.1237287e-07
0.92222222 	2.7128339 	3.38608e-05 	-4.5760737e-07
0.93333333 	2.6609186 	2.8261597e-05 	-1.827048e-07
0.94444444 	2.5984743 	3.230636e-05 	-1.0396385e-07
0.95555556 	2.5205448 	5.3622677e-06 	-2.1699e-07
0.96666667 	2.4179467 	3.0604907e-05 	-5.7090575e-08
0.97777778 	2.2664862 	9.4125108e-06 	-5.7367263e-08
0.98888889 	1.9764192 	4.1084069e-05 	-1.5537179e-08
