0.21649485 	0.0017220817 	-0.00046581076 	-1.8699698e-05 	0.0016414917 	4.7523233e-05 	0.00046057702
0.22680412 	0.022969942 	-0.0029579729 	2.1161529e-07 	0.02563573 	-1.425653e-07 	0.010859243
0.2371134 	0.01738635 	-0.0006576116 	5.217511e-07 	0.02993525 	1.0707116e-05 	0.0065457694
0.24742268 	0.014625361 	-0.0010236444 	-2.4899702e-07 	0.02958385 	-1.4533108e-06 	0.003597462
0.25773196 	0.013076217 	-0.0011503202 	-1.1893577e-06 	0.027154807 	-2.6471763e-05 	0.0017098913
0.26804124 	0.012054882 	-0.0012114516 	-8.7200933e-08 	0.02508631 	-4.0672484e-06 	0.00028600948
0.27835052 	0.011415315 	-0.0012316492 	8.366207e-07 	0.023776492 	-4.1167591e-07 	0.00067911339
0.28865979 	0.010926581 	-0.0012397305 	3.0068824e-06 	0.022802852 	-9.8023588e-07 	0.00097709178
0.29896907 	0.010570879 	-0.0012383253 	-2.3454519e-08 	0.022163304 	-1.4845237e-06 	0.0031720381
0.30927835 	0.010305009 	-0.0012407361 	-1.5900242e-07 	0.021719756 	-9.3149268e-06 	0.004084351
0.31958763 	0.010098831 	-0.0012393919 	-7.9354459e-08 	0.021421081 	-4.6273244e-06 	0.0049500041
0.32989691 	0.0099697698 	-0.0012542739 	1.1428264e-05 	0.021194289 	1.9671828e-08 	0.0018247206
0.34020619 	0.0098640237 	-0.0012486601 	9.1857553e-06 	0.021129833 	7.9593617e-07 	0.0035417133
0.35051546 	0.0097639348 	-0.001230429 	5.1780509e-07 	0.021161883 	4.4867274e-08 	0.0072782726
0.36082474 	0.0097545533 	-0.0012531677 	1.9876388e-05 	0.021133928 	3.1743067e-06 	0.0012221836
0.37113402 	0.0096956136 	-0.0012283932 	5.5884183e-06 	0.021296566 	1.2391921e-06 	0.0056463204
0.3814433 	0.0096930941 	-0.0012286054 	8.514056e-06 	0.02142546 	1.8879315e-06 	0.0039404843
0.39175258 	0.0096879777 	-0.0012173604 	7.7096715e-06 	0.021611519 	2.1023446e-06 	0.0036196026
0.40206186 	0.0096825718 	-0.001199157 	1.1319756e-06 	0.021859849 	3.0867757e-07 	0.0052530932
0.41237113 	0.0097035163 	-0.0011880783 	5.8943014e-06 	0.022090863 	1.8351714e-06 	0.0030596154
0.42268041 	0.0097092195 	-0.0011642868 	4.2169131e-08 	0.022400029 	-1.1112621e-06 	0.0044991886
0.43298969 	0.0097235122 	-0.0011390172 	4.1200686e-07 	0.022705318 	1.3793104e-07 	0.0037809168
0.44329897 	0.0097489391 	-0.0011174143 	8.5334999e-08 	0.023043938 	-8.6069623e-07 	0.0034659277
0.45360825 	0.0097670266 	-0.0010854491 	2.6699412e-07 	0.023402951 	-2.692926e-06 	0.002938447
0.46391753 	0.0097935594 	-0.0010581413 	9.5954905e-07 	0.023774483 	3.2547601e-07 	0.002199448
0.4742268 	0.0098100393 	-0.001017561 	1.0614941e-06 	0.024183028 	-4.7732177e-06 	0.0020519212
0.48453608 	0.0098338377 	-0.00098103042 	1.4561238e-06 	0.024584099 	4.6760316e-07 	0.0011128031
0.49484536 	0.0098474572 	-0.00093245996 	1.3085573e-06 	0.025032921 	-2.430824e-06 	0.0012350697
0.50515464 	0.0098637637 	-0.00088211336 	1.1377115e-06 	0.025481062 	-2.1134545e-06 	0.00083009394
0.51546392 	0.0098780911 	-0.0008281286 	5.5519383e-07 	0.025940851 	-2.9701163e-07 	0.00046734993
0.5257732 	0.0098869232 	-0.00075969935 	3.4650992e-06 	0.026429099 	-1.8537215e-06 	0.00012899776
0.53608247 	0.0098960974 	-0.00069230568 	1.2979075e-06 	0.026918251 	-6.9434062e-07 	0.00032742485
0.54639175 	0.0099009186 	-0.00061192677 	1.6368096e-06 	0.027422777 	9.8499078e-08 	0.0006804515
0.55670103 	0.0098983929 	-0.00051598588 	5.4370958e-06 	0.027948063 	3.2719072e-07 	0.00096592711
0.56701031 	0.0098958672 	-0.00042004498 	1.3739118e-06 	0.028473349 	8.2678551e-08 	0.0012514027
0.57731959 	0.0098922897 	-0.00030872787 	1.7452325e-06 	0.029002262 	3.1495328e-07 	0.0015904945
0.58762887 	0.0098769725 	-0.00017570764 	7.3545693e-06 	0.029544506 	1.3272419e-06 	0.0017966151
0.59793814 	0.0098616554 	-4.2687403e-05 	2.4222283e-06 	0.030086749 	4.3712728e-07 	0.0020027357
0.60824742 	0.0098546263 	9.6162415e-05 	3.0759314e-07 	0.030625668 	2.1406322e-08 	0.0023404921
0.6185567 	0.0098431605 	0.00027657275 	7.9068589e-06 	0.031157295 	5.5026182e-07 	0.0024655825
0.62886598 	0.0098316947 	0.00045698308 	4.2385948e-06 	0.031688923 	2.9497641e-07 	0.0025906729
0.63917526 	0.0098241857 	0.00063358646 	2.0997162e-06 	0.032212001 	-1.5238433e-07 	0.0012740077
0.64948454 	0.0098764459 	0.00086725382 	8.2638176e-06 	0.032661578 	-3.5732618e-06 	0.0029509269
0.65979381 	0.0099404236 	0.0011058448 	5.2390636e-06 	0.033082843 	-2.2653629e-06 	0.0029991431
0.67010309 	0.009986397 	0.0013342652 	1.3782254e-06 	0.033520522 	4.5257759e-07 	0.0017551818
0.68041237 	0.010149694 	0.0016034651 	9.7759175e-06 	0.033806569 	-1.1009472e-05 	0.003221463
0.69072165 	0.010351524 	0.0018800422 	3.7137521e-06 	0.034029969 	-4.1823645e-06 	0.0031999067
0.70103093 	0.010605767 	0.0021507195 	1.3238411e-06 	0.034172876 	-2.0823894e-06 	0.0034053584
0.71134021 	0.010902539 	0.0024352861 	1.0348368e-05 	0.034270191 	-1.6277885e-05 	0.0033201377
0.72164948 	0.011201621 	0.0027196445 	1.7365938e-07 	0.034362277 	4.5533114e-07 	0.002828219
0.73195876 	0.011520034 	0.002990663 	5.8878936e-06 	0.034426491 	-1.037239e-05 	0.0033186024
0.74226804 	0.011841686 	0.0032662717 	4.2203613e-06 	0.034491437 	-7.4347869e-06 	0.0031761418
0.75257732 	0.012174187 	0.0035325912 	1.7208181e-06 	0.034530388 	-3.4344927e-06 	0.0031863799
0.7628866 	0.012504705 	0.0037933207 	6.4891215e-06 	0.034570871 	-1.2951305e-05 	0.002993688
0.77319588 	0.01284106 	0.0040495285 	1.3457747e-07 	0.034593027 	5.8440109e-07 	0.0021692831
0.78350515 	0.013169313 	0.0042942568 	7.0117654e-06 	0.034611879 	-1.6042221e-05 	0.0026883716
0.79381443 	0.013504253 	0.0045389107 	2.6841844e-07 	0.034607709 	1.5335331e-06 	0.00012858614
0.80412371 	0.01382534 	0.0047677904 	6.3091097e-06 	0.03460016 	-1.6939535e-05 	0.0022715855
0.81443299 	0.0141516 	0.0049968584 	7.462732e-08 	0.034569424 	6.4342344e-07 	0.00081434355
0.82474227 	0.014464089 	0.0052112303 	4.7679138e-06 	0.034515559 	-1.5414192e-05 	0.0017576827
0.83505155 	0.014776423 	0.0054224794 	7.8402128e-07 	0.034442872 	-3.1256681e-06 	0.0014872182
0.84536082 	0.015076239 	0.0056218885 	2.75521e-06 	0.034335214 	-1.0984232e-05 	0.001163397
0.8556701 	0.015369001 	0.0058136869 	2.2127906e-06 	0.034198435 	-1.1122588e-05 	0.00084778899
0.86597938 	0.015651963 	0.0059976529 	5.880371e-07 	0.034034635 	-2.9557675e-06 	0.00050574137
0.87628866 	0.015917798 	0.0061686839 	2.6462234e-06 	0.033815925 	-1.706491e-05 	0.00015698773
0.88659794 	0.01617208 	0.0063334579 	1.2722631e-06 	0.033568052 	-1.0549345e-05 	0.00032896078
0.89690722 	0.016411153 	0.0064899939 	7.1863278e-08 	0.033278423 	-5.9587562e-07 	0.00069004261
0.90721649 	0.016621227 	0.0066362496 	9.7261057e-07 	0.032928796 	-1.0172838e-05 	0.0010598862
0.91752577 	0.016808564 	0.0067797663 	1.5391524e-06 	0.032538377 	-1.8176837e-05 	0.00142998
0.92783505 	0.016969342 	0.0069253405 	1.22175e-06 	0.032109627 	-1.3428939e-05 	0.0017971287
0.93814433 	0.017109565 	0.0070696564 	4.6486618e-07 	0.031652205 	-8.2145481e-06 	0.0021583211
0.94845361 	0.017272581 	0.0071993435 	6.9926532e-07 	0.031159992 	-6.3876073e-06 	0.0025182264
0.95876289 	0.017460142 	0.0074099573 	6.1559802e-07 	0.03076103 	-2.2604285e-06 	0.0028810323
0.96907216 	0.017751259 	0.0077100244 	1.4922145e-06 	0.030664604 	-1.701413e-06 	0.0032604237
0.97938144 	0.018240518 	0.0080652969 	-1.2682986e-07 	0.030826464 	2.1470895e-07 	0.0011210548
0.98969072 	0.017797248 	0.0081011894 	-4.6979933e-06 	0.029777691 	-1.935014e-05 	0.003984341
