0.47826087 	0.039785327 	-0.018383227 	7.2266421e-08 	0.065798074 	-2.4921992e-07 	0.022327332
0.48913043 	0.037841203 	-0.017542752 	4.3706625e-09 	0.062555579 	5.5531291e-08 	0.018339447
0.5 	0.03261216 	-0.015425312 	4.513655e-07 	0.054457447 	-1.6770709e-06 	0.021988067
0.51086957 	0.027237829 	-0.013115007 	5.6960913e-06 	0.045842406 	-2.0495792e-05 	0.018526369
0.52173913 	0.022697284 	-0.010673078 	-1.1930348e-06 	0.037486886 	4.145158e-06 	0.0027892649
0.5326087 	0.019435511 	-0.0083698605 	4.1547296e-06 	0.030347601 	-1.1925049e-05 	0.012175517
0.54347826 	0.017588162 	-0.0062689179 	1.7523031e-05 	0.024754574 	-4.3863945e-05 	0.01075193
0.55434783 	0.016786312 	-0.0044796438 	1.1682886e-05 	0.020883086 	-2.3439372e-05 	0.0098092432
0.56521739 	0.016671153 	-0.0029328914 	1.0196626e-05 	0.018540368 	-1.4222673e-05 	0.0093126621
0.57608696 	0.01685038 	-0.0015965554 	1.2650414e-05 	0.017408651 	-9.7269649e-06 	0.009148231
0.58695652 	0.017094973 	-0.00044484928 	7.3493038e-06 	0.017131109 	-1.3439158e-06 	0.0091989885
0.59782609 	0.017325424 	0.00055633772 	-1.9014359e-07 	0.017417503 	-8.8792759e-08 	0.0083839074
0.60869565 	0.017526093 	0.0014300984 	-1.4298372e-06 	0.018067336 	-1.4633351e-06 	0.0013260413
0.61956522 	0.017701808 	0.0021949935 	-2.8130825e-07 	0.018907265 	-4.1508706e-07 	0.0078883687
0.63043478 	0.017861354 	0.0028738346 	8.2216054e-06 	0.019855563 	8.7737931e-06 	0.009979148
0.64130435 	0.018014235 	0.0034864948 	-5.1781478e-07 	0.020840292 	-9.4954027e-07 	0.0065774485
0.65217391 	0.018162478 	0.0040311607 	-4.3555867e-07 	0.02182653 	-9.2164417e-07 	0.0069077943
0.66304348 	0.018307097 	0.0045191165 	4.6749282e-06 	0.02279343 	6.8903546e-06 	0.010715283
0.67391304 	0.018453445 	0.0049628549 	-1.0137473e-06 	0.023709845 	-2.3736705e-06 	0.0017086718
0.68478261 	0.018594109 	0.0053575686 	2.8443085e-06 	0.02459402 	4.448253e-06 	0.011098227
0.69565217 	0.01873584 	0.0057177945 	-4.3894733e-07 	0.025413005 	-1.1097293e-06 	0.0067929057
0.70652174 	0.018872413 	0.006040828 	7.9597716e-07 	0.026183978 	1.2460324e-06 	0.011474393
0.7173913 	0.019007422 	0.0063345631 	-2.407736e-07 	0.026892112 	-6.4858517e-07 	0.0088011159
0.72826087 	0.019134542 	0.0065959155 	5.1587747e-07 	0.027541759 	7.312461e-07 	0.011833989
0.73913043 	0.019260274 	0.0068362715 	-2.4250777e-07 	0.028137651 	-6.9280231e-07 	0.008403762
0.75 	0.019380081 	0.0070554113 	5.0288927e-07 	0.028696512 	5.6019208e-07 	0.012158864
0.76086957 	0.019498546 	0.0072564486 	-1.9466806e-07 	0.029200217 	-5.9175738e-07 	0.0085037154
0.77173913 	0.019615432 	0.0074483201 	1.2374533e-07 	0.029692991 	8.5199254e-08 	0.012434707
0.7826087 	0.019732646 	0.0076286728 	-2.1182352e-08 	0.030147495 	-6.9728532e-08 	0.012055641
0.79347826 	0.019850533 	0.0077998571 	-8.5933913e-08 	0.030569944 	-3.2663977e-07 	0.0083473142
0.80434783 	0.019976345 	0.0079752823 	6.8144417e-07 	0.03101405 	7.8547145e-08 	0.012884601
0.81521739 	0.02011027 	0.008145875 	-5.5595457e-08 	0.031416367 	-3.927002e-07 	0.0011835647
0.82608696 	0.020261245 	0.0083355519 	3.0005287e-07 	0.031905143 	1.5390897e-07 	0.013098538
0.83695652 	0.020437983 	0.0085371647 	4.6820029e-07 	0.032407128 	5.1415546e-07 	0.013328756
0.84782609 	0.020646838 	0.0087544587 	2.7348693e-07 	0.032935936 	6.0903989e-07 	0.0020959771
0.85869565 	0.020901884 	0.0090095108 	1.0109453e-07 	0.033605031 	2.6368156e-07 	0.010882075
0.86956522 	0.021225197 	0.0093036957 	1.7073899e-06 	0.034387367 	3.4885876e-06 	0.013911227
0.88043478 	0.02163271 	0.009643794 	1.5435152e-06 	0.035316198 	3.6610492e-06 	0.014294389
0.89130435 	0.022150888 	0.010040361 	3.1910847e-08 	0.036437941 	9.6282051e-08 	0.014182405
0.90217391 	0.022821067 	0.010505026 	2.8721122e-07 	0.037802953 	9.127265e-07 	0.010584759
0.91304348 	0.0236796 	0.011047592 	3.4230014e-07 	0.039472434 	1.1401268e-06 	0.010507649
0.92391304 	0.024771158 	0.011674176 	1.0539414e-07 	0.041494859 	3.6682227e-07 	0.014986762
0.93478261 	0.026138558 	0.012383713 	2.6899922e-06 	0.043884776 	9.2596944e-06 	0.017519725
0.94565217 	0.027783184 	0.013159689 	2.0422949e-06 	0.046629139 	7.3171641e-06 	0.018396572
0.95652174 	0.029648538 	0.013989727 	6.7349071e-07 	0.049591209 	2.7410613e-06 	0.00065547164
0.9673913 	0.031735141 	0.014710045 	2.2089136e-07 	0.052571315 	9.8354207e-07 	0.020910583
0.97826087 	0.033561427 	0.015367112 	5.574503e-07 	0.05520048 	2.5461919e-06 	0.022189837
0.98913043 	0.033780873 	0.015387535 	-1.6942599e-06 	0.055473507 	-6.3932568e-06 	0.022267067
