/*--------------------------------*- C++ -*----------------------------------*\
  =========                 |
  \\      /  F ield         | OpenFOAM: The Open Source CFD Toolbox
   \\    /   O peration     | Website:  https://openfoam.org
    \\  /    A nd           | Version:  7
     \\/     M anipulation  |
\*---------------------------------------------------------------------------*/
FoamFile
{
    version     2.0;
    format      ascii;
    class       volScalarField;
    location    "2000";
    object      nut;
}
// * * * * * * * * * * * * * * * * * * * * * * * * * * * * * * * * * * * * * //

dimensions      [0 2 -1 0 0 0 0];

internalField   nonuniform List<scalar> 
15296
(
0.0019786944
0.0019794796
0.0019804083
0.0019814476
0.0019825762
0.0019837799
0.0019850489
0.0019863763
0.0019877563
0.0019891842
0.001990656
0.0019921683
0.0019937181
0.0019953031
0.0019969209
0.0019985695
0.0020002473
0.0020019526
0.0020036841
0.0020054406
0.0020072204
0.0020090191
0.0020108486
0.0020126945
0.0020145266
0.0020173942
0.0020133171
0.0019910725
0.0021442377
0.0014029897
0.0010486565
0.00087719871
0.0006648246
0.00038995516
0.00037231763
0.00036866633
4.558136e-05
3.4860616e-05
0.001978704
0.0019794903
0.0019804189
0.0019814579
0.0019825861
0.0019837895
0.0019850582
0.0019863852
0.0019877649
0.0019891924
0.0019906639
0.0019921758
0.0019937253
0.0019953098
0.0019969271
0.0019985752
0.0020002524
0.002001957
0.0020036879
0.0020054435
0.0020072226
0.0020090195
0.0020108509
0.0020126925
0.0020145257
0.0020175226
0.0020129558
0.0019865903
0.0021561304
0.0014023584
0.0010360449
0.00086008882
0.00065326712
0.000389977
0.00036927255
0.00035856064
4.5665142e-05
3.3400397e-05
0.0019787255
0.0019795143
0.001980443
0.0019814817
0.0019826097
0.0019838128
0.0019850814
0.0019864083
0.0019877879
0.0019892154
0.0019906868
0.0019921986
0.001993748
0.0019953323
0.0019969494
0.0019985972
0.0020002739
0.0020019779
0.0020037081
0.0020054629
0.0020072412
0.0020090347
0.002010873
0.0020127004
0.0020145489
0.0020178127
0.0020120907
0.0019766879
0.0021760551
0.0013995985
0.0010098805
0.0008238562
0.00062571477
0.00038908445
0.00036322138
0.00037496459
4.7387274e-05
4.3195509e-05
0.0019787583
0.0019795511
0.0019804803
0.0019815187
0.0019826465
0.0019838495
0.0019851181
0.0019864451
0.0019878248
0.0019892524
0.0019907239
0.001992236
0.0019937856
0.0019953701
0.0019969872
0.0019986349
0.0020003113
0.002002015
0.0020037446
0.0020054985
0.0020072762
0.002009064
0.0020109179
0.002012711
0.0020146074
0.0020182506
0.0020108516
0.0019614871
0.0021984562
0.0014011153
0.00098069914
0.0007799902
0.0005890169
0.00038696221
0.00035328516
0.00038638893
4.8537305e-05
1.43917e-05
0.0019788026
0.0019796006
0.0019805305
0.0019815688
0.0019826962
0.001983899
0.0019851676
0.0019864948
0.0019878746
0.0019893025
0.0019907743
0.0019922868
0.0019938368
0.0019954218
0.0019970393
0.0019986873
0.0020003637
0.0020020672
0.0020037965
0.0020055494
0.0020073272
0.0020091052
0.0020109915
0.0020127124
0.0020147196
0.0020188421
0.0020092989
0.0019404457
0.0022161771
0.0014150396
0.00095891179
0.00073879362
0.00055025408
0.00038440224
0.00033800117
0.000402082
4.9021397e-05
1.1728836e-05
0.0019788744
0.0019796811
0.0019806125
0.0019816505
0.0019827774
0.0019839798
0.0019852483
0.0019865754
0.0019879554
0.0019893835
0.0019908558
0.0019923689
0.0019939196
0.0019955054
0.0019971238
0.0019987725
0.0020004493
0.0020021529
0.0020038822
0.0020056339
0.0020074132
0.0020091697
0.0020111334
0.0020126917
0.0020149531
0.0020197971
0.0020069795
0.0019071828
0.002221109
0.0014535006
0.0009509952
0.00070140987
0.00050764604
0.00038166985
0.00031327978
0.0004260168
5.0580783e-05
1.1421972e-05
0.0019789956
0.0019798176
0.0019807537
0.001981793
0.0019829198
0.0019841221
0.0019853905
0.0019867177
0.0019880977
0.0019895259
0.0019909984
0.0019925119
0.0019940634
0.0019956501
0.0019972695
0.0019989192
0.0020005967
0.0020023007
0.00200403
0.0020057801
0.0020075641
0.002009278
0.0020113998
0.0020126561
0.002015374
0.002021248
0.0020034661
0.0018633251
0.0021937781
0.0015051562
0.00096302915
0.00067795335
0.00046670968
0.00037660976
0.0002837503
0.00045474322
3.4159373e-05
7.935344e-06
0.001979171
0.0019800151
0.0019809606
0.0019820032
0.0019831311
0.0019843337
0.0019856022
0.0019869292
0.001988309
0.0019897369
0.0019912091
0.0019927226
0.0019942744
0.0019958617
0.0019974819
0.0019991326
0.002000811
0.0020025154
0.0020042452
0.0020059929
0.002007788
0.0020094226
0.0020118275
0.0020126236
0.0020159683
0.0020235201
0.0019977918
0.0018137701
0.0021198178
0.0015543422
0.00099924945
0.0006780575
0.00043886109
0.0003773268
0.00025397305
0.00049515012
1.366264e-05
3.4347942e-06
0.0019794194
0.0019802938
0.0019812548
0.0019823036
0.0019834341
0.0019846377
0.0019859064
0.0019872332
0.0019886123
0.0019900391
0.0019915102
0.0019930226
0.0019945737
0.0019961608
0.0019977813
0.0019994328
0.0020011119
0.002002817
0.0020045475
0.0020062912
0.0020081113
0.0020095957
0.0020124846
0.0020126893
0.002016652
0.0020277102
0.0019876031
0.0017587285
0.0019915665
0.0015799964
0.0010585232
0.00070320434
0.00042654996
0.00040143154
0.00022419782
0.00055730252
2.6926704e-06
6.0977705e-07
0.0019797656
0.0019806819
0.0019816646
0.0019827239
0.0019838593
0.0019850651
0.0019863346
0.001987661
0.0019890388
0.0019904636
0.0019919323
0.0019934422
0.0019949911
0.0019965765
0.0019981962
0.0019998475
0.0020015268
0.0020032325
0.0020049644
0.0020067
0.002008574
0.002009781
0.0020134298
0.0020131319
0.0020171374
0.0020361476
0.0019693465
0.001697432
0.0018137111
0.0015495812
0.0011280631
0.00074784732
0.00042568251
0.00048446376
0.00020389618
0.00033315262
1.5044834e-07
2.1336584e-08
0.0019802454
0.0019812158
0.0019822273
0.0019833026
0.0019844464
0.0019856564
0.0019869273
0.0019882534
0.0019896294
0.0019910512
0.0019925158
0.0019940212
0.0019955656
0.0019971471
0.0019987637
0.002000413
0.0020020913
0.0020037967
0.0020055307
0.0020072491
0.0020092333
0.0020099576
0.0020146412
0.0020145567
0.0020168583
0.0020531596
0.0019390284
0.001627928
0.0016059306
0.0014330076
0.0011757788
0.00079536328
0.00042639504
0.00072238556
0.00033148595
3.5188119e-05
2.4383359e-09
5.7993991e-11
0.0019809141
0.001981941
0.0019829916
0.0019840895
0.0019852463
0.0019864631
0.0019877366
0.0019890625
0.0019904361
0.0019918534
0.001993312
0.0019948102
0.0019963467
0.0019979206
0.0019995304
0.0020011744
0.0020028491
0.0020045515
0.0020062884
0.0020079699
0.0020101647
0.0020101231
0.0020158815
0.0020180013
0.0020151066
0.0020858726
0.0018941743
0.001548153
0.001393533
0.0012300092
0.0011569421
0.00081920153
0.00042840867
0.00082473243
0.0010905507
9.9271943e-07
6.6520065e-12
7.0850536e-15
0.0019818329
0.0019829253
0.0019840218
0.0019851496
0.001986325
0.0019875519
0.0019888297
0.0019901556
0.0019915259
0.0019929373
0.0019943873
0.0019958748
0.0019973993
0.0019989606
0.0020005582
0.0020021912
0.0020038575
0.0020055517
0.002007293
0.0020088986
0.0020114661
0.0020103597
0.0020165354
0.0020248163
0.0020116732
0.002145313
0.0018347285
0.0014593553
0.0011956452
0.00097555097
0.0010425111
0.00079170614
0.00044068586
0.0004881461
0.00013127786
6.1522415e-08
6.331204e-13
2.9903975e-16
0.001983092
0.0019842583
0.0019854037
0.0019865695
0.0019877701
0.0019890113
0.0019902955
0.001991622
0.0019929885
0.0019943923
0.0019958313
0.0019973046
0.0019988122
0.0020003549
0.0020019333
0.0020035476
0.0020051976
0.0020068752
0.0020086256
0.0020100835
0.0020132529
0.0020109522
0.0020155163
0.002035929
0.0020083379
0.0022499914
0.0017586815
0.0013721457
0.0010167629
0.00071442674
0.00085772045
0.00072421177
0.00033900279
0.0018166697
1.2148521e-05
9.7331233e-10
1.1057911e-14
4.7816347e-18
0.0019848364
0.0019860487
0.0019872523
0.0019884634
0.0019896954
0.0019909554
0.0019922485
0.0019935763
0.0019949385
0.0019963331
0.0019977585
0.001999214
0.0020006998
0.0020022173
0.0020037683
0.0020053545
0.0020069773
0.0020086268
0.0020103961
0.0020115884
0.0020156128
0.0020125215
0.0020115508
0.0020496891
0.0020113261
0.0024429341
0.0016493219
0.0013142786
0.00082752007
0.000472225
0.00071159186
0.00062394932
0.00026258464
0.0019211496
5.7596356e-08
1.5388113e-12
1.8828697e-16
5.7855955e-21
0.0019876449
0.0019889134
0.0019901835
0.0019914519
0.0019927258
0.0019940121
0.0019953178
0.0019966475
0.0019980031
0.0019993842
0.0020007901
0.00200222
0.0020036744
0.0020051547
0.0020066637
0.0020082049
0.0020097811
0.0020113791
0.0020131939
0.0020138814
0.0020191364
0.0020164272
0.002003366
0.0020607728
0.0020355528
0.0029775384
0.0014275947
0.0013473887
0.00047826958
0.0002354508
0.0013366175
0.00055805765
0.00010463301
5.279218e-05
1.0951395e-06
1.9868929e-11
2.3177925e-15
4.9707542e-20
0.0019920075
0.0019933549
0.0019946842
0.0019960032
0.0019973177
0.0019986313
0.0019999503
0.0020012806
0.0020026261
0.0020039885
0.0020053681
0.002006765
0.0020081794
0.0020096131
0.0020110686
0.0020125515
0.0020140626
0.0020155859
0.0020174874
0.0020173265
0.0020245612
0.002022215
0.0019942499
0.0020565824
0.0021142186
0.0056501339
0.00084920731
0.0030782785
3.9055647e-05
0.0023339236
1.1113523e-05
7.0119143e-07
3.3273483e-07
1.2474204e-07
2.537695e-07
1.6597505e-11
3.5404882e-15
5.1287234e-19
0.0019977825
0.0019991694
0.0020005333
0.0020018818
0.00200322
0.002004549
0.0020058731
0.002007198
0.0020085283
0.0020098668
0.002011215
0.0020125738
0.0020139436
0.002015326
0.0020167227
0.0020181423
0.0020195757
0.0020210163
0.0020230422
0.0020216569
0.0020319898
0.0020282806
0.001989572
0.0020056963
0.0024163515
0.0081688135
0.00041675782
0.032211972
1.1048888e-05
1.2203969e-08
1.3244543e-08
2.1233895e-08
1.4625567e-10
3.24949e-10
4.2662549e-10
6.1999683e-15
3.6224093e-15
8.618706e-19
0.0020052203
0.0020065995
0.0020079647
0.0020093145
0.0020106516
0.0020119753
0.0020132881
0.0020145947
0.0020158992
0.0020172047
0.0020185134
0.0020198264
0.0020211445
0.002022469
0.0020238003
0.0020251524
0.0020264909
0.0020278571
0.0020300348
0.0020269147
0.0020423816
0.0020325517
0.0019948721
0.0018841243
0.0033413855
0.0092204016
0.00051118964
0.00012341775
5.5239643e-07
1.3582761e-13
1.0735464e-10
3.0314679e-09
5.5058876e-15
1.2319633e-11
2.2174135e-12
1.759692e-17
2.3576376e-20
8.5515113e-19
0.0020145112
0.0020158653
0.0020172002
0.0020185179
0.0020198233
0.002021115
0.0020223939
0.0020236633
0.0020249263
0.0020261855
0.0020274428
0.0020286995
0.0020299564
0.0020312147
0.0020324724
0.0020337543
0.0020349751
0.0020362957
0.0020386319
0.0020331591
0.0020569833
0.0020314548
0.002004457
0.0018926862
0.0024589472
0.0080413595
0.00020919986
2.6324528e-05
3.8496082e-09
4.5679534e-13
3.3025303e-12
4.2621825e-14
4.7795509e-16
1.8412737e-15
1.2247459e-16
7.2251421e-24
1.8424327e-22
2.8440577e-20
0.0020258378
0.0020271354
0.0020284096
0.0020296656
0.0020309109
0.0020321439
0.0020333647
0.0020345755
0.0020357783
0.0020369749
0.0020381667
0.0020393548
0.0020405396
0.0020417226
0.0020428977
0.0020441074
0.0020451906
0.0020464902
0.0020489779
0.0020407402
0.0020763379
0.0020191289
0.0020514881
0.0017496115
0.00390771
0.0012353953
1.8457235e-05
3.2144042e-10
2.9501249e-14
1.7602294e-18
5.013978e-16
4.0412912e-14
5.3870302e-18
1.8820485e-20
4.6309929e-23
4.9204331e-29
9.8131529e-23
4.8398576e-21
0.0020392952
0.0020404925
0.0020416781
0.0020428498
0.0020440129
0.0020451648
0.0020463051
0.0020474358
0.0020485588
0.0020496752
0.002050786
0.0020518919
0.0020529927
0.0020540902
0.0020551745
0.0020563039
0.0020572568
0.0020584931
0.0020610801
0.0020509448
0.0020955461
0.0020147316
0.0020414708
0.0018571681
0.0046374656
0.0014099807
2.3600605e-05
3.0870007e-11
6.5645875e-16
3.9109066e-19
4.4433029e-17
2.5116959e-15
5.0250149e-18
1.0474299e-19
1.6468951e-22
4.9751812e-26
5.2211492e-22
1.7051469e-19
0.0020547998
0.0020558909
0.0020569767
0.0020580487
0.0020591113
0.0020601626
0.0020612028
0.0020622345
0.0020632597
0.0020642796
0.0020652946
0.0020663051
0.0020673106
0.0020683126
0.0020692997
0.0020703308
0.0020711992
0.0020722686
0.0020747072
0.0020653666
0.0021080306
0.002038646
0.0019290023
0.0027188641
0.0049700688
1.9234542e-06
2.8541595e-10
1.2374178e-13
4.7445058e-18
1.1781451e-18
1.2672754e-19
2.3093217e-18
1.0443937e-18
2.3282124e-20
4.5798735e-18
3.0243657e-22
4.1881769e-20
9.4566619e-18
0.0020721364
0.0020731382
0.0020741151
0.0020750709
0.0020760163
0.0020769517
0.0020778777
0.0020787973
0.0020797127
0.0020806247
0.0020815337
0.0020824397
0.002083342
0.0020842414
0.0020851293
0.0020860429
0.0020868807
0.0020876382
0.002090232
0.0020817931
0.0021146348
0.0020776032
0.0019794886
0.00258042
0.0039890194
8.905671e-05
2.9672495e-07
5.3356557e-11
9.2097946e-13
3.9630299e-18
4.2059181e-18
4.5654332e-18
2.1775574e-21
4.2872726e-22
4.9707279e-21
2.8834846e-21
1.0203099e-20
3.5430844e-18
0.002090943
0.0020917905
0.0020926358
0.0020934681
0.0020942928
0.0020951092
0.0020959177
0.0020967215
0.0020975234
0.0020983243
0.0020991245
0.0020999238
0.0021007212
0.0021015169
0.0021023067
0.0021031013
0.002103899
0.0021044904
0.0021063772
0.0021029882
0.0021131204
0.0021158204
0.0020867389
0.0018915952
0.003396415
0.0040942496
8.1916052e-06
2.7852978e-08
9.2956012e-13
3.448712e-18
7.5257999e-17
3.1606088e-17
3.6653924e-20
2.3146415e-21
2.1458647e-18
2.2705361e-18
3.3358409e-20
9.1059941e-19
0.0021103392
0.0021110724
0.0021117992
0.0021125128
0.00211322
0.0021139208
0.0021146156
0.0021153077
0.0021160001
0.0021166937
0.002117389
0.0021180855
0.0021187824
0.002119479
0.002120174
0.0021208669
0.0021215772
0.0021221868
0.0021230849
0.0021237607
0.0021224243
0.002129256
0.0021513039
0.0020266114
0.0018753104
0.0033959232
0.00025416471
2.5966623e-06
2.6135665e-11
5.1862194e-14
3.5065162e-16
1.2720274e-13
5.682319e-15
7.1554395e-15
7.3724707e-14
7.9450677e-19
9.6015418e-20
1.4256864e-19
0.0021291836
0.0021298446
0.0021304901
0.002131113
0.0021317221
0.0021323205
0.0021329109
0.0021334985
0.0021340874
0.0021346796
0.0021352757
0.0021358755
0.0021364782
0.0021370832
0.0021376892
0.002138297
0.0021389078
0.0021395181
0.0021400649
0.0021410797
0.0021408457
0.002139674
0.0021536658
0.0021826331
0.0017673143
0.0030930928
0.0035553985
1.590877e-05
3.6142682e-08
3.9216398e-12
2.3129207e-11
2.756909e-12
1.0194479e-12
7.6075974e-13
1.9346271e-12
8.9381581e-15
8.8634591e-19
6.1336538e-15
0.0021462987
0.0021468478
0.0021473805
0.0021478898
0.0021483848
0.0021488695
0.0021493479
0.0021498263
0.0021503095
0.0021507999
0.0021512984
0.0021518047
0.002152318
0.0021528375
0.0021533614
0.0021538927
0.0021544232
0.0021549669
0.0021555285
0.0021559469
0.0021571322
0.0021564938
0.0021505185
0.0022133121
0.0020459232
0.0020153424
0.0032153799
0.00043838979
7.6958505e-06
3.8264287e-09
6.8386247e-10
4.6721866e-10
5.4032916e-08
1.9914995e-07
1.3761217e-09
8.4818245e-13
1.4045928e-12
5.7975955e-13
0.0021597802
0.0021601629
0.0021605361
0.0021608922
0.0021612398
0.0021615835
0.0021619279
0.0021622798
0.0021626441
0.0021630231
0.0021634174
0.0021638264
0.0021642487
0.0021646832
0.0021651277
0.0021655854
0.0021660472
0.0021665208
0.0021670518
0.002167406
0.0021680325
0.0021699573
0.0021624476
0.0021828037
0.0022132761
0.0018858368
0.0030423607
0.0032175317
0.00024974093
1.2751009e-05
1.2139152e-06
4.1380947e-08
4.6404505e-07
3.9677215e-06
3.5769274e-07
1.56842e-09
2.8780011e-09
3.2161399e-10
0.0021668217
0.0021670368
0.0021672391
0.0021674247
0.0021676052
0.0021677872
0.0021679775
0.0021681844
0.0021684133
0.0021686664
0.0021689442
0.0021692455
0.0021695684
0.0021699112
0.0021702713
0.0021706513
0.0021710419
0.0021714548
0.0021718988
0.002172331
0.0021726002
0.00217412
0.0021736582
0.0021647846
0.0022291544
0.0020756412
0.0020320555
0.0031768001
0.0015513452
0.0026987098
0.00045835893
0.00010240157
3.388871e-05
1.6065502e-05
1.4012911e-05
2.3620226e-06
2.485906e-07
2.9830096e-07
0.0021641065
0.002164137
0.0021641472
0.0021641392
0.0021641281
0.0021641233
0.0021641349
0.0021641727
0.0021642427
0.0021643475
0.0021644871
0.00216466
0.0021648637
0.002165096
0.0021653539
0.0021656392
0.0021659434
0.0021662784
0.0021666433
0.0021670037
0.0021674148
0.0021678426
0.0021697
0.0021643759
0.0021731767
0.0022084476
0.0020088588
0.0023318293
0.0031609239
0.0033683053
0.0035908185
0.0033943437
0.0017643043
0.00082372916
0.00017791618
0.00019134887
1.8183082e-05
3.6858059e-06
0.0021478685
0.0021476366
0.0021473801
0.0021471098
0.0021468435
0.0021465928
0.0021463702
0.0021461866
0.002146048
0.0021459565
0.0021459113
0.0021459104
0.0021459505
0.0021460288
0.0021461423
0.0021462915
0.0021464699
0.0021466863
0.0021469418
0.0021471904
0.0021475666
0.0021478669
0.0021485432
0.0021490723
0.0021429206
0.0021695112
0.0021518213
0.0019969103
0.0024442043
0.0032585361
0.0035002895
0.0038180612
0.0041941704
0.0046687387
0.0032320989
0.0010277205
0.00047147547
0.00037857096
0.0021145729
0.0021139954
0.0021133855
0.0021127667
0.0021121603
0.0021115802
0.0021110418
0.0021105568
0.0021101307
0.0021097651
0.0021094586
0.0021092085
0.0021090111
0.0021088632
0.0021087618
0.0021087068
0.0021086932
0.0021087277
0.0021088085
0.0021089108
0.0021090959
0.0021093888
0.0021093841
0.0021104122
0.0021079962
0.0021135387
0.0021184967
0.0020760722
0.0020826938
0.0022442286
0.0025262342
0.0027692601
0.0028245245
0.0032626852
0.0045558553
0.003675108
0.004087919
0.0061352119
0.0020645201
0.0020635839
0.0020625839
0.0020615628
0.0020605503
0.0020595665
0.002058633
0.0020577645
0.0020569675
0.0020562442
0.0020555941
0.0020550142
0.0020545013
0.002054052
0.002053664
0.0020533363
0.0020530656
0.0020528563
0.002052705
0.0020525991
0.0020525723
0.00205264
0.0020525739
0.00205279
0.0020527644
0.0020530372
0.0020532152
0.0020504108
0.0020439856
0.0020527411
0.0020934305
0.0021500084
0.0021835941
0.0022755173
0.002595418
0.0031748847
0.0037270207
0.0047340741
0.0020011835
0.0019997786
0.0019982695
0.0019967281
0.0019951962
0.0019937031
0.0019922775
0.0019909366
0.0019896876
0.0019885332
0.0019874725
0.0019865023
0.001985619
0.001984819
0.0019840995
0.0019834589
0.0019828941
0.0019824073
0.0019819942
0.0019816474
0.0019813882
0.0019812094
0.0019810052
0.0019809008
0.0019809776
0.001980726
0.0019800467
0.00198011
0.0019799826
0.0019789607
0.0019822771
0.0019921192
0.0019988936
0.0020055014
0.0020788198
0.0022914269
0.0026244068
0.0033470548
0.0019262108
0.0019242136
0.0019220864
0.0019199327
0.0019178045
0.0019157403
0.0019137738
0.0019119219
0.0019101907
0.0019085811
0.0019070908
0.0019057152
0.0019044495
0.0019032895
0.0019022312
0.0019012722
0.0019004088
0.0018996411
0.0018989643
0.0018983729
0.0018978787
0.0018974693
0.001897081
0.0018967904
0.001896632
0.0018962927
0.0018957116
0.0018955013
0.001895913
0.0018964216
0.0018971491
0.0018986668
0.0018992787
0.0018966285
0.0018979079
0.0019425358
0.0020434218
0.0023990649
0.0018414332
0.0018387394
0.0018359078
0.0018330833
0.0018303257
0.0018276777
0.0018251711
0.001822817
0.0018206161
0.0018185654
0.0018166597
0.0018148925
0.0018132578
0.0018117504
0.0018103657
0.0018091004
0.0018079504
0.0018069141
0.0018059859
0.0018051614
0.0018044453
0.0018038247
0.0018032579
0.001802795
0.0018024418
0.0018020071
0.0018014727
0.0018011998
0.0018014672
0.0018020911
0.0018027163
0.0018033511
0.0018038964
0.0018035649
0.00180058
0.0018085234
0.0018173797
0.0019327946
0.0017489557
0.0017454902
0.0017419283
0.0017384311
0.0017350515
0.0017318303
0.001728794
0.0017259461
0.0017232821
0.0017207959
0.0017184796
0.0017163256
0.0017143274
0.0017124794
0.001710777
0.001709216
0.001707792
0.0017065019
0.0017053398
0.001704301
0.0017033857
0.0017025809
0.0017018585
0.0017012496
0.0017007518
0.0017002426
0.0016997253
0.0016994541
0.0016996303
0.0017001495
0.0017007407
0.0017013571
0.0017021835
0.0017033138
0.0017035528
0.0017066686
0.0017034846
0.0017420401
0.0016514055
0.0016469264
0.0016424752
0.0016382033
0.0016341371
0.0016303034
0.0016267128
0.0016233556
0.0016202192
0.0016172919
0.0016145632
0.001612024
0.0016096676
0.0016074882
0.0016054811
0.0016036419
0.0016019657
0.0016004483
0.0015990835
0.0015978657
0.0015967919
0.0015958496
0.0015950184
0.0015943175
0.0015937424
0.0015932149
0.0015927502
0.0015925364
0.0015927217
0.0015932413
0.0015939139
0.0015947083
0.0015958108
0.0015974527
0.0015991631
0.0016025998
0.0016018701
0.0016244321
0.0015477713
0.0015430482
0.0015381818
0.0015334117
0.0015288194
0.0015244692
0.0015203848
0.0015165597
0.0015129824
0.0015096412
0.0015065258
0.0015036281
0.0015009423
0.0014984641
0.0014961893
0.0014941139
0.0014922332
0.0014905424
0.001489035
0.0014877046
0.0014865461
0.0014855469
0.0014846912
0.001483991
0.0014834421
0.0014829957
0.0014826744
0.0014826218
0.0014829516
0.001483626
0.0014845305
0.0014856569
0.0014871578
0.0014892277
0.0014916339
0.0014957288
0.0014966644
0.0015175774
0.0014428764
0.0014370718
0.0014313094
0.0014257884
0.0014205551
0.0014156532
0.001411083
0.0014068216
0.0014028473
0.0013991428
0.0013956955
0.0013924974
0.0013895442
0.0013868334
0.0013843627
0.0013821293
0.0013801296
0.001378359
0.001376811
0.0013754786
0.0013743543
0.0013734251
0.0013726777
0.0013721187
0.0013717451
0.0013715278
0.0013714932
0.0013717541
0.0013724009
0.0013734138
0.0013747223
0.0013763336
0.0013783738
0.0013809948
0.0013840375
0.0013887503
0.001390658
0.0014112717
0.0013332995
0.0013272519
0.0013211742
0.001315303
0.0013097186
0.001304485
0.0012996033
0.0012950496
0.0012908027
0.0012868465
0.0012831717
0.001279775
0.0012766574
0.0012738211
0.0012712682
0.0012689994
0.0012670134
0.0012653067
0.0012638725
0.0012627023
0.0012617854
0.0012611067
0.0012606522
0.0012604238
0.0012604188
0.0012606204
0.0012610559
0.0012618154
0.0012629722
0.0012645175
0.0012664085
0.0012686586
0.0012713727
0.0012746692
0.0012784255
0.0012837736
0.001286583
0.0013066699
0.0012236624
0.0012168855
0.0012102223
0.0012038656
0.0011978812
0.0011923189
0.0011871606
0.0011823712
0.0011779239
0.0011738014
0.0011699968
0.0011665116
0.0011633528
0.0011605289
0.0011580474
0.0011559129
0.0011541262
0.0011526838
0.0011515763
0.0011507899
0.0011503072
0.0011501072
0.0011501712
0.0011504954
0.0011510753
0.0011519011
0.0011529981
0.001154439
0.0011562832
0.0011585281
0.0011611472
0.0011641545
0.0011676377
0.0011716885
0.0011762097
0.0011822101
0.0011859314
0.001205382
0.0011140561
0.0011065273
0.0010992305
0.0010923346
0.0010859143
0.0010800136
0.0010745979
0.0010696207
0.0010650475
0.0010608579
0.0010570458
0.0010536172
0.0010505848
0.0010479631
0.0010457647
0.0010439968
0.0010426595
0.0010417438
0.0010412313
0.0010410961
0.0010413074
0.0010418327
0.0010426455
0.0010437338
0.0010450907
0.0010467099
0.0010486151
0.0010508643
0.0010535063
0.0010565414
0.0010599533
0.0010637559
0.0010680255
0.0010728308
0.0010780941
0.0010847066
0.0010892844
0.0011080763
0.0010050489
0.00099652169
0.00098846449
0.00098098351
0.00097414736
0.00096797189
0.00096239602
0.00095735789
0.0009528122
0.00094873275
0.00094511327
0.00094196334
0.00093930145
0.00093714795
0.00093551841
0.00093441828
0.00093383875
0.00093375534
0.00093412928
0.00093491209
0.00093605267
0.00093750391
0.00093922987
0.0009412131
0.00094344547
0.00094592764
0.00094868384
0.00095176035
0.00095519651
0.00095899596
0.00096315012
0.00096767864
0.00097265291
0.00097811588
0.00098400407
0.00099110739
0.00099637916
0.0010145357
0.00089590889
0.00088654169
0.00087788021
0.00086997545
0.00086290044
0.0008566465
0.00085112813
0.00084626627
0.00084200305
0.00083830505
0.00083516476
0.00083259557
0.00083062159
0.00082926705
0.00082854478
0.00082844739
0.00082894202
0.00082997167
0.00083146344
0.00083333773
0.00083552164
0.00083796034
0.00084061531
0.00084347084
0.00084652435
0.00084979329
0.00085330756
0.00085709713
0.00086119333
0.00086560363
0.00087032614
0.0008753937
0.00088087944
0.0008867894
0.00089307513
0.00090044052
0.00090608816
0.00092376894
0.00078778091
0.0007775308
0.00076834344
0.00076016963
0.00075306181
0.0007469712
0.00074178489
0.00073740231
0.00073374414
0.00073076187
0.00072844204
0.00072679839
0.00072585887
0.00072564556
0.00072615387
0.00072734188
0.00072912896
0.00073140642
0.00073406202
0.00073698937
0.0007401082
0.00074338271
0.00074678261
0.00075030393
0.00075395762
0.00075778583
0.00076183358
0.00076610135
0.00077060334
0.00077534185
0.00078032489
0.00078557368
0.00079109821
0.0007968608
0.00080287522
0.00080987323
0.00081520306
0.00083214334
0.00068136151
0.00067046241
0.00066092963
0.0006526722
0.00064575837
0.00064011342
0.0006355938
0.00063205611
0.00062937478
0.00062746916
0.00062631361
0.00062592381
0.00062632435
0.00062751559
0.00062944671
0.0006320095
0.00063505502
0.00063841815
0.00064197277
0.00064561433
0.00064928713
0.00065302184
0.00065680312
0.00066062993
0.00066452038
0.00066851111
0.0006725252
0.00067649834
0.00068050754
0.00068461313
0.00068886472
0.00069328151
0.00069790025
0.00070278187
0.00070794235
0.00071406974
0.0007186669
0.00073453569
0.0005785781
0.00056668209
0.00055665816
0.00054839212
0.00054194808
0.00053716627
0.00053379455
0.00053156936
0.00053027001
0.00052977192
0.00053004754
0.00053111973
0.00053299627
0.00053561666
0.0005388395
0.00054246911
0.00054630539
0.00055016402
0.00055397414
0.0005576904
0.00056132468
0.00056485027
0.0005681344
0.00057124143
0.00057424968
0.00057720301
0.00058009548
0.00058296119
0.00058586395
0.0005888623
0.00059200448
0.00059533532
0.00059894286
0.00060288312
0.00060720275
0.00061248894
0.0006165399
0.00063105331
0.00049173771
0.00047858781
0.00046816095
0.0004602839
0.00045487945
0.00045155384
0.0004497975
0.00044914103
0.00044926813
0.00045005895
0.00045152548
0.00045369914
0.00045653877
0.00045989366
0.00046355018
0.00046726993
0.00047088871
0.00047429681
0.00047743077
0.00048018362
0.00048264239
0.00048484766
0.0004868331
0.00048866114
0.00049040054
0.00049212115
0.00049389215
0.00049577637
0.00049783665
0.00050011696
0.00050265129
0.0005054667
0.0005086358
0.00051218849
0.00051620446
0.00052113236
0.00052517395
0.0005382568
0.00042492451
0.00041142407
0.00040127868
0.00039439948
0.00039049611
0.00038881124
0.00038851866
0.00038899962
0.00038995176
0.00039134557
0.0003932615
0.00039573664
0.00039868574
0.00040190494
0.00040517281
0.00040826421
0.0004109826
0.00041324003
0.00041507333
0.00041652554
0.00041770059
0.0004187224
0.00041967298
0.00042061957
0.00042161948
0.0004227278
0.0004240039
0.0004255038
0.00042727338
0.00042933634
0.00043171161
0.00043440762
0.00043747598
0.00044092772
0.00044485129
0.00044959874
0.00045362959
0.00046573882
0.00036424751
0.00035038481
0.00034118074
0.00033620637
0.00033449041
0.00033461953
0.00033544152
0.00033636856
0.00033730633
0.0003384297
0.00033992195
0.00034184082
0.00034407181
0.00034641328
0.00034858776
0.00035032963
0.00035155645
0.00035230384
0.00035270459
0.00035288769
0.00035297826
0.00035310231
0.0003533515
0.00035378449
0.00035443645
0.00035533001
0.00035648758
0.00035793376
0.00035968859
0.00036175672
0.00036414417
0.00036684623
0.00036990268
0.00037331148
0.00037716805
0.00038174226
0.00038572213
0.00039697312
0.00030884325
0.0002956783
0.00028861226
0.00028655892
0.00028722684
0.00028843577
0.00028908786
0.00028907441
0.0002887602
0.00028858379
0.00028880673
0.00028947612
0.0002904321
0.00029134871
0.00029193013
0.00029207949
0.00029182839
0.00028927307
0.0002863224
0.00028351656
0.00028105746
0.000279045
0.00027751546
0.00027646606
0.00027587542
0.00027571721
0.00027596816
0.00027661355
0.00027764467
0.00027906889
0.00028089541
0.00028318664
0.00028594961
0.00028941237
0.00029334117
0.00029879919
0.00030334368
0.00031402842
0.00025972214
0.00024795675
0.00024474235
0.00024623532
0.00024807902
0.00024812876
0.00024641571
0.00024384408
0.00024126272
0.0002391908
0.00023783765
0.00023704465
0.00023433734
0.00023004727
0.00022546692
0.00022083189
0.00021635636
0.00021217934
0.00020842229
0.00020516616
0.00020244527
0.00020025459
0.00019856296
0.00019732978
0.00019651066
0.00019606512
0.00019596059
0.00019617533
0.00019669754
0.00019753042
0.00019868471
0.00020020606
0.00020211816
0.00020457611
0.00020747634
0.00021152431
0.00021507066
0.00022383446
0.00021567632
0.00020869042
0.00021139016
0.00021483683
0.00021399874
0.00020943705
0.00020344338
0.00019767333
0.00019290448
0.00018606473
0.0001786545
0.00017205084
0.00016617447
0.00016086326
0.00015601144
0.0001515955
0.00014762669
0.00014423823
0.00014142504
0.00013914007
0.00013733036
0.0001359417
0.00013491947
0.00013421502
0.00013378637
0.00013359933
0.00013362833
0.00013385731
0.00013427913
0.00013489647
0.00013571941
0.00013677521
0.00013808937
0.00013974686
0.00014171916
0.0001444037
0.00014681383
0.00015290258
0.00017819462
0.00018111774
0.00018930375
0.00018818324
0.00017889469
0.00016766193
0.00015781502
0.00014624092
0.00013473848
0.00012542622
0.00011807575
0.00011226133
0.00010764129
0.00010390935
0.0001008015
9.816878e-05
9.5937242e-05
9.409334e-05
9.262169e-05
9.1490302e-05
9.0658079e-05
9.0083138e-05
8.9725603e-05
8.9550127e-05
8.9528168e-05
8.9637946e-05
8.9864242e-05
9.0198367e-05
9.0637709e-05
9.1185429e-05
9.184981e-05
9.2647756e-05
9.3599896e-05
9.4753877e-05
9.6102219e-05
9.7877129e-05
9.946499e-05
0.00010350121
0.00015011252
0.00016975618
0.0001742135
0.00015709133
0.00013722169
0.00012122562
0.00010432538
9.157462e-05
8.2367465e-05
7.596844e-05
7.15458e-05
6.8402616e-05
6.607336e-05
6.4272178e-05
6.2830455e-05
6.1659404e-05
6.0716186e-05
5.9979222e-05
5.9433103e-05
5.9059481e-05
5.8837304e-05
5.8744646e-05
5.876044e-05
5.8865587e-05
5.9044929e-05
5.9287514e-05
5.9586235e-05
5.9937623e-05
6.0341524e-05
6.0800577e-05
6.1320508e-05
6.1911352e-05
6.2586824e-05
6.3373521e-05
6.4273787e-05
6.5422007e-05
6.6424584e-05
6.9117604e-05
0.00013894279
0.00017783358
0.00014835908
0.00011399223
8.8002589e-05
6.9694809e-05
5.7800769e-05
5.0372425e-05
4.5742509e-05
4.2852843e-05
4.1031828e-05
3.9839246e-05
3.9000528e-05
3.8363703e-05
3.7858327e-05
3.745869e-05
3.7157709e-05
3.6951554e-05
3.6833924e-05
3.679573e-05
3.6826814e-05
3.6916346e-05
3.7053849e-05
3.7229935e-05
3.7437802e-05
3.7672702e-05
3.7931829e-05
3.8214046e-05
3.8519634e-05
3.8849842e-05
3.9207558e-05
3.9596557e-05
4.0015569e-05
4.0484633e-05
4.1017819e-05
4.1679084e-05
4.2245544e-05
4.3925149e-05
0.00016957271
0.00012995359
8.7889786e-05
5.9663641e-05
4.2761901e-05