0.47916667 	3.1163892e-12 	-3.8248191e-18 	5.5867053e-20 	3.1143364e-12 	-1.0801426e-15 	2.0395202e-12
0.48958333 	4.619275e-14 	-5.3946454e-21 	6.9173933e-23 	4.6113919e-14 	4.9553771e-16 	4.8397977e-15
0.5 	2.0746001e-14 	-2.1695841e-18 	-4.2938479e-21 	2.0726955e-14 	-1.4399884e-18 	1.0769183e-14
0.51041667 	5.5450961e-14 	-5.2354599e-16 	-4.3914211e-18 	5.5363211e-14 	4.2943533e-16 	1.1452907e-14
0.52083333 	6.6275697e-13 	-7.4529668e-15 	-4.2677278e-17 	6.6217753e-13 	3.50438e-15 	9.5043854e-15
0.53125 	1.2061205e-11 	6.7928747e-14 	2.1688279e-16 	1.2062068e-11 	2.6579563e-14 	6.5868936e-12
0.54166667 	2.0374197e-10 	2.5069071e-12 	2.0948239e-14 	2.0386399e-10 	1.2797225e-12 	1.2734741e-10
0.55208333 	1.4978364e-09 	2.5720987e-11 	1.8214063e-13 	1.4994146e-09 	7.6385387e-12 	9.690367e-10
0.5625 	4.4469732e-09 	1.0294211e-10 	2.2457402e-13 	4.4544167e-09 	5.4754273e-12 	3.0856731e-09
0.57291667 	6.5224849e-09 	2.1042469e-10 	1.66699e-14 	6.5387361e-09 	1.94889e-13 	4.4932013e-09
0.58333333 	1.7563142e-08 	1.0790174e-09 	9.4470305e-12 	1.7643043e-08 	1.794467e-10 	6.5480594e-09
0.59375 	4.4653402e-08 	4.4282056e-09 	6.206932e-11 	4.4979435e-08 	6.4775934e-10 	3.3820642e-09
0.60416667 	9.8019229e-08 	1.2620353e-08 	2.8205382e-11 	9.9025703e-08 	1.9754369e-10 	3.3621122e-08
0.61458333 	2.459377e-07 	3.5187631e-08 	1.1880319e-10 	2.4885409e-07 	7.6689077e-10 	1.5954711e-07
0.625 	3.0172899e-07 	4.5606474e-08 	2.7196492e-10 	3.0520519e-07 	1.5736052e-09 	9.7941376e-08
0.63541667 	2.8797513e-07 	4.3738839e-08 	1.4333111e-10 	2.9128778e-07 	7.4944907e-10 	1.3287086e-07
0.64583333 	2.4272067e-07 	3.5259703e-08 	-8.9574564e-11 	2.4534644e-07 	-5.3437994e-10 	1.421819e-07
0.65625 	1.9694867e-07 	2.8374582e-08 	2.603488e-10 	1.9882136e-07 	1.3028668e-09 	1.9474569e-08
0.66666667 	1.4345138e-07 	1.8519841e-08 	-4.4864073e-11 	1.4474819e-07 	-2.7514312e-10 	8.1156821e-08
0.67708333 	1.258976e-07 	1.5088049e-08 	3.3686221e-11 	1.2690016e-07 	1.8079486e-10 	5.4515463e-08
0.6875 	1.2884117e-07 	1.4285152e-08 	-6.4641221e-14 	1.2979794e-07 	5.8160434e-13 	6.6991492e-08
0.69791667 	1.5406371e-07 	1.633898e-08 	6.1148054e-12 	1.5517494e-07 	5.5482087e-11 	9.0949095e-08
0.70833333 	1.9563065e-07 	2.1130223e-08 	2.4199917e-11 	1.9698348e-07 	1.3740364e-10 	8.1412341e-08
0.71875 	2.6404097e-07 	3.0308896e-08 	3.4902992e-11 	2.6603593e-07 	2.0287216e-10 	1.5944264e-07
0.72916667 	4.8370516e-07 	6.8203871e-08 	4.7285355e-11 	4.8744654e-07 	2.7484412e-10 	1.5986471e-07
0.73958333 	8.7247665e-07 	1.4660621e-07 	1.1352392e-10 	8.8037717e-07 	3.7001039e-10 	4.7541575e-07
0.75 	4.295472e-06 	1.1555752e-06 	6.9002637e-09 	4.3320097e-06 	2.3491608e-08 	5.8541772e-07
0.76041667 	1.1035297e-05 	3.3726923e-06 	2.5247449e-09 	1.1140004e-05 	1.7532544e-09 	5.2263736e-06
0.77083333 	4.8659153e-05 	1.8721995e-05 	1.2234517e-07 	4.8983263e-05 	2.9923739e-07 	8.1655172e-06
0.78125 	0.00012754339 	5.3901146e-05 	2.607936e-08 	0.00012838629 	2.0876914e-08 	6.7258601e-05
0.79166667 	0.00026923397 	0.00011223168 	9.6048116e-08 	0.00027105872 	2.3639763e-07 	9.1012553e-05
0.80208333 	0.00048963419 	0.0002031093 	2.0392519e-07 	0.00049356196 	5.929562e-07 	0.00029335028
0.8125 	0.00070136729 	0.00027391332 	1.4797938e-07 	0.00070784364 	1.723269e-07 	0.00015238519
0.82291667 	0.00090308998 	0.00032885154 	7.4274442e-07 	0.0009139551 	2.9730536e-06 	0.00047021011
0.83333333 	0.0010822001 	0.00037073519 	1.2473957e-07 	0.0010963881 	2.0829725e-07 	0.00026954792
0.84375 	0.0012407011 	0.00040511018 	1.7378312e-08 	0.0012584112 	3.9469315e-08 	0.00053833115
0.85416667 	0.0013733727 	0.00043164312 	2.8866446e-07 	0.001392931 	1.4664958e-06 	0.00070824352
0.86458333 	0.0014853033 	0.00045569512 	2.1689658e-08 	0.0015050952 	6.2300815e-08 	0.00062233131
0.875 	0.001574285 	0.00047871761 	6.5944584e-08 	0.0015924302 	2.2437762e-07 	0.00011182305
0.88541667 	0.0016437934 	0.00050230924 	7.009068e-09 	0.001661637 	2.7230806e-08 	0.00072556051
0.89583333 	0.0016896202 	0.00052646378 	1.0029887e-07 	0.0017056112 	9.5465747e-08 	0.00085905708
0.90625 	0.0017133134 	0.00055208926 	1.8441026e-07 	0.0017267422 	-7.0857415e-08 	0.00087242004
0.91666667 	0.0017137928 	0.00058027308 	2.2329027e-07 	0.0017241638 	-3.2079594e-07 	0.00087199276
0.92708333 	0.0016877063 	0.00061441454 	2.4333361e-07 	0.0016948808 	-4.3862206e-07 	0.00085867239
0.9375 	0.001631449 	0.00067121184 	1.3266855e-07 	0.0016342491 	-1.9027592e-07 	0.00083342477
0.94791667 	0.0015411026 	0.00071601608 	3.8266297e-08 	0.00153793 	8.1098407e-08 	0.00029980176
0.95833333 	0.0014223645 	0.00066026076 	4.1598198e-09 	0.0014173063 	8.8871338e-09 	0.00066703108
0.96875 	0.0012923289 	0.00059943246 	9.5770424e-08 	0.0012857874 	2.0606793e-07 	3.0095894e-05
0.97916667 	0.0010088031 	0.00046867614 	-2.4005517e-07 	0.0010057975 	-5.1489471e-07 	0.00052509404
0.98958333 	0.00029002394 	0.00013476053 	-3.3723441e-07 	0.00028958939 	-7.2410033e-07 	0.00015538006
