0.47777778 	0.30368304 	4.809299e-05 	-6.230744e-08
0.48888889 	0.75086977 	0.00031081556 	-8.1595486e-08
0.5 	1.110433 	0.00072168478 	-1.3967986e-07
0.51111111 	1.3472741 	0.0011092534 	-1.2475271e-07
0.52222222 	1.4636283 	0.0013260555 	-3.9520126e-07
0.53333333 	1.5073223 	0.0013774356 	-1.3575749e-08
0.54444444 	1.515712 	0.0013283785 	-1.8282339e-08
0.55555556 	1.512999 	0.0012485833 	-1.0044979e-07
0.56666667 	1.5066741 	0.0011689747 	-1.1545767e-07
0.57777778 	1.4983813 	0.0010964414 	-6.0562538e-08
0.58888889 	1.4903156 	0.00103974 	-1.1697393e-07
0.6 	1.4837939 	0.0010006897 	-6.6134231e-09
0.61111111 	1.4785404 	0.00096749355 	-1.5225944e-07
0.62222222 	1.4740168 	0.00093709466 	-3.0091334e-07
0.63333333 	1.4700099 	0.00090978068 	-7.433809e-08
0.64444444 	1.4662185 	0.0008812004 	-4.5823374e-08
0.65555556 	1.4623469 	0.00084989007 	-3.6500865e-07
0.66666667 	1.4585819 	0.00082153323 	-4.2918317e-08
0.67777778 	1.454565 	0.00078957681 	-1.5291473e-07
0.68888889 	1.4503631 	0.00075866023 	-1.9036821e-07
0.7 	1.4460889 	0.0007295048 	-3.2815413e-08
0.71111111 	1.4410592 	0.00069549965 	-2.3582411e-07
0.72222222 	1.436061 	0.00066400048 	-4.1995351e-08
0.73333333 	1.4300911 	0.00061853316 	-2.2252152e-07
0.74444444 	1.423947 	0.00057262188 	-9.4628655e-08
0.75555556 	1.4178006 	0.00051245447 	-2.0961062e-07
0.76666667 	1.4113797 	0.00044842068 	-3.3344639e-07
0.77777778 	1.4056365 	0.000379749 	-2.2216615e-07
0.78888889 	1.399748 	0.00030908156 	-4.6870561e-08
0.8 	1.3942289 	0.00023674389 	-1.1296257e-07
0.81111111 	1.3885484 	0.00016543211 	-7.6404056e-08
0.82222222 	1.3827213 	9.5295143e-05 	-1.3902077e-07
0.83333333 	1.3767425 	3.1997038e-05 	-8.1210264e-08
0.84444444 	1.3704032 	-2.7940504e-05 	-4.067351e-08
0.85555556 	1.3636647 	-8.3432314e-05 	-6.449485e-08
0.86666667 	1.3563654 	-0.00013064316 	-4.8583279e-09
0.87777778 	1.3482715 	-0.00016911481 	-1.8860797e-09
0.88888889 	1.3391645 	-0.00019899555 	2.0237339e-08
0.9 	1.3286888 	-0.00021904473 	4.4641902e-08
0.91111111 	1.3163935 	-0.00022814083 	5.7871517e-08
0.92222222 	1.3016641 	-0.00023282635 	5.6851042e-08
0.93333333 	1.283193 	-0.00022604209 	3.3475891e-08
0.94444444 	1.2549858 	-0.0001958023 	1.0977661e-07
0.95555556 	1.1936574 	-0.00014807704 	4.524889e-08
0.96666667 	1.0698797 	-6.8172444e-05 	5.1198887e-08
0.97777778 	0.85337473 	-4.7143519e-06 	-1.7052661e-10
0.98888889 	0.4946298 	1.0806819e-05 	-3.0382308e-09
