8.2204959e-36 	0.0079767391 	-5.4172628e-16 	-1.9690797e-22 	1.9063467e-18 	8.6741493e-33 	1.9286704e-18
0.010869565 	0.007870914 	0.00064802133 	1.1195423e-06 	0.008569974 	-3.4852348e-05 	0.0024700753
0.02173913 	0.0076832449 	0.0017287549 	2.1147562e-06 	0.0085232291 	-2.1473077e-05 	0.0029558064
0.032608696 	0.0074570088 	0.0030376216 	4.2601501e-07 	0.0084500804 	-4.3241307e-06 	0.00340802
0.043478261 	0.0072177759 	0.0040653489 	-1.5444721e-06 	0.0083428059 	-1.556363e-05 	0.0038048702
0.054347826 	0.0070188925 	0.0044319357 	1.1291668e-06 	0.008160105 	-2.4066288e-07 	0.0015426166
0.065217391 	0.0069068181 	0.0038498201 	3.9954704e-06 	0.0078793751 	1.6658006e-07 	0.0013870006
0.076086957 	0.0068825481 	0.0028956426 	6.4413376e-06 	0.0076344644 	6.6758227e-07 	0.0017185045
0.086956522 	0.0069117478 	0.0017564365 	-2.0103863e-06 	0.0073990914 	-1.6719304e-06 	0.0050885097
0.097826087 	0.0070260629 	0.00045459952 	-3.1298867e-07 	0.007142596 	-2.5029863e-07 	0.0053211179
0.10869565 	0.0072136288 	-0.00090452655 	1.5726931e-05 	0.0068498231 	2.7922707e-06 	0.00089873027
0.11956522 	0.0074025975 	-0.0021247479 	5.5066576e-06 	0.0065937814 	1.0061042e-06 	0.004316758
0.13043478 	0.0076306431 	-0.0033398234 	5.0117836e-06 	0.0063324472 	9.1568727e-07 	0.0046563129
0.14130435 	0.007845653 	-0.0044198847 	1.8388827e-05 	0.0061003319 	3.2392484e-06 	0.00090780191
0.15217391 	0.0080335227 	-0.0053738184 	-1.2721628e-06 	0.0059086856 	-1.5419141e-06 	0.0064222606
0.16304348 	0.0081810938 	-0.0060770802 	1.6631592e-05 	0.0057114462 	3.0614521e-06 	0.00081853751
0.17391304 	0.0082944018 	-0.0066923194 	1.9624853e-06 	0.0055455055 	4.0921632e-07 	0.0056523881
0.18478261 	0.0083193363 	-0.0070005016 	1.0128528e-05 	0.0053700092 	2.1119949e-06 	0.0012650718
0.19565217 	0.0083160039 	-0.0072605433 	4.892814e-07 	0.0052158119 	1.3554695e-07 	0.0053471603
0.20652174 	0.0081699816 	-0.0071789468 	4.3979835e-06 	0.005051901 	1.2183853e-06 	0.00081817311
0.2173913 	0.00803044 	-0.0071295376 	3.244119e-06 	0.0049003637 	-1.955696e-06 	0.0050819128
0.22826087 	0.0076930217 	-0.0066929308 	-1.5704698e-06 	0.0047309254 	2.4852809e-07 	0.00028472324
0.23913043 	0.0074171867 	-0.0063822033 	-2.2981471e-08 	0.0045633953 	3.6368358e-09 	0.0041693871
0.25 	0.0069517425 	-0.005760576 	-3.5399339e-06 	0.0043863573 	-3.9485065e-07 	0.0019010482
0.26086957 	0.0064994421 	-0.005164718 	-2.515963e-06 	0.0041991682 	-2.8063508e-07 	0.0020319042
0.27173913 	0.006025925 	-0.0045577525 	2.0201233e-06 	0.0040157088 	-8.5244876e-07 	0.0032320375
0.2826087 	0.0054785126 	-0.0038530302 	-7.8016505e-06 	0.0038207556 	-1.3195851e-06 	0.00012050438
0.29347826 	0.0050116432 	-0.003265669 	3.4577048e-06 	0.0036329243 	-1.6152585e-06 	0.0024393421
0.30434783 	0.0045454506 	-0.0027062246 	-1.5267017e-06 	0.0034568529 	-3.6555778e-07 	0.0018525258
0.31521739 	0.004104758 	-0.0021795353 	-4.5369378e-06 	0.0032866089 	-1.0863372e-06 	0.000619591
0.32608696 	0.0037258644 	-0.0017382942 	8.2805155e-06 	0.0031307043 	-4.8637342e-06 	0.0017490164
0.33695652 	0.0033886023 	-0.0013670941 	-1.2880085e-06 	0.0029844742 	-4.493741e-07 	0.0012181595
0.34782609 	0.0030903416 	-0.0010398994 	-2.513589e-06 	0.0028540444 	-8.7696765e-07 	0.00057700596
0.35869565 	0.0028385797 	-0.0007740687 	5.647698e-06 	0.0027347721 	-4.8266917e-06 	0.0012822382
0.36956522 	0.0026190608 	-0.00055953283 	-2.2295361e-07 	0.0026144926 	-1.1309143e-07 	0.0011223563
0.38043478 	0.0024340228 	-0.00038409773 	-1.5860223e-06 	0.0025052519 	-8.0449706e-07 	0.00029332758
0.39130435 	0.0022729065 	-0.00023359938 	2.0847116e-06 	0.0024115341 	-3.0022421e-06 	0.00097319403
0.40217391 	0.002140564 	-0.00012443406 	1.4331619e-06 	0.0023124158 	-2.0639302e-06 	0.00094499738
0.41304348 	0.0020287646 	-3.5911338e-05 	-6.5940839e-07 	0.0022155585 	-5.3170287e-07 	0.00013000479
0.42391304 	0.0019253154 	4.8266934e-05 	1.1005461e-07 	0.0021418524 	-2.6713876e-07 	0.0007669317
0.43478261 	0.0018537337 	0.0001015363 	1.9651883e-06 	0.0020698382 	-4.7701588e-06 	0.00074699679
0.44565217 	0.001783811 	0.00015386451 	-6.3701653e-09 	0.0019983346 	-2.0759609e-08 	0.00066857453
0.45652174 	0.0017360175 	0.00019313233 	-5.0559718e-08 	0.0019400761 	-1.647681e-07 	0.00021952196
0.4673913 	0.0016953075 	0.0002312578 	6.2357163e-07 	0.0019015429 	-1.6272108e-06 	0.00062204575
0.47826087 	0.001668956 	0.00026612129 	9.8166329e-07 	0.0018691245 	-2.5616514e-06 	0.00060776052
0.48913043 	0.0016473259 	0.00030035638 	2.9407983e-09 	0.001839301 	-2.9610723e-08 	0.00045534722
0.5 	0.0016418903 	0.00033050668 	5.5245599e-09 	0.0018278699 	-5.5626465e-08 	0.00031410226
0.51086957 	0.0016417356 	0.00036281164 	7.9804853e-07 	0.001832604 	-9.4065572e-07 	0.0005570866
0.52173913 	0.0016479606 	0.00039708891 	8.0374192e-07 	0.0018409183 	-9.4736649e-07 	0.0005462675
0.5326087 	0.0016599536 	0.00043097798 	-7.7839364e-08 	0.001851587 	-5.7039445e-08 	0.00034392891
0.54347826 	0.0016790975 	0.00045993767 	-3.426396e-08 	0.001880693 	-2.5108084e-08 	0.00046832937
0.55434783 	0.0017033221 	0.00049430092 	1.0293426e-06 	0.0019204766 	8.6319862e-08 	0.0005489973
0.56521739 	0.001729063 	0.00052966106 	4.6379876e-07 	0.0019604114 	3.88938e-08 	0.00054024567
0.57608696 	0.0017659974 	0.00056338316 	-4.8580807e-07 	0.0019989283 	-2.3076793e-07 	5.5436206e-05
0.58695652 	0.001792222 	0.00058887823 	3.4306389e-07 	0.0020623072 	3.4886854e-07 	0.00057897068
0.59782609 	0.0018269498 	0.00062166514 	7.7757555e-07 	0.0021221612 	7.9073214e-07 	0.00057163847
0.60869565 	0.0018643268 	0.00065426321 	-1.8426842e-07 	0.002180381 	-8.0201828e-08 	0.00044454583
0.61956522 	0.0019001779 	0.00067570935 	3.4477938e-08 	0.0022498922 	6.8367897e-08 	0.00062197415
0.63043478 	0.0019377131 	0.00070441879 	7.2469695e-07 	0.0023212404 	1.4370351e-06 	0.00061580207
0.64130435 	0.0019752482 	0.00073312823 	5.6425627e-08 	0.0023925886 	1.1188898e-07 	0.00060963
0.65217391 	0.0020151808 	0.00075183779 	-1.272635e-07 	0.002465251 	-5.4840965e-08 	0.00059557109
0.66304348 	0.0020497253 	0.00077338762 	3.8354571e-07 	0.0025433466 	1.4917127e-06 	0.00066394642
0.67391304 	0.0020855304 	0.00079593725 	2.6521468e-08 	0.0026200789 	1.0314914e-07 	0.00065882238
0.68478261 	0.0021206176 	0.00080632121 	2.2277429e-09 	0.0026965956 	7.3584276e-08 	0.00071461045
0.69565217 	0.0021521407 	0.00082110353 	3.7236969e-08 	0.0027737151 	1.2299693e-06 	0.00071044535
0.70652174 	0.0021894987 	0.00083752576 	-5.8423174e-07 	0.0028444656 	-2.6981352e-07 	0.00045853851
0.7173913 	0.0022133932 	0.00084005431 	-1.0160224e-08 	0.0029242003 	4.3938576e-07 	0.00075616706
0.72826087 	0.0022407098 	0.000853121 	-1.292726e-08 	0.0029979314 	5.5904809e-07 	0.00075286597
0.73913043 	0.0022782592 	0.00086963827 	-9.8168889e-07 	0.0030593152 	-4.8193636e-07 	0.00036964893
0.75 	0.0022937021 	0.00088651213 	4.5302989e-07 	0.0031348161 	7.0587161e-07 	0.00079344843
0.76086957 	0.002325427 	0.00091896624 	-6.8476751e-07 	0.003192176 	-3.6297676e-07 	0.00050526879
0.77173913 	0.0023433607 	0.00095992143 	7.2758955e-07 	0.0032516945 	-1.8036355e-08 	0.00082699206
0.7826087 	0.0023694917 	0.001012031 	2.0969961e-07 	0.0032965456 	-5.1982832e-09 	0.00082503122
0.79347826 	0.0023925718 	0.0011050844 	4.8907877e-07 	0.0033309676 	-4.0386418e-07 	0.00085118259
0.80434783 	0.0024317872 	0.0011695237 	5.0160057e-07 	0.0033360093 	-4.1420426e-07 	0.00084967551
0.81521739 	0.0024798182 	0.0012529954 	1.6790789e-07 	0.0033175475 	-6.1353798e-07 	0.00086511893
0.82608696 	0.002535457 	0.0012931295 	2.1030242e-07 	0.0032757151 	-7.6844824e-07 	0.00086394648
0.83695652 	0.0025986825 	0.0013146387 	-7.5284462e-08 	0.003210482 	-1.1326609e-06 	0.00086621728
0.84782609 	0.0026500741 	0.0013243692 	-1.4775025e-08 	0.0031422814 	-2.2229146e-07 	0.00086532602
0.85869565 	0.0026871643 	0.0013246024 	-3.9266222e-07 	0.0030679238 	-2.1408508e-06 	0.00085641739
0.86956522 	0.0027117143 	0.0013191325 	3.1092849e-08 	0.002993081 	-2.1580354e-07 	4.8536357e-05
0.88043478 	0.0027091366 	0.0013058696 	-4.834323e-07 	0.0029239647 	-1.7062612e-06 	0.00084009716
0.89130435 	0.0026934078 	0.0012881624 	-3.0253885e-07 	0.0028553611 	-8.3098136e-07 	0.00081997314
0.90217391 	0.0026612587 	0.0012657364 	2.3506763e-08 	0.0027875374 	7.4328287e-09 	0.00029801717
0.91304348 	0.002612683 	0.001239304 	-4.6997097e-07 	0.0027212282 	-1.1136745e-06 	0.00079638925
0.92391304 	0.0025606604 	0.0012107723 	-6.5675247e-07 	0.0026496354 	-1.5953785e-06 	0.00077103054
0.93478261 	0.0025103018 	0.0011795915 	-3.0312366e-07 	0.0025645327 	-8.3319625e-07 	0.0007488973
0.94565217 	0.0024395868 	0.0011318443 	-7.5781291e-07 	0.0024277567 	-2.0634922e-06 	0.00072444727
0.95652174 	0.002320396 	0.001060189 	4.2962775e-08 	0.0022417304 	2.3851999e-07 	0.0002048256
0.9673913 	0.0020926877 	0.00093611947 	-4.8924514e-07 	0.0019459912 	-1.1350584e-06 	0.00061347769
0.97826087 	0.0015709179 	0.0006642586 	1.0235917e-07 	0.0013596128 	4.5533124e-07 	0.00015053908
0.98913043 	0.00034830676 	3.7680433e-05 	6.2376481e-08 	0.00031914882 	4.1325588e-08 	2.9479741e-05
