0.4742268 	0.20194122 	3.7827556e-05 	-7.0355111e-09
0.48453608 	0.79000714 	0.00060553068 	-4.95838e-08
0.49484536 	1.2177385 	0.0015255284 	3.2269212e-06
0.50515464 	1.428772 	0.0021870219 	-7.3500664e-08
0.51546392 	1.4857862 	0.002328816 	-1.0314333e-07
0.5257732 	1.494539 	0.0022497535 	-1.375164e-06
0.53608247 	1.4924541 	0.0021243753 	-4.6866353e-07
0.54639175 	1.4887355 	0.0019980688 	-1.2221744e-08
0.55670103 	1.4847859 	0.0018738578 	-1.9111559e-08
0.56701031 	1.4807446 	0.0017532513 	-2.6206825e-07
0.57731959 	1.4766647 	0.0016348275 	-1.1192145e-06
0.58762887 	1.4725805 	0.001519422 	-1.7947533e-06
0.59793814 	1.4684878 	0.0014061323 	-1.9596961e-07
0.60824742 	1.4643018 	0.0012938395 	-1.142658e-07
0.6185567 	1.4601453 	0.0011871682 	-5.1117458e-07
0.62886598 	1.455844 	0.0010809575 	-1.3484328e-06
0.63917526 	1.4513875 	0.00097551173 	-5.5126572e-08
0.64948454 	1.4469204 	0.00087461415 	-9.495246e-07
0.65979381 	1.4423181 	0.00077379671 	-2.6950855e-07
0.67010309 	1.4376391 	0.00067426494 	-4.0448313e-09
0.68041237 	1.4329784 	0.00057811604 	-1.327718e-06
0.69072165 	1.4282841 	0.00048093891 	7.354086e-09
0.70103093 	1.4237378 	0.00038770767 	-1.7170281e-06
0.71134021 	1.4191436 	0.00029362826 	2.6381585e-08
0.72164948 	1.4146819 	0.00020465128 	-1.4589176e-06
0.73195876 	1.4100972 	0.00011628089 	2.7092817e-08
0.74226804 	1.4052393 	2.9755716e-05 	-8.2822695e-07
0.75257732 	1.3999121 	-5.4258132e-05 	9.3801103e-09
0.7628866 	1.3937064 	-0.00013548426 	-3.5602617e-07
0.77319588 	1.3866213 	-0.00020751183 	4.8966327e-09
0.78350515 	1.3784753 	-0.00026572305 	-3.1825496e-07
0.79381443 	1.3707114 	-0.000316749 	6.5230269e-08
0.80412371 	1.3634288 	-0.00035892611 	-5.2599596e-07
0.81443299 	1.3570359 	-0.00040063474 	2.6342355e-07
0.82474227 	1.3512618 	-0.00044430376 	-5.0499156e-07
0.83505155 	1.3459709 	-0.00049050347 	5.0690904e-09
0.84536082 	1.3409584 	-0.00054008487 	1.3664597e-07
0.8556701 	1.3360076 	-0.00059351276 	-5.6496447e-07
0.86597938 	1.3310078 	-0.00064848474 	-2.1558002e-07
0.87628866 	1.3257861 	-0.00070323831 	1.9630654e-07
0.88659794 	1.3200988 	-0.00075799333 	1.1822577e-07
0.89690722 	1.3137765 	-0.00081154249 	-9.7542315e-08
0.90721649 	1.3065556 	-0.00086274785 	-2.5692239e-07
0.91752577 	1.2980898 	-0.00091066673 	-2.5806753e-07
0.92783505 	1.2878017 	-0.00095421266 	-1.757695e-07
0.93814433 	1.2746033 	-0.00099442005 	-1.0553042e-08
0.94845361 	1.2544321 	-0.0010027294 	3.0323916e-07
0.95876289 	1.2112012 	-0.00096761339 	2.5031336e-07
0.96907216 	1.1040532 	-0.00077507562 	3.0202509e-07
0.97938144 	0.87446361 	-0.00039953107 	2.6364672e-07
0.98969072 	0.47938242 	-8.8254258e-05 	1.4944962e-07
