0.4 	0.008157566 	-0.0017679448 	-1.8056207e-05
0.41111111 	0.0058639528 	-0.0031251812 	-2.3440389e-05
0.42222222 	-0.019875438 	0.0046706249 	1.8061153e-05
0.43333333 	-0.013886852 	0.016269248 	0.00023955727
0.44444444 	0.045628514 	0.023540193 	0.00012126973
0.45555556 	0.17253741 	0.03424764 	0.00054556024
0.46666667 	0.36947109 	0.041050765 	0.00034011219
0.47777778 	0.67680156 	0.039199119 	0.00018927878
0.48888889 	0.99378037 	0.030693129 	6.5737794e-05
0.5 	1.2370783 	0.020249327 	-9.6123524e-05
0.51111111 	1.3907227 	0.010507092 	-0.00032179205
0.52222222 	1.4795725 	0.0079245035 	-0.00031349341
0.53333333 	1.519095 	0.0091020394 	-0.00011804322
0.54444444 	1.5207938 	0.0068059473 	-0.00011198005
0.55555556 	1.5108425 	0.00077771191 	-0.00033615657
0.56666667 	1.5019183 	0.0023267386 	-0.0001736583
0.57777778 	1.4923737 	0.0032278391 	-5.7742743e-05
0.58888889 	1.4816638 	-0.0019017159 	-0.00028612064
0.6 	1.4768514 	0.0018768414 	-3.5914833e-05
0.61111111 	1.4693918 	-0.00098032148 	-0.00015480384
0.62222222 	1.4647434 	-0.00017623704 	-7.7962532e-05
0.63333333 	1.4593215 	-0.00099547204 	-9.236369e-05
0.64444444 	1.4547396 	-0.0011436313 	-7.2016677e-05
0.65555556 	1.4498749 	-0.0016170744 	-7.1249714e-05
0.66666667 	1.4454944 	-0.001555392 	-4.5684267e-05
0.67777778 	1.4406722 	-0.002406775 	-6.9920388e-05
0.68888889 	1.4364775 	-0.0017419424 	-1.6853325e-05
0.7 	1.4315719 	-0.0030782942 	-7.4420503e-05
0.71111111 	1.4272405 	-0.0019920454 	-3.9770996e-07
0.72222222 	1.422315 	-0.0032807921 	-6.2703824e-05
0.73333333 	1.417549 	-0.0024826596 	-6.6440598e-06
0.74444444 	1.4124682 	-0.0032459767 	-4.4299831e-05
0.75555556 	1.4073849 	-0.0027519854 	-8.9300833e-06
0.76666667 	1.4020374 	-0.0032991837 	-3.7521856e-05
0.77777778 	1.3966086 	-0.0027926596 	-3.8921757e-06
0.78888889 	1.3908824 	-0.0033714667 	-3.6476218e-05
0.8 	1.3849604 	-0.0028634376 	-4.4147935e-06
0.81111111 	1.3786932 	-0.0030974618 	-1.8357571e-05
0.82222222 	1.372087 	-0.0030089096 	-1.4266608e-05
0.83333333 	1.3650605 	-0.0027498353 	-3.0017434e-07
0.84444444 	1.3574544 	-0.0029164367 	-1.3961118e-05
0.85555556 	1.3492216 	-0.0027981376 	-1.1279175e-05
0.86666667 	1.3402133 	-0.002545812 	-1.5330389e-06
0.87777778 	1.3302403 	-0.0024428201 	-1.0674666e-06
0.88888889 	1.3190956 	-0.0023954033 	-5.3538522e-06
0.9 	1.306522 	-0.0022935754 	-7.3223978e-06
0.91111111 	1.2920501 	-0.0021523133 	-7.4964296e-06
0.92222222 	1.2749492 	-0.0019666604 	-6.2683234e-06
0.93333333 	1.2524017 	-0.0017229443 	-3.9001025e-06
0.94444444 	1.2146015 	-0.0014205758 	-6.5201062e-07
0.95555556 	1.141219 	-0.0011327703 	1.912472e-07
0.96666667 	0.99908309 	-0.00084153398 	7.1026542e-07
0.97777778 	0.77493124 	-0.00051205594 	-1.8502438e-06
0.98888889 	0.4198061 	-0.00013738302 	-7.4224502e-07
