0 	0.0080446805 	-5.4635374e-16 	-1.9858512e-22 	3.7105564e-29 	1.348689e-35 	4.9021277e-42
0.010869565 	0.0079025837 	0.0037032167 	-2.512494e-06 	0.010139819 	-8.491609e-06 	0.0079601653
0.02173913 	0.0077444479 	0.0035781705 	-5.2074047e-06 	0.0099749776 	-8.9370446e-06 	0.007163446
0.032608696 	0.0077512835 	0.0014537383 	5.131624e-06 	0.0096271335 	-9.6611825e-07 	0.0046843085
0.043478261 	0.0079435996 	-0.0020400857 	-1.7773005e-05 	0.0090991282 	-1.5767144e-05 	0.0055696192
0.054347826 	0.0082679657 	-0.0059657669 	2.101289e-05 	0.008464434 	-1.6487634e-06 	0.0010504705
0.065217391 	0.0085956065 	-0.0085868569 	1.1562387e-05 	0.0078928975 	-1.1857573e-06 	0.0019257542
0.076086957 	0.0088239839 	-0.0095039323 	9.1013412e-06 	0.0075178043 	-1.5325767e-06 	0.0013851545
0.086956522 	0.0089964022 	-0.0098549248 	9.435251e-06 	0.0072562998 	-9.3522002e-06 	0.0029204502
0.097826087 	0.0090624496 	-0.0098534819 	2.378936e-05 	0.0071304509 	-1.3601087e-05 	0.0023875869
0.10869565 	0.0090063201 	-0.0094964133 	1.660838e-07 	0.0071292692 	-8.7029103e-07 	0.0013749441
0.11956522 	0.0087828673 	-0.0087409193 	1.6324168e-05 	0.0072593298 	-5.7646858e-06 	0.001525534
0.13043478 	0.0084720477 	-0.0078385687 	3.6312034e-05 	0.0074327804 	-9.6797476e-06 	0.0011245196
0.14130435 	0.0080745748 	-0.006774402 	-1.1355518e-06 	0.0076390825 	-7.252104e-07 	0.00047895199
0.15217391 	0.0076055371 	-0.0057272935 	4.5601288e-05 	0.0077958196 	-1.3687397e-05 	0.00042652763
0.16304348 	0.0071228328 	-0.0047063573 	7.8992057e-06 	0.0079182175 	-3.9904137e-06 	0.00010324533
0.17391304 	0.0066385919 	-0.003876605 	3.0763836e-05 	0.0079023982 	-1.5540858e-05 	0.00022942754
0.18478261 	0.0061731868 	-0.0031461485 	5.7223653e-06 	0.0078221871 	-6.0040206e-06 	0.00049865765
0.19565217 	0.0057393343 	-0.0026373585 	1.8022775e-05 	0.0075868071 	-1.8909858e-05 	0.00076476532
0.20652174 	0.0053362461 	-0.0022309996 	7.8815517e-07 	0.0072870462 	-1.738968e-06 	0.00092462138
0.2173913 	0.0049672607 	-0.0019815232 	1.1277174e-05 	0.0068796044 	-2.4881706e-05 	0.0011438108
0.22826087 	0.0046154617 	-0.0017791755 	-2.8710932e-07 	0.0064398063 	1.0276427e-07 	6.2005217e-05
0.23913043 	0.0043097759 	-0.0016579266 	6.3799157e-06 	0.0059914378 	-2.3367174e-05 	0.0013482211
0.25 	0.0040038235 	-0.0015365133 	2.1675008e-07 	0.0055449921 	-7.9387208e-07 	0.0015196859
0.26086957 	0.0037518695 	-0.0014609477 	1.5469307e-06 	0.0051351683 	-6.3383398e-06 	0.0014250124
0.27173913 	0.0035140945 	-0.0013804359 	2.688999e-06 	0.0047664492 	-1.1017811e-05 	0.0015555587
0.2826087 	0.0033009328 	-0.0013065954 	6.4793662e-07 	0.004428302 	1.1666911e-07 	0.00030721921
0.29347826 	0.0031224065 	-0.001237543 	2.9027508e-06 	0.0041570398 	-1.0601615e-05 	0.0015468197
0.30434783 	0.002949812 	-0.0011697057 	2.6098202e-07 	0.0038935703 	-9.5317553e-07 	0.0016463343
0.31521739 	0.0028112393 	-0.0011063878 	4.5357836e-07 	0.0036751417 	-6.3265824e-08 	0.00087573187
0.32608696 	0.0026806005 	-0.0010429177 	3.0607695e-06 	0.0034826668 	-9.6243429e-06 	0.0015984009
0.33695652 	0.0025562046 	-0.00098043795 	2.5570454e-07 	0.0032923223 	-5.7434196e-08 	0.0012945139
0.34782609 	0.0024485571 	-0.0009176571 	5.1902498e-07 	0.0031237762 	-1.1657901e-07 	0.00085479529
0.35869565 	0.0023412283 	-0.00085477588 	2.4393104e-06 	0.0029726442 	-6.718207e-06 	0.0015881614
0.36956522 	0.0022386849 	-0.00079216724 	1.9531918e-07 	0.0028194701 	-2.9358954e-08 	0.0013240844
0.38043478 	0.0021451595 	-0.00072577277 	6.9582091e-07 	0.0026720553 	-1.0459073e-07 	0.00048236701
0.39130435 	0.0020466189 	-0.00066092202 	1.1316728e-06 	0.0025487428 	-2.771317e-06 	0.0015184193
0.40217391 	0.0019541145 	-0.00059984875 	1.7190954e-07 	0.0024250172 	-4.2098373e-07 	0.001560411
0.41304348 	0.0018750216 	-0.00053197744 	5.1347124e-07 	0.002294895 	9.4459453e-08 	8.3226169e-05
0.42391304 	0.0017800925 	-0.00046679552 	9.9693324e-08 	0.0021986093 	1.8339833e-08 	0.0011596653
0.43478261 	0.0016984649 	-0.00041033777 	1.3812264e-06 	0.0021103328 	-2.9906502e-06 	0.0014442037
0.44565217 	0.0016311999 	-0.00035234546 	-1.756286e-07 	0.0020254293 	1.5986832e-07 	0.00083172773
0.45652174 	0.0015651654 	-0.00029319826 	-3.0412222e-07 	0.0019548653 	2.7683138e-07 	0.00034893071
0.4673913 	0.001481169 	-0.00023932411 	-2.8584766e-10 	0.0019088813 	2.6019669e-10 	0.0013643904
0.47826087 	0.0014251256 	-0.00020093612 	3.7676989e-07 	0.0018758307 	-6.621881e-07 	0.0013867552
0.48913043 	0.0013906034 	-0.00015382019 	-1.2217007e-06 	0.0018527858 	2.8514677e-07 	0.00055715046
0.5 	0.001338988 	-0.00011125778 	-1.3576732e-06 	0.0018529566 	3.1688296e-07 	0.00047060142
0.51086957 	0.0012641456 	-7.7283171e-05 	4.5364655e-08 	0.001876379 	-3.9232303e-08 	0.0014108465
0.52173913 	0.0012272486 	-6.0468444e-05 	3.5863266e-09 	0.0018998314 	-3.1015303e-09 	0.0014272413
0.5326087 	0.0012215172 	-2.5981111e-05 	-3.1238238e-06 	0.0019300372 	6.0552727e-08 	0.00041232388
0.54347826 	0.0011679554 	-1.0217588e-05 	-2.4729379e-06 	0.0020020775 	4.7935847e-08 	0.00067805937
0.55434783 	0.0010964523 	-9.0559785e-06 	-4.4111924e-08 	0.0020948936 	2.7144303e-07 	0.0015548573
0.56521739 	0.0010921336 	-5.7942135e-06 	-1.6637559e-06 	0.0021558258 	-1.7174699e-07 	0.0011753748
0.57608696 	0.0011233315 	1.5420165e-05 	-6.5983415e-06 	0.002203141 	-6.8113677e-07 	2.3492941e-05
0.58695652 	0.0010160935 	-8.6431214e-06 	-1.6994554e-06 	0.0023645636 	-1.754322e-07 	0.0012983842
0.59782609 	0.00098075136 	-3.0075301e-05 	-7.1294082e-08 	0.0024757833 	1.6912849e-07 	0.0017473576
0.60869565 	0.0010834144 	-2.0576646e-05 	-5.8223531e-06 	0.002497228 	-9.3767823e-07 	0.00053331846
0.61956522 	0.0010753913 	-3.3446776e-05 	-4.3128067e-06 	0.0026103891 	-6.9456883e-07 	0.00092392284
0.63043478 	0.0010291979 	-6.1215625e-05 	-2.8548602e-07 	0.002755033 	5.2826059e-07 	0.0019078622
0.64130435 	0.0011372198 	-6.5186116e-05 	-5.4957028e-06 	0.0027811174 	-1.0164111e-06 	0.00084861441
0.65217391 	0.0011770418 	-7.3434586e-05 	-6.0867154e-06 	0.002867582 	-1.1257168e-06 	0.00079484658
0.66304348 	0.0011243097 	-0.00010014621 	-3.2653718e-07 	0.0030307972 	4.5961909e-07 	0.0020707139
0.67391304 	0.0012455848 	-0.00011461486 	-6.7615653e-06 	0.0030491076 	-1.3173511e-06 	0.00087392961
0.68478261 	0.0012737595 	-0.0001307951 	-6.3348527e-06 	0.0031487562 	-1.234215e-06 	0.0010193222
0.69565217 	0.0012291405 	-0.00016296054 	-2.1161714e-07 	0.0033088271 	2.1098314e-07 	0.0022281717
0.70652174 	0.0013885311 	-0.00018427602 	-1.0701002e-05 	0.0032915387 	-2.1062479e-06 	0.00048974207
0.7173913 	0.0013431325 	-0.00021120108 	-3.7470252e-06 	0.003453011 	-7.3751633e-07 	0.0017148803
0.72826087 	0.0013733018 	-0.0002329856 	-3.3052388e-06 	0.0035419377 	-7.0317262e-07 	0.0018408979
0.73913043 	0.0015010974 	-0.00023449361 	-1.1988022e-05 	0.0035413252 	-2.5503903e-06 	0.00049376639
0.75 	0.001399738 	-0.00023087509 	6.0851098e-07 	0.0037406767 	1.2698043e-07 	0.0024727371
0.76086957 	0.0015725053 	-0.00014518156 	-1.0757751e-05 	0.0036838279 	-3.0519495e-06 	0.00052090875
0.77173913 	0.0014685801 	-7.1975226e-05 	-1.789254e-06 	0.0038675194 	-5.076073e-07 	0.0022385596
0.7826087 	0.0016058654 	0.00016594953 	-4.086502e-06 	0.0038264131 	-2.2217668e-06 	0.001249602
0.79347826 	0.0016525889 	0.00041466825 	-2.7485353e-06 	0.0038546343 	-1.4943354e-06 	0.0017230437
0.80434783 	0.0017961609 	0.00072002745 	-2.9429384e-07 	0.00379218 	-1.6903359e-06 	0.0016399696
0.81521739 	0.0020594396 	0.00099893917 	-3.2001746e-07 	0.003612201 	-1.8380847e-06 	0.0015305294
0.82608696 	0.0022542776 	0.0011928061 	6.2566365e-07 	0.0034746186 	-1.5686674e-06 	0.001565782
0.83695652 	0.0024910656 	0.0012959295 	4.7772614e-07 	0.0032775781 	-1.1977576e-06 	0.0017617576
0.84782609 	0.0026305941 	0.0013304872 	2.9474693e-07 	0.0031374921 	-1.3936313e-06 	0.0010214918
0.85869565 	0.0027597689 	0.0013467394 	-5.4003202e-10 	0.002984031 	-3.0267406e-09 	0.0024574174
0.86956522 	0.0027933351 	0.0013295167 	4.3463708e-08 	0.002880968 	-6.1070085e-07 	8.1797903e-06
0.88043478 	0.0028310666 	0.0013092451 	1.9694767e-09 	0.0027543703 	6.2248188e-08 	0.0021442805
0.89130435 	0.0028178074 	0.0012753811 	6.5326597e-09 	0.0026449221 	2.0647426e-07 	0.0015437403
0.90217391 	0.0027788304 	0.0012361959 	1.3706161e-07 	0.0025383776 	1.276399e-06 	0.00026021994
0.91304348 	0.0027325211 	0.0011938996 	6.5789912e-08 	0.0024252649 	3.7870147e-07 	0.0017272849
0.92391304 	0.0026762948 	0.0011479665 	-3.8897266e-08 	0.0023084008 	-9.4180159e-08 	0.0020631319
0.93478261 	0.0026313474 	0.0011023936 	1.46984e-07 	0.0021951697 	6.290182e-07 	0.0014477575
0.94565217 	0.0025609215 	0.0010360584 	-1.7038348e-07 	0.0020348958 	-3.8845913e-07 	0.0018983959
0.95652174 	0.0024614878 	0.00089707121 	2.3788041e-06 	0.0017667171 	4.6740415e-06 	0.00016196709
0.9673913 	0.0022692926 	0.00068596928 	3.0595377e-06 	0.0014115017 	1.9531816e-06 	0.0010243937
0.97826087 	0.0017319956 	0.00015021533 	7.5668371e-06 	0.00091197232 	2.234738e-06 	0.00012000676
0.98913043 	0.00035429214 	-3.4065885e-05 	4.881388e-07 	0.00026107064 	4.1054135e-07 	2.9724033e-05
