0.47777778 	0.29942974 	-0.00015489343 	-2.4941048e-06
0.48888889 	0.73038206 	-0.00038251705 	-3.1566546e-06
0.5 	1.0811766 	-0.00044643288 	-4.6627804e-06
0.51111111 	1.3225533 	-0.00037993886 	-4.4195403e-06
0.52222222 	1.4520247 	-0.0003524873 	-9.0769878e-06
0.53333333 	1.5065964 	-0.00030525071 	-3.5524101e-07
0.54444444 	1.5197209 	-0.00038180588 	-2.0967296e-06
0.55555556 	1.5183804 	-0.00047712623 	-5.3244667e-06
0.56666667 	1.5114883 	-0.0005538954 	-6.0105623e-06
0.57777778 	1.5017355 	-0.00060553992 	-4.5249894e-06
0.58888889 	1.492549 	-0.00062458236 	-1.197997e-06
0.6 	1.4858302 	-0.00063950553 	-7.0363796e-07
0.61111111 	1.4806648 	-0.00068223427 	-6.8436004e-06
0.62222222 	1.476138 	-0.00072549143 	-1.3249218e-05
0.63333333 	1.4720642 	-0.00070275092 	-4.476662e-06
0.64444444 	1.4681452 	-0.00070820477 	-2.1147297e-06
0.65555556 	1.4641503 	-0.0007573357 	-1.1563847e-05
0.66666667 	1.4602797 	-0.00073022087 	-3.1406258e-06
0.67777778 	1.456229 	-0.00074582659 	-5.2745816e-06
0.68888889 	1.4520062 	-0.00075730717 	-7.6311339e-06
0.7 	1.4477894 	-0.0007362943 	-1.7742768e-06
0.71111111 	1.4429671 	-0.00076476311 	-9.4636838e-06
0.72222222 	1.4383011 	-0.00073022383 	-5.2320573e-07
0.73333333 	1.4329126 	-0.00077016947 	-9.1856747e-06
0.74444444 	1.4274858 	-0.00074664481 	-3.2379323e-07
0.75555556 	1.4220001 	-0.00079644496 	-8.7195427e-06
0.76666667 	1.4162693 	-0.00078631174 	2.8506814e-09
0.77777778 	1.4108063 	-0.00084410662 	-8.7822351e-06
0.78888889 	1.4051334 	-0.00084173132 	-9.2416185e-07
0.8 	1.3994871 	-0.00088457031 	-5.0014971e-06
0.81111111 	1.3936398 	-0.00090599686 	-4.5253139e-06
0.82222222 	1.3875864 	-0.0009112285 	2.025995e-09
0.83333333 	1.3812336 	-0.00094364123 	-5.333894e-06
0.84444444 	1.3744641 	-0.00094919122 	-4.3256346e-06
0.85555556 	1.3672086 	-0.00093896618 	-4.0024604e-07
0.86666667 	1.3592605 	-0.00093831834 	-1.1507212e-06
0.87777778 	1.3504293 	-0.000933314 	-3.366128e-06
0.88888889 	1.3405325 	-0.00091738131 	-4.6598375e-06
0.9 	1.3292528 	-0.00088915826 	-5.0971615e-06
0.91111111 	1.3161736 	-0.00085011433 	-4.7426624e-06
0.92222222 	1.3007354 	-0.0008049186 	-3.6489624e-06
0.93333333 	1.2813368 	-0.00074431056 	-1.8661845e-06
0.94444444 	1.2512759 	-0.00066315772 	2.073659e-07
0.95555556 	1.1867821 	-0.00056560834 	-2.2821094e-06
0.96666667 	1.0617411 	-0.00040841179 	-3.5278253e-08
0.97777778 	0.84798166 	-0.00025370493 	-7.6173688e-07
0.98888889 	0.49224318 	-9.271916e-05 	-2.4188066e-07
