4.1667976e-36 	0.0068131459 	-4.6271418e-16 	-1.6818436e-22 	3.1425265e-29 	1.3007901e-35 	1.2026525e-34
0.010869565 	0.010238916 	-0.0060324623 	3.1754991e-06 	0.015394398 	-8.4220971e-06 	0.013832595
0.02173913 	0.0095870927 	-0.0057336106 	1.7436075e-06 	0.01538039 	-2.5110299e-06 	0.012365322
0.032608696 	0.0063097554 	-0.0017999443 	-2.4024114e-05 	0.016756662 	-7.8013941e-06 	0.0062585041
0.043478261 	0.0062760112 	0.0031605749 	3.7462251e-06 	0.016312502 	-1.7549335e-05 	0.010233492
0.054347826 	0.006340456 	0.0040084089 	4.2292278e-06 	0.015530812 	7.9461917e-07 	0.00019437311
0.065217391 	0.005117168 	0.0028077044 	4.9630951e-06 	0.015277654 	1.4275928e-07 	0.0043928241
0.076086957 	0.0040760074 	0.0015055896 	8.8544274e-06 	0.015021364 	1.8680029e-06 	0.0012836127
0.086956522 	0.0034075798 	0.00035458587 	-5.6434822e-06 	0.014631766 	-1.2398236e-05 	0.0058736664
0.097826087 	0.0034811971 	-0.00048853451 	-1.1583253e-05 	0.013894662 	-4.1365044e-05 	0.0046194287
0.10869565 	0.0036172394 	-0.0012129037 	7.8037693e-08 	0.013111275 	3.2411796e-08 	0.003361233
0.11956522 	0.0037100386 	-0.001755092 	-2.8463766e-06 	0.012357635 	-1.4484823e-05 	0.002674824
0.13043478 	0.0037573069 	-0.0022180054 	-4.7034915e-06 	0.011638407 	-4.1131728e-05 	0.0017558709
0.14130435 	0.0037036699 	-0.0025861638 	1.3505728e-07 	0.010981711 	1.5857682e-08 	0.00024225927
0.15217391 	0.0035803715 	-0.0028046945 	-3.9188931e-07 	0.010364196 	-4.0396823e-05 	0.00042558852
0.16304348 	0.0034096875 	-0.0029845807 	9.5206286e-07 	0.0097721238 	-1.289828e-05 	0.00014080579
0.17391304 	0.0031850637 	-0.0030846194 	2.1633553e-06 	0.0092037829 	-2.9308529e-05 	0.00059312108
0.18478261 	0.0029514788 	-0.0031635304 	1.1214309e-06 	0.008648981 	-1.0627449e-05 	0.00091996039
0.19565217 	0.0027140702 	-0.0032296041 	2.4127508e-06 	0.0081292688 	-2.2864883e-05 	0.0012911897
0.20652174 	0.002494112 	-0.003308506 	2.2886053e-07 	0.0076150911 	-2.746965e-06 	0.0014682043
0.2173913 	0.002301473 	-0.0034048433 	1.8182058e-06 	0.0071780837 	-2.1823543e-05 	0.0017700367
0.22826087 	0.0021938259 	-0.0035621683 	1.977474e-08 	0.0066971455 	-6.9834364e-07 	0.00052704433
0.23913043 	0.0020095026 	-0.0036934944 	1.7496968e-07 	0.006374017 	-2.1070926e-05 	0.0021059653
0.25 	0.0019192601 	-0.0038824433 	5.6756461e-07 	0.0060067011 	-2.8297698e-07 	0.0015536649
0.26086957 	0.0018341956 	-0.0041081081 	-3.4413448e-07 	0.0056948971 	-5.428951e-06 	0.002369959
0.27173913 	0.0017692878 	-0.0043134061 	-3.8526305e-07 	0.0054055647 	-6.0777817e-06 	0.002573078
0.2826087 	0.001806328 	-0.0045590056 	1.1828379e-06 	0.0050797807 	-3.5522112e-07 	0.0007894878
0.29347826 	0.0017359722 	-0.004771639 	9.1601486e-07 	0.0048309746 	-1.0838805e-05 	0.0027595618
0.30434783 	0.0017764314 	-0.0048703745 	-3.3274636e-07 	0.004539668 	3.1239749e-08 	0.0022783793
0.31521739 	0.0018918193 	-0.0048812576 	-6.7156053e-07 	0.0042217763 	6.3049171e-08 	0.0016143218
0.32608696 	0.0019108569 	-0.0049240046 	5.6045798e-06 	0.0039466287 	-1.1204185e-05 	0.0029394629
0.33695652 	0.0020334783 	-0.0047379176 	-2.6410879e-06 	0.0036431156 	2.782018e-07 	0.001664913
0.34782609 	0.002159549 	-0.0044615627 	-2.7334399e-06 	0.0033446782 	2.879298e-07 	0.0014906158
0.35869565 	0.0021999623 	-0.0042848484 	7.7040991e-06 	0.0030757169 	-8.4941144e-06 	0.0028373744
0.36956522 	0.0022524146 	-0.0040459669 	-3.4717296e-06 	0.0028075675 	2.7538699e-07 	0.0017298322
0.38043478 	0.0022838717 	-0.0037645139 	-5.7671678e-06 	0.0025585472 	4.5746737e-07 	0.00086047168
0.39130435 	0.002266211 	-0.0035045079 	3.1786513e-06 	0.0023388155 	-2.4234744e-06 	0.0026105984
0.40217391 	0.0022539554 	-0.0032375908 	-1.4617316e-06 	0.0021256582 	1.0316841e-07 	0.0021755326
0.41304348 	0.0022326454 	-0.0029816759 	-7.8005157e-06 	0.0019215233 	5.5055718e-07 	4.7323001e-05
0.42391304 	0.0021544299 	-0.0027140037 	-2.128169e-06 	0.0017704378 	1.5020529e-07 	0.0017168256
0.43478261 	0.0020977956 	-0.0024290321 	3.1519033e-06 	0.0016284501 	-1.5671122e-06 	0.0023728638
0.44565217 	0.0020617718 	-0.002168861 	-2.3383298e-06 	0.0015003799 	5.3129658e-07 	0.0010137062
0.45652174 	0.0020042113 	-0.0019367634 	-3.0232912e-06 	0.0013901008 	6.86928e-07 	0.00054935498
0.4673913 	0.001913188 	-0.0017317401 	-4.9785136e-07 	0.0013020515 	1.131178e-07 	0.0018741839
0.47826087 	0.0018657992 	-0.0014978423 	-5.7272735e-08 	0.0012353532 	1.117766e-07 	0.0019968877
0.48913043 	0.001857984 	-0.0012661285 	-5.4385904e-07 	0.0011895388 	1.0614251e-06 	0.00063204979
0.5 	0.0018162028 	-0.0010602397 	-5.2459814e-07 	0.0011583159 	1.0238344e-06 	0.0006530389
0.51086957 	0.0017453168 	-0.00087647996 	-7.1885156e-08 	0.0011395962 	1.40295e-07 	0.0018615202
0.52173913 	0.0017341276 	-0.00071302479 	-1.1085949e-07 	0.0010974551 	2.4887849e-07 	0.0016638373
0.5326087 	0.0017628932 	-0.00056607214 	-4.5378236e-07 	0.0010396576 	1.0187371e-06 	0.00042191495
0.54347826 	0.0017370152 	-0.00041147139 	-3.4040107e-07 	0.0010071737 	7.6419716e-07 	0.00093858042
0.55434783 	0.0016842658 	-0.0002533775 	1.1064429e-07 	0.00098781065 	-2.272097e-08 	0.002329109
0.56521739 	0.0017296297 	-0.0001274798 	-5.4070986e-07 	0.00099137427 	3.0270978e-07 	0.0013916931
0.57608696 	0.001791739 	-3.976589e-06 	-1.301968e-06 	0.0010042987 	7.2889079e-07 	6.7272121e-05
0.58695652 	0.001746689 	0.00017829075 	-4.5277452e-07 	0.0010797094 	2.5348026e-07 	0.0016686272
0.59782609 	0.0017412611 	0.0002904686 	-4.3346764e-07 	0.0011352208 	1.1025999e-07 	0.0021937077
0.60869565 	0.0018215962 	0.00027305817 	-2.5619592e-06 	0.0011503868 	6.516786e-07 	0.00055922735
0.61956522 	0.0018088823 	0.00033825743 	-1.8377318e-06 	0.0012372079 	4.6745883e-07 	0.0012179125
0.63043478 	0.0017567518 	0.00042242879 	-5.0136381e-08 	0.0013564879 	9.1008629e-08 	0.002761241
0.64130435 	0.0018336527 	0.00030305509 	-4.9094117e-06 	0.0013912257 	2.0114225e-06 	0.00093868712
0.65217391 	0.001808075 	0.00027788881 	-4.7913313e-06 	0.0014918372 	1.9630441e-06 	0.0010870382
0.66304348 	0.0016881928 	0.00033533258 	-1.9566469e-07 	0.0016580518 	2.9427515e-07 	0.0030568365
0.67391304 	0.0018130879 	0.00018681526 	-8.4836891e-06 	0.001732629 	4.5257169e-06 	0.00098515257
0.68478261 	0.001780214 	0.00016453627 	-7.2990799e-06 	0.0019176977 	3.8937741e-06 	0.0013112102
0.69565217 	0.0016677396 	0.00021396658 	-1.3981729e-06 	0.0021556393 	7.9363009e-07 	0.0028817007
0.70652174 	0.0018379055 	0.0001189739 	-1.4058361e-05 	0.0021776598 	7.9797987e-06 	0.00048343407
0.7173913 	0.0016979383 	0.00023748663 	-5.9464232e-06 	0.0024618155 	3.3753052e-06 	0.0020764939
0.72826087 	0.0016975283 	0.00028044209 	-7.2557282e-06 	0.0026238187 	4.1022119e-06 	0.0020249778
0.73913043 	0.0017987634 	0.00028224136 	-1.555869e-05 	0.002698334 	8.7965044e-06 	0.00065689032
0.75 	0.001542132 	0.00053803447 	3.2448108e-08 	0.0030858028 	7.9320592e-08 	0.0033198715
0.76086957 	0.0018229498 	0.00039965486 	-1.7934968e-05 	0.0030067083 	1.0102829e-05 	0.00049330823
0.77173913 	0.0016483312 	0.00063658199 	-5.0665273e-06 	0.0033337272 	2.8539923e-06 	0.0025348372
0.7826087 	0.0017931818 	0.00057911143 	-1.3376083e-05 	0.0033561468 	7.8682215e-06 	0.0012701521
0.79347826 	0.0017857906 	0.00066681127 	-9.1258776e-06 	0.0035234082 	5.3681208e-06 	0.0019207439
0.80434783 	0.0018315165 	0.00070064276 	-1.0107629e-05 	0.0036051214 	6.9151913e-06 	0.0016538923
0.81521739 	0.0018745364 	0.00073982356 	-9.6117578e-06 	0.0036810837 	6.5759385e-06 	0.0017311601
0.82608696 	0.0019342026 	0.00087049335 	-6.5202093e-06 	0.0037086306 	7.0419067e-06 	0.001599264
0.83695652 	0.0020112411 	0.00097099437 	-4.8969867e-06 	0.0037063028 	5.2888062e-06 	0.0020025892
0.84782609 	0.0022538702 	0.0011488406 	-2.386467e-06 	0.0035141257 	6.5017631e-06 	0.0010374249
0.85869565 	0.0024045308 	0.0012814456 	-4.695273e-07 	0.0034024844 	1.2791944e-06 	0.0027424294
0.86956522 	0.0027790852 	0.0013436503 	-5.4057842e-08 	0.003014275 	5.1194841e-06 	7.6931283e-05
0.88043478 	0.0029311264 	0.001355377 	1.3293998e-07 	0.0028269228 	1.0852674e-06 	0.0022186871
0.89130435 	0.0030540784 	0.0013028239 	2.0836598e-07 	0.0025938909 	1.7010143e-06 	0.0016746574
0.90217391 	0.0030516454 	0.0012397028 	7.1050419e-07 	0.0024265768 	3.4270845e-06 	0.00022023263
0.91304348 	0.0029962351 	0.0011763318 	2.5198403e-07 	0.0022752474 	1.0032925e-06 	0.0017335386
0.92391304 	0.0028742447 	0.0011073553 	8.4481232e-08 	0.0021360746 	3.3636811e-07 	0.0021680258
0.93478261 	0.0027295644 	0.0010389111 	1.8915369e-07 	0.0020020802 	7.3693709e-07 	0.0014565846
0.94565217 	0.0025596693 	0.0009481611 	1.085827e-08 	0.0018176547 	4.9967579e-08 	0.0020241357
0.95652174 	0.0022786733 	0.00085622804 	4.7279028e-08 	0.0016568774 	2.6124577e-07 	0.00011551579
0.9673913 	0.0020870334 	0.00061650263 	-1.5841877e-07 	0.0012423726 	-5.6921955e-07 	0.00089005052
0.97826087 	0.0013745551 	-3.5941538e-05 	-2.2819531e-06 	0.00084659432 	-3.4615882e-06 	8.5245523e-05
0.98913043 	0.00023696309 	-6.2506871e-05 	-1.1564327e-06 	0.00020664483 	-4.8623863e-07 	2.2995126e-05
