0.47191011 	6.8519908e-05 	-3.2028895e-05 	-7.8352996e-08 	7.0846568e-05 	1.3888838e-07 	4.9221981e-05
0.48314607 	1.2339802e-05 	-5.8163979e-06 	-5.8900815e-08 	1.2680367e-05 	1.2870741e-07 	1.1529395e-06
0.49438202 	4.5568582e-08 	-2.200061e-08 	-3.8069911e-10 	4.6705162e-08 	7.8456667e-10 	6.8383717e-10
0.50561798 	7.6077585e-10 	-3.5560012e-11 	-9.0665788e-13 	7.6109409e-10 	9.9150985e-12 	7.4916159e-11
0.51685393 	6.1917535e-10 	-1.2945375e-11 	-9.5076921e-14 	6.1908118e-10 	1.1847098e-12 	4.0150394e-10
0.52808989 	2.3263946e-09 	-4.8535959e-11 	-3.2088336e-13 	2.3215194e-09 	7.7541072e-12 	1.1257484e-09
0.53932584 	6.0511499e-08 	-1.3906857e-10 	-4.9218244e-12 	6.0092529e-08 	5.2064565e-10 	2.473379e-09
0.5505618 	3.0618644e-06 	9.9427634e-08 	1.0886324e-09 	3.020127e-06 	1.7961854e-08 	3.5755366e-08
0.56179775 	7.1023049e-05 	7.8162518e-06 	6.2218985e-08 	6.8936766e-05 	1.8239333e-07 	1.2345906e-06
0.57303371 	0.00033020197 	6.0050481e-05 	2.3665398e-07 	0.00031436543 	2.1732792e-07 	4.3084746e-05
0.58426966 	0.00071500028 	0.0001592439 	2.0837434e-07 	0.00066948217 	3.0766269e-08 	0.00031732604
0.59550562 	0.00098919539 	0.00024369375 	2.680585e-08 	0.0009076655 	-2.0775819e-08 	0.00081323473
0.60674157 	0.0011551126 	0.00029352904 	4.934055e-08 	0.0010398685 	-3.8241292e-08 	0.00086266414
0.61797753 	0.0012705832 	0.00034086427 	-7.2705253e-08 	0.0011254171 	-2.0328868e-07 	0.00031571716
0.62921348 	0.0013605598 	0.00039012316 	-1.8677332e-07 	0.0011901917 	-2.3093607e-07 	0.00045144033
0.64044944 	0.0014342121 	0.00044260188 	1.2602905e-08 	0.0012419468 	7.4935688e-09 	0.0013985642
0.65168539 	0.0014953764 	0.00049449015 	-2.7472367e-07 	0.0012867307 	-2.8240102e-07 	0.00045384245
0.66292135 	0.0015528271 	0.00054690197 	-2.3824311e-07 	0.0013312477 	-2.2281195e-07 	0.00070205335
0.6741573 	0.0016064608 	0.00059861975 	-1.2438952e-07 	0.0013754551 	-1.1633273e-07 	0.001131776
0.68539326 	0.0016584968 	0.00064765918 	-4.2392688e-07 	0.0014229766 	-3.4950479e-07 	0.00021466664
0.69662921 	0.0017086104 	0.00069926465 	-2.0435549e-08 	0.0014696431 	-1.6848005e-08 	0.0015786608
0.70786517 	0.0017575732 	0.00073931231 	-4.1457229e-07 	0.0015235002 	-3.7221934e-07 	3.8763897e-05
0.71910112 	0.0018053951 	0.00078769682 	-2.3063005e-09 	0.0015746868 	-2.6043974e-09 	0.0017333033
0.73033708 	0.0018517218 	0.0008047926 	-2.8951082e-07 	0.0016326686 	-3.2693105e-07 	4.629634e-05
0.74157303 	0.0019000766 	0.00083737249 	-6.590208e-09 	0.0016910687 	-4.4177848e-09 	0.0018241621
0.75280899 	0.0019496903 	0.00084010615 	-3.2714097e-07 	0.0017507774 	-2.1930088e-07 	5.6721616e-05
0.76404494 	0.0020039963 	0.00085258615 	-2.9571856e-08 	0.0018162932 	-8.6753886e-09 	0.0017759896
0.7752809 	0.0020607979 	0.00084848115 	-2.8489664e-07 	0.0018819826 	-8.3579098e-08 	0.00038097093
0.78651685 	0.0021223742 	0.00084826009 	-8.055016e-08 	0.0019538976 	-9.0514286e-10 	0.0013898365
0.79775281 	0.0021879619 	0.00084705663 	-1.2102425e-07 	0.0020286146 	-1.3599505e-09 	0.0011173634
0.80898876 	0.0022576667 	0.00084733158 	-1.4169403e-07 	0.0021068251 	6.3125286e-08 	0.00056574197
0.82022472 	0.0023326965 	0.00085100874 	-3.1797558e-09 	0.0021923341 	2.8424467e-08 	0.0021726795
0.83146067 	0.0024096454 	0.00085672083 	-7.7237068e-08 	0.0022760052 	9.4671514e-08 	0.00092417225
0.84269663 	0.0024882121 	0.00086761308 	-6.038363e-08 	0.0023615608 	1.6924102e-07 	0.00050327978
0.85393258 	0.0025679655 	0.0008850529 	-8.0098329e-09 	0.0024499781 	5.7220577e-08 	0.0017984946
0.86516854 	0.0026435355 	0.00090855284 	-2.0561047e-09 	0.0025326655 	1.4688383e-08 	0.0022346715
0.87640449 	0.0027090426 	0.00093882058 	-2.3147216e-09 	0.0026032773 	1.2000512e-07 	0.001365219
0.88764045 	0.0027622905 	0.00097578927 	1.0774236e-08 	0.0026616224 	1.9872496e-07 	0.00070631255
0.8988764 	0.0027974711 	0.0010193368 	2.3825883e-08 	0.002702527 	2.3228686e-07 	0.00033472351
0.91011236 	0.0028075342 	0.0010688102 	3.0755724e-08 	0.0027195348 	2.1466721e-07 	0.00031922253
0.92134831 	0.0027848932 	0.001155402 	2.7474314e-08 	0.0027043082 	1.5120062e-07 	0.00071237977
0.93258427 	0.0027169842 	0.0012319944 	2.3748557e-08 	0.002651906 	5.8576936e-08 	0.0015424249
0.94382022 	0.002590692 	0.00119552 	-1.1502536e-07 	0.0025500569 	-2.3044311e-07 	0.0021366105
0.95505618 	0.0024035267 	0.0011112818 	3.9710174e-08 	0.002375702 	7.0150344e-08 	0.00043518019
0.96629213 	0.0021692395 	0.0010048959 	2.3941721e-10 	0.0021527354 	1.2535595e-10 	0.0016898576
0.97752809 	0.0017195585 	0.00079709275 	-6.6197048e-09 	0.0017087611 	-1.5970879e-08 	0.001015597
0.98876404 	0.00053812607 	0.00024969865 	-8.6087781e-09 	0.00053583436 	-1.8666195e-08 	0.0003343493
