0.47777778 	5.4088695e-11 	-4.8297005e-16 	-6.0951356e-18 	5.399191e-11 	8.9744627e-16 	3.3172968e-12
0.48888889 	2.1137108e-10 	-7.5278795e-20 	1.3853418e-21 	2.1106214e-10 	9.7023703e-14 	4.9307594e-11
0.5 	1.3934345e-10 	-1.6169253e-21 	-5.4616448e-24 	1.391564e-10 	-4.2769477e-13 	4.122187e-11
0.51111111 	3.3867542e-11 	-4.8941137e-20 	-6.1387851e-22 	3.3821419e-11 	-2.9139385e-13 	9.6725928e-12
0.52222222 	1.7328404e-11 	-2.9867047e-18 	-3.0705856e-23 	1.7304003e-11 	2.4775571e-15 	4.5282326e-12
0.53333333 	3.1513991e-10 	-1.0769804e-13 	-4.6972245e-15 	3.1455861e-10 	1.281355e-11 	6.6721785e-12
0.54444444 	1.7856936e-07 	3.2382099e-10 	8.7940261e-12 	1.7825243e-07 	4.8123956e-09 	4.0196895e-10
0.55555556 	8.6318399e-06 	4.2701278e-07 	6.3731585e-09 	8.6305613e-06 	1.239691e-07 	5.7055262e-08
0.56666667 	8.0768222e-05 	6.8410394e-06 	7.6875741e-08 	8.0790524e-05 	7.9948916e-07 	6.8774815e-06
0.57777778 	0.00030027634 	3.6410567e-05 	3.9173952e-07 	0.00030049268 	2.74653e-06 	4.9572702e-05
0.58888889 	0.00061405887 	9.4038457e-05 	1.0433991e-06 	0.00061482182 	4.9365837e-06 	0.00013978815
0.6 	0.00088205675 	0.00016469003 	1.0917907e-06 	0.00088394591 	3.1514809e-06 	0.00021313856
0.61111111 	0.0010750399 	0.0002370616 	3.2513833e-07 	0.001078702 	5.8132903e-07 	0.00026152034
0.62222222 	0.0012050992 	0.00030541127 	2.0295656e-08 	0.0012104365 	-1.6146293e-08 	8.838401e-05
0.63333333 	0.0012919915 	0.00036695855 	7.1090478e-07 	0.0012994764 	8.0465318e-07 	0.00029336768
0.64444444 	0.001360569 	0.00042568343 	8.2234352e-07 	0.0013694147 	5.8065208e-07 	0.00031574653
0.65555556 	0.0014173056 	0.00048349218 	-4.2626472e-09 	0.0014267223 	-1.2834914e-08 	6.3547625e-05
0.66666667 	0.0014637498 	0.00053972415 	8.1649087e-07 	0.001474453 	3.8239644e-07 	0.00033390578
0.67777778 	0.0015071422 	0.00059673731 	4.9489746e-07 	0.0015185449 	1.5640991e-07 	0.00035027932
0.68888889 	0.0015474778 	0.00065763618 	2.5234588e-07 	0.0015595767 	7.9752676e-08 	0.00035035754
0.7 	0.0015861277 	0.00071164625 	6.6216591e-07 	0.0015991497 	2.8933552e-07 	0.00036654116
0.71111111 	0.0016242045 	0.00075349898 	-2.1340315e-09 	0.0016382236 	2.3907895e-10 	0.00028872214
0.72222222 	0.0016614479 	0.00077418361 	2.0320142e-07 	0.0016777851 	3.697639e-07 	0.00038369881
0.73333333 	0.0016985374 	0.00079354082 	1.691056e-09 	0.0017173057 	3.2162519e-09 	0.00025714801
0.74444444 	0.0017366379 	0.00081231445 	1.8264092e-07 	0.0017598075 	4.4469094e-07 	0.00040212359
0.75555556 	0.0017748479 	0.0008310571 	3.7522791e-09 	0.0018020577 	7.7142384e-09 	0.00024294544
0.76666667 	0.0018162922 	0.00084387013 	-9.6877769e-08 	0.0018480534 	5.4576316e-07 	0.00042120043
0.77777778 	0.001858612 	0.00084977155 	3.3111516e-09 	0.0018930202 	2.6805738e-08 	2.8913235e-05
0.78888889 	0.0019057227 	0.00083773127 	-5.8457462e-07 	0.0019416276 	4.5953793e-07 	0.00044027133
0.8 	0.0019552145 	0.00081882731 	-1.3165595e-07 	0.0019903356 	9.9704475e-08 	0.00045966597
0.81111111 	0.002009006 	0.00079903717 	-2.0166958e-07 	0.0020415652 	1.5272655e-07 	0.00045976363
0.82222222 	0.0020670409 	0.00078661074 	-4.5193914e-07 	0.0020963107 	6.0034597e-07 	0.00047999281
0.83333333 	0.0021276651 	0.00077757774 	5.2469267e-10 	0.0021532482 	1.3616644e-09 	0.00048920944
0.84444444 	0.0021911997 	0.000774275 	-5.3295224e-08 	0.0022126636 	1.1983328e-07 	0.00050054874
0.85555556 	0.002256255 	0.00077798383 	-7.5524107e-08 	0.0022733669 	5.5892054e-07 	0.00052043196
0.86666667 	0.0023207053 	0.00078881991 	8.7362087e-08 	0.0023333658 	3.6654861e-07 	0.00053888568
0.87777778 	0.0023824527 	0.00080834717 	6.1442637e-08 	0.0023907235 	7.1297368e-08 	0.00055490786
0.88888889 	0.0024373318 	0.00083814832 	2.4409876e-08 	0.0024409351 	4.8379301e-08 	0.00028466582
0.9 	0.0024802752 	0.00087873981 	4.743114e-08 	0.0024797354 	9.1856447e-08 	4.7258509e-05
0.91111111 	0.0025050228 	0.00092963418 	4.850548e-08 	0.0025018028 	9.2444847e-08 	4.5947466e-05
0.92222222 	0.0025035894 	0.0010036524 	2.282463e-08 	0.0024989654 	3.9477742e-08 	0.00034349029
0.93333333 	0.0024652776 	0.001105122 	1.2078087e-07 	0.002458742 	-4.195307e-07 	0.00056477141
0.94444444 	0.0023790388 	0.0011046161 	-8.2791377e-07 	0.0023718475 	-1.7754037e-06 	0.00054799002
0.95555556 	0.0022404933 	0.0010403583 	-4.3065467e-08 	0.002234153 	-9.2275772e-08 	0.00052492627
0.96666667 	0.0020527437 	0.00095341317 	-7.7942911e-07 	0.0020479532 	-1.6695575e-06 	0.00047363236
0.97777778 	0.001661332 	0.00077184663 	-6.1399775e-07 	0.0016584247 	-1.3186283e-06 	0.00037240404
0.98888889 	0.00056398664 	0.00026206135 	-9.8566192e-07 	0.00056315312 	-2.1176162e-06 	0.00011553398
