0 	0.81931478 	-5.5643706e-14 	-2.0987444e-20
0.010869565 	0.8272568 	-0.00018861013 	1.2640532e-08
0.02173913 	0.83696413 	-0.00041233527 	-2.0032916e-07
0.032608696 	0.84463571 	-0.0006892418 	-1.0955423e-07
0.043478261 	0.85119514 	-0.00095635765 	-5.6043391e-08
0.054347826 	0.85831425 	-0.0011475685 	-1.1656599e-06
0.065217391 	0.86775793 	-0.0011830754 	-3.4335216e-06
0.076086957 	0.87670679 	-0.0010887587 	-2.4116416e-06
0.086956522 	0.88742016 	-0.00085888389 	1.1111544e-06
0.097826087 	0.89938562 	-0.00061160104 	-7.7592481e-07
0.10869565 	0.91175798 	-0.00048193036 	-9.9115614e-07
0.11956522 	0.92426742 	-0.00014207969 	6.764487e-07
0.13043478 	0.93667345 	-0.00010240292 	2.1233175e-06
0.14130435 	0.94839766 	-0.00027390112 	1.217454e-05
0.15217391 	0.96027489 	-0.00023552721 	6.6871075e-07
0.16304348 	0.96981142 	-0.001074014 	3.3705417e-05
0.17391304 	0.9806664 	-0.0011909648 	-1.3011843e-07
0.18478261 	0.98816354 	-0.0025430897 	5.0445008e-05
0.19565217 	0.99741492 	-0.0030469921 	2.3353523e-06
0.20652174 	1.0039131 	-0.0047545813 	7.0554647e-05
0.2173913 	1.012208 	-0.0055048028 	1.6380404e-06
0.22826087 	1.0193903 	-0.007224181 	6.9204853e-05
0.23913043 	1.0275101 	-0.0082582062 	1.9363737e-05
0.25 	1.0366325 	-0.00957536 	4.147852e-05
0.26086957 	1.0463183 	-0.010748844 	5.0799714e-05
0.27173913 	1.0569967 	-0.011553456 	-5.0705023e-07
0.2826087 	1.0699836 	-0.012620998 	7.8706233e-05
0.29347826 	1.0825453 	-0.013030788 	1.4737431e-05
0.30434783 	1.097526 	-0.013447033 	1.8930011e-05
0.31521739 	1.1135436 	-0.013808266 	6.6161211e-05
0.32608696 	1.1288339 	-0.013647439 	2.1858427e-06
0.33695652 	1.146043 	-0.013531113 	2.3272787e-05
0.34782609 	1.1630929 	-0.013298255 	5.5698989e-05
0.35869565 	1.1792478 	-0.012637053 	6.0823452e-06
0.36956522 	1.19521 	-0.012125569 	1.384816e-05
0.38043478 	1.2101765 	-0.011656418 	5.951144e-05
0.39130435 	1.2242952 	-0.010656759 	1.3094923e-06
0.40217391 	1.2366468 	-0.0099114817 	5.3549859e-06
0.41304348 	1.2468307 	-0.0093965537 	5.1147813e-05
0.42391304 	1.2563689 	-0.0084146962 	2.1904173e-05
0.43478261 	1.2643478 	-0.0074973187 	2.8699032e-05
0.44565217 	1.2705175 	-0.0068135032 	1.6823109e-05
0.45652174 	1.2747864 	-0.0062262868 	5.3620281e-05
0.4673913 	1.2791153 	-0.0050780655 	1.5556984e-06
0.47826087 	1.2815404 	-0.0043211502 	1.9976511e-05
0.48913043 	1.2828678 	-0.0037327803 	2.5938624e-05
0.5 	1.2831806 	-0.003062898 	4.6129977e-05
0.51086957 	1.2836456 	-0.0019141406 	6.287554e-06
0.52173913 	1.2831215 	-0.0011564798 	1.5216848e-05
0.5326087 	1.2817344 	-0.00060358523 	3.4079443e-05
0.54347826 	1.2799433 	0.00026942209 	3.7356004e-05
0.55434783 	1.2781779 	0.0014593796 	1.6370963e-05
0.56521739 	1.2760261 	0.002302344 	5.0178492e-06
0.57608696 	1.2729039 	0.0027504891 	6.067572e-05
0.58695652 	1.2701464 	0.0042555951 	7.1692922e-06
0.59782609 	1.2671452 	0.0052814317 	2.2774623e-05
0.60869565 	1.2637197 	0.0059931749 	3.3787805e-05
0.61956522 	1.2600568 	0.0071687355 	3.3359482e-05
0.63043478 	1.2566066 	0.0086234601 	2.7961075e-05
0.64130435 	1.2529019 	0.0095742935 	1.8592516e-05
0.65217391 	1.2487013 	0.01063552 	4.6252259e-05
0.66304348 	1.2448638 	0.012446409 	2.7577818e-05
0.67391304 	1.2407475 	0.013534054 	2.1621129e-05
0.68478261 	1.2360914 	0.014914135 	3.8609303e-05
0.69565217 	1.231675 	0.016885045 	3.2970743e-05
0.70652174 	1.2266811 	0.01786719 	5.0371425e-05
0.7173913 	1.221383 	0.02028851 	2.0661843e-06
0.72826087 	1.2158513 	0.022038001 	1.3127336e-05
0.73913043 	1.2092232 	0.022925578 	7.9241503e-05
0.75 	1.2024455 	0.026004011 	3.4118122e-05
0.76086957 	1.1947159 	0.027210133 	5.6264346e-05
0.77173913 	1.1861089 	0.030260383 	1.0031467e-05
0.7826087 	1.1765205 	0.032146883 	1.4338866e-05
0.79347826 	1.1653778 	0.034564097 	1.0671065e-05
0.80434783 	1.152297 	0.036901315 	2.9475843e-06
0.81521739 	1.1367089 	0.038919022 	2.0882559e-05
0.82608696 	1.1168167 	0.04136788 	1.3668837e-06
0.83695652 	1.0926546 	0.043505871 	2.3514248e-06
0.84782609 	1.0604286 	0.044668469 	3.0815544e-05
0.85869565 	1.0218539 	0.046700199 	4.9878951e-06
0.86956522 	0.97450987 	0.04571514 	0.00010257684
0.88043478 	0.91793442 	0.048126055 	-1.8983473e-06
0.89130435 	0.85354328 	0.047931668 	3.0834725e-06
0.90217391 	0.77778445 	0.045828154 	7.8139755e-05
0.91304348 	0.6914419 	0.046034001 	-9.2352392e-06
0.92391304 	0.59768487 	0.04387139 	-1.9711279e-05
0.93478261 	0.49820298 	0.041256219 	-1.8094732e-06
0.94565217 	0.38319188 	0.037516617 	-3.2927739e-05
0.95652174 	0.28229305 	0.031075744 	4.9127969e-05
0.9673913 	0.21972416 	0.023835474 	-4.9858222e-06
0.97826087 	0.16373788 	0.013677691 	2.5849656e-05
0.98913043 	0.050311977 	0.0048202092 	1.246399e-05
