/*--------------------------------*- C++ -*----------------------------------*\
  =========                 |
  \\      /  F ield         | OpenFOAM: The Open Source CFD Toolbox
   \\    /   O peration     | Website:  https://openfoam.org
    \\  /    A nd           | Version:  7
     \\/     M anipulation  |
\*---------------------------------------------------------------------------*/
FoamFile
{
    version     2.0;
    format      ascii;
    class       volScalarField;
    location    "2000";
    object      omega;
}
// * * * * * * * * * * * * * * * * * * * * * * * * * * * * * * * * * * * * * //

dimensions      [0 0 -1 0 0 0 0];

internalField   nonuniform List<scalar> 
15296
(
0.85601166
0.85291629
0.84985792
0.84683662
0.84384885
0.84089337
0.83796923
0.83507571
0.83221216
0.82937791
0.82657225
0.82379448
0.82104387
0.81831973
0.81562136
0.81294816
0.81029902
0.80767365
0.80507135
0.80249145
0.79993333
0.79739636
0.79487987
0.79238322
0.78990578
0.78744704
0.78500686
0.78258596
0.78018853
0.77781279
0.77548423
0.77321691
0.77152659
0.76949433
0.77989939
0.75782362
0.94972689
2.3287148
0.85603744
0.8529401
0.84988323
0.84686268
0.84387558
0.84092075
0.83799724
0.83510434
0.83224139
0.82940772
0.82660262
0.8238254
0.82107532
0.8183517
0.81565383
0.81298112
0.81033246
0.80770756
0.80510571
0.80252625
0.79996856
0.79743201
0.79491594
0.7924197
0.78994266
0.78748431
0.7850445
0.78262393
0.78022681
0.77785124
0.7755226
0.77325233
0.77156
0.76946536
0.77997092
0.75593736
1.0010392
0.38737031
0.85609116
0.85299142
0.84993603
0.84691595
0.84392925
0.84097478
0.83805161
0.83515903
0.83229639
0.82946301
0.82665819
0.82388121
0.82113138
0.81840797
0.81571031
0.81303781
0.81038931
0.80776458
0.80516289
0.80258357
0.80002602
0.7974896
0.79497366
0.79247753
0.79000059
0.78754233
0.78510259
0.78268204
0.78028491
0.77790921
0.77558012
0.77330638
0.77161077
0.76945428
0.78004617
0.75327355
1.0439949
0.055413401
0.85616972
0.8530693
0.85001484
0.84699486
0.84400819
0.84105374
0.83813056
0.83523795
0.83237526
0.82954182
0.82673692
0.82395984
0.82120989
0.81848636
0.81578855
0.81311589
0.81046724
0.80784233
0.80524044
0.80266093
0.80010317
0.79756654
0.79505037
0.79255401
0.79007684
0.78761833
0.78517832
0.78275745
0.78035995
0.7779838
0.77565393
0.77337647
0.77167649
0.76946506
0.78011695
0.75091025
1.0660901
0.028341065
0.85627209
0.85317371
0.85011941
0.84709913
0.84411215
0.84115735
0.8382338
0.8353408
0.83247771
0.82964384
0.82683851
0.82406098
0.82131056
0.81858654
0.81588823
0.81321504
0.81056589
0.80794046
0.80533804
0.80275797
0.80019966
0.79766246
0.79514573
0.7926488
0.79017104
0.78771194
0.78527131
0.78284977
0.78045153
0.77807462
0.77574361
0.77346221
0.77175663
0.7694981
0.78016268
0.74922049
1.0730715
0.030987327
0.85643478
0.8533425
0.85028736
0.8472662
0.84427837
0.84132266
0.83839815
0.83550419
0.83264011
0.82980524
0.82699888
0.8242203
0.82146881
0.8187437
0.81604429
0.81336995
0.81071972
0.80809316
0.80548957
0.80290835
0.80034886
0.79781049
0.79529258
0.79279446
0.79031551
0.78785519
0.78541332
0.78299048
0.78059079
0.77821247
0.77587954
0.77359281
0.77187836
0.76957002
0.78017059
0.74807952
1.0692166
0.12555875
0.85670456
0.85362362
0.85056578
0.84754265
0.84455287
0.84159508
0.83866845
0.83577233
0.83290609
0.83006903
0.82726045
0.82447963
0.82172586
0.81899846
0.81629674
0.81362005
0.81096753
0.80833863
0.80573267
0.80314907
0.80058721
0.79804646
0.79552617
0.79302566
0.79054431
0.78808157
0.78563724
0.78321184
0.78080933
0.77842843
0.77609216
0.77379814
0.77206898
0.76972027
0.78005236
0.74859959
1.0496355
0.29766309
0.85710057
0.85402252
0.85096209
0.84793604
0.84494293
0.84198163
0.83905143
0.83615172
0.83328187
0.83044117
0.82762891
0.82484439
0.8220869
0.81935574
0.81665025
0.81396975
0.81131352
0.80868081
0.80607103
0.80348361
0.80091793
0.79837336
0.79584924
0.79334491
0.79085972
0.78839313
0.78594489
0.78351549
0.78110848
0.77872368
0.77638248
0.77407962
0.77232929
0.76996531
0.77975093
0.75113764
1.0174513
0.48265998
0.85767036
0.85457494
0.8515139
0.84848375
0.84548545
0.84251869
0.83958298
0.83667773
0.83380231
0.83095601
0.82813812
0.82534793
0.82258473
0.81984784
0.8171366
0.81445031
0.81178843
0.80914994
0.80653437
0.80394117
0.80136971
0.79881938
0.7962895
0.79377941
0.79128846
0.78881608
0.78636198
0.78392661
0.781513
0.77912241
0.77677411
0.77446055
0.77268048
0.77033581
0.77924223
0.75554017
0.97739339
0.66741112
0.85843866
0.85533674
0.85227129
0.84923463
0.84622885
0.84325429
0.84031067
0.83739748
0.83451407
0.83165973
0.82883375
0.82603542
0.82326405
0.82051896
0.81779948
0.81510493
0.81243498
0.80978821
0.80716437
0.80456291
0.80198322
0.79942466
0.79688656
0.79436826
0.79186909
0.78938845
0.78692602
0.78448219
0.78205945
0.77966049
0.77730229
0.77497572
0.77315484
0.7708712
0.77855055
0.76138594
0.93410374
0.82927832
0.85946268
0.85637425
0.85329849
0.85025196
0.84723585
0.84425058
0.8412961
0.83837196
0.83547752
0.83261208
0.82977492
0.82696536
0.82418269
0.82142626
0.81869542
0.81598946
0.81330841
0.81065013
0.80801488
0.80540203
0.80281096
0.80024104
0.7976916
0.79516195
0.79265143
0.7901594
0.78768545
0.78522995
0.78279475
0.7803842
0.77801246
0.77566998
0.77379503
0.7716133
0.7777759
0.76804468
0.88980165
0.99201073
0.86087012
0.85776015
0.85467507
0.85161566
0.84858525
0.84558527
0.8426159
0.83967673
0.83676712
0.8338864
0.83103386
0.82820881
0.8254106
0.82263857
0.81989209
0.81717046
0.81447379
0.81179997
0.80914909
0.8065206
0.80391392
0.80132841
0.79876338
0.79621818
0.79369208
0.79118442
0.78869471
0.78622323
0.78377116
0.78134469
0.77895457
0.77659229
0.77464916
0.77259514
0.77711321
0.77446885
0.85121899
1.1072735
0.86273914
0.85960831
0.85650694
0.85342854
0.85037841
0.84735846
0.84436885
0.8414092
0.83847892
0.83557733
0.83270379
0.82985762
0.8270382
0.82424488
0.82147708
0.81873411
0.81601576
0.81332116
0.81064902
0.80799925
0.80537133
0.80276461
0.80017842
0.79761206
0.79506481
0.79253594
0.79002486
0.78753173
0.78505702
0.7826089
0.78019408
0.77780656
0.77578204
0.77385044
0.7768121
0.77950086
0.82605305
1.1287714
0.86518745
0.8620628
0.85893119
0.85582473
0.85274828
0.84970201
0.8466857
0.84369897
0.8407413
0.83781207
0.83491067
0.83203649
0.82918892
0.82636738
0.82357128
0.82080002
0.81805312
0.81533091
0.81263037
0.80995237
0.8072963
0.80466145
0.80204718
0.79945278
0.79687748
0.79432047
0.79178104
0.78925922
0.7867547
0.78427768
0.7818303
0.77941014
0.77729335
0.77543589
0.77709676
0.78286757
0.81217508
1.1080191
0.86848873
0.86528644
0.86211673
0.85897609
0.85586557
0.85278492
0.84973375
0.8467117
0.84371829
0.84075298
0.83781522
0.83490445
0.83202013
0.82916171
0.82632866
0.82352043
0.82073643
0.81797736
0.81524018
0.81252548
0.80983262
0.807161
0.80451003
0.80187898
0.79926701
0.79667323
0.79409675
0.79153739
0.78899416
0.78647886
0.78398915
0.78152633
0.77930924
0.7774499
0.77812677
0.78510516
0.80449432
1.0735086
0.87358599
0.87030754
0.8670752
0.86387885
0.86071441
0.85757974
0.85447403
0.85139684
0.84834774
0.84532627
0.84233194
0.8393643
0.83642287
0.83350719
0.83061678
0.82775117
0.8249098
0.82209251
0.81929944
0.81652788
0.81377792
0.8110493
0.80834148
0.80565367
0.80298491
0.80033415
0.79770029
0.79508281
0.79248009
0.78990417
0.78734974
0.78482064
0.78247648
0.7805353
0.7803648
0.78733328
0.79971537
1.028112
0.88110592
0.87776885
0.87445865
0.87117958
0.86793231
0.86471516
0.86152687
0.85836677
0.85523433
0.85212907
0.8490506
0.84599852
0.84297247
0.83997204
0.83699685
0.83404648
0.83112049
0.82821835
0.82534095
0.8224866
0.81965238
0.81683992
0.81404857
0.8112773
0.80852499
0.80579043
0.80307224
0.80036927
0.79768008
0.79500934
0.79236331
0.78973653
0.78724301
0.78511401
0.7843072
0.79020269
0.79875733
0.97768164
0.89067488
0.88723512
0.88382088
0.88043617
0.87708292
0.87375989
0.87046587
0.86720006
0.86396186
0.86075078
0.85756641
0.85440842
0.85127646
0.84817022
0.84508933
0.84203344
0.83900217
0.83599504
0.83301182
0.83005355
0.82711583
0.8242004
0.82130585
0.81843121
0.81557539
0.81273706
0.80991453
0.80710584
0.8043099
0.80152133
0.79876392
0.79601565
0.79336229
0.79098645
0.78970409
0.79406375
0.80085258
0.9335947
0.9026513
0.89906082
0.89550641
0.89198542
0.88849731
0.88504005
0.88161222
0.87821308
0.87484203
0.87149855
0.86818221
0.86489268
0.8616296
0.85839267
0.85518156
0.85199591
0.84883536
0.84569951
0.84258791
0.83950022
0.83643731
0.83339707
0.83037601
0.82737497
0.8243929
0.82142817
0.81847869
0.8155416
0.81261547
0.80969019
0.80679619
0.80389896
0.80106631
0.79840968
0.7967125
0.7994772
0.80500164
0.90029928
0.91737329
0.91361793
0.90989534
0.90620528
0.90254867
0.89892388
0.89532956
0.891765
0.88822962
0.88472285
0.88124424
0.8777934
0.87436997
0.8709736
0.86760394
0.86426063
0.86094331
0.85765154
0.85438492
0.85114258
0.84792638
0.84473335
0.84156224
0.83840968
0.83527604
0.83215975
0.82905817
0.82596751
0.82288525
0.81979932
0.81674081
0.81366621
0.81062889
0.80767399
0.80556264
0.80684196
0.81093871
0.87789656
0.935303
0.93134357
0.92741463
0.92351791
0.91965591
0.91582751
0.91203131
0.90826655
0.90453256
0.90082874
0.89715457
0.89350962
0.88989352
0.88630589
0.88274635
0.87921453
0.87571002
0.87223238
0.86878113
0.86535553
0.86195545
0.85857966
0.85522924
0.85190031
0.84858815
0.84529344
0.8420126
0.83874114
0.8354749
0.83220289
0.82893814
0.8256607
0.82239181
0.81913869
0.8165033
0.81644422
0.81894345
0.86478705
0.95695016
0.95272145
0.94853401
0.94438608
0.94027783
0.93620662
0.93217009
0.92816705
0.92419667
0.92025827
0.91635133
0.91247546
0.90863028
0.90481543
0.90103054
0.89727523
0.89354907
0.88985159
0.88618225
0.88254037
0.87892524
0.87533586
0.87177106
0.86823184
0.86471267
0.86121139
0.85772041
0.85423772
0.85075734
0.84726926
0.84376018
0.84025121
0.83671882
0.83315881
0.82988378
0.828599
0.82968872
0.85853918
0.98278931
0.97824902
0.97376259
0.96932242
0.96492581
0.96056889
0.95624872
0.95196395
0.94771381
0.94349768
0.93931513
0.93516585
0.93104954
0.92696591
0.92291463
0.91889534
0.91490763
0.910951
0.90702489
0.90312856
0.89926114
0.89542152
0.89160822
0.88781943
0.88405564
0.88031027
0.87657771
0.87285233
0.86912592
0.8653847
0.86160739
0.85782659
0.85399279
0.85008979
0.84623433
0.84380272
0.84367294
0.85891085
1.0133785
1.0085267
1.0037114
0.99893479
0.99419988
0.9895055
0.98484966
0.98023143
0.97565027
0.97110572
0.96659748
0.96212534
0.95768913
0.95328861
0.94892353
0.94459358
0.94029835
0.93603735
0.93180997
0.92761543
0.92345275
0.91932066
0.91521749
0.91114092
0.90708865
0.90305611
0.89904114
0.89503298
0.89102042
0.88699054
0.88291781
0.87879805
0.87463212
0.87034852
0.86599723
0.86239293
0.8611988
0.86570436
1.0497269
1.0444097
1.0391567
1.0339587
1.0288119
1.0237118
1.0186549
1.0136395
1.0086651
1.0037311
0.99883736
0.99398365
0.98916989
0.98439591
0.97966149
0.97496634
0.97031007
0.96569216
0.96111195
0.95656859
0.95206098
0.94758767
0.94314677
0.93873571
0.93435116
0.92998835
0.9256415
0.92130189
0.91695671
0.9125929
0.90818393
0.90367728
0.8991424
0.89443529
0.88962236
0.8847592
0.88264321
0.87880552
1.0924698
1.0866645
1.0809166
1.0752233
1.0695844
1.0639972
1.0584586
1.0529671
1.0475222
1.0421233
1.0367702
1.0314627
1.0262008
1.0209843
1.0158129
1.0106864
1.0056043
1.0005661
0.99557098
0.99061804
0.985706
0.98083324
0.97599757
0.97119608
0.96642487
0.96167859
0.95695
0.95222901
0.94750191
0.94274836
0.93794656
0.9330373
0.92804804
0.92287311
0.91756976
0.91162276
0.90860767
0.89833743
1.1429153
1.1364475
1.1300622
1.12375
1.117506
1.1113246
1.105201
1.099133
1.0931196
1.0871601
1.081254
1.0754013
1.0696017
1.0638552
1.0581614
1.05252
1.0469305
1.0413922
1.0359043
1.0304656
1.0250749
1.01973
1.0144287
1.0091674
1.0039418
0.99874582
0.99357114
0.98840618
0.98323548
0.97803561
0.97277881
0.96741434
0.96189242
0.95620501
0.95034731
0.94356499
0.93944634
0.92431001
1.2022086
1.1949767
1.1878372
1.1807816
1.1738049
1.1669014
1.1600661
1.1532965
1.1465915
1.1399506
1.1333734
1.1268597
1.1204094
1.1140223
1.1076982
1.1014365
1.0952368
1.0890982
1.0830197
1.0770001
1.0710376
1.0651301
1.0592747
1.0534675
1.0477036
1.0419759
1.0362751
1.0305883
1.0248978
1.0191779
1.0133955
1.0074984
1.0014177
0.99509185
0.98861217
0.98106794
0.97588733
0.95712515
1.2722631
1.2640627
1.2559756
1.2479911
1.2401021
1.2323015
1.2245834
1.2169452
1.2093857
1.2019041
1.1945002
1.1871739
1.1799249
1.1727531
1.1656581
1.1586394
1.1516962
1.1448275
1.1380322
1.1313086
1.1246548
1.1180681
1.1115453
1.1050819
1.0986721
1.092308
1.0859793
1.0796712
1.0733643
1.06703
1.0606318
1.0541099
1.0474045
1.0403466
1.0331435
1.024781
1.0189051
0.9971346
1.3555098
1.3460663
1.3367657
1.327595
1.3185446
1.3096052
1.3007698
1.292035
1.2833993
1.2748617
1.2664218
1.2580792
1.2498337
1.2416848
1.233632
1.2256744
1.217811
1.2100406
1.2023615
1.1947718
1.187269
1.17985
1.1725107
1.1652462
1.1580498
1.1509125
1.1438226
1.1367638
1.1297144
1.1226433
1.1155102
1.1082509
1.1007986
1.0929821
1.0848857
1.0756056
1.0690724
1.0449323
1.4552327
1.4441744
1.4333013
1.4225975
1.4120501
1.4016465
1.3913778
1.3812397
1.37123
1.3613472
1.3515904
1.3419589
1.332452
1.3230689
1.3138085
1.3046696
1.2956507
1.2867499
1.277965
1.2692936
1.2607324
1.2522776
1.2439245
1.2356672
1.2274978
1.2194062
1.2113792
1.2033988
1.195441
1.187472
1.1794475
1.1713007
1.1629549
1.154248
1.1451913
1.134769
1.1273329
1.1017383
1.5761099
1.5629228
1.549982
1.5372681
1.5247629
1.5124486
1.5003134
1.4883517
1.47656
1.4649357
1.4534772
1.4421831
1.431052
1.4200823
1.4092724
1.3986202
1.3881235
1.3777796
1.3675856
1.357538
1.3476329
1.3378655
1.3282299
1.3187191
1.309324
1.300033
1.2908312
1.2816985
1.2726084
1.2635244
1.2543985
1.2451605
1.2357285
1.2259333
1.21581
1.2041594
1.1954196
1.1684616
1.7198987
1.7039644
1.6883561
1.6730513
1.6580254
1.6432535
1.6287203
1.6144186
1.6003432
1.5864902
1.5728571
1.5594417
1.5462417
1.5332546
1.5204777
1.5079082
1.4955426
1.4833773
1.4714084
1.4596311
1.4480405
1.4366302
1.4253934
1.4143212
1.4034032
1.3926259
1.3819721
1.3714196
1.3609391
1.3504911
1.3400236
1.3294633
1.3187235
1.3076324
1.2962241
1.2833102
1.2731837
1.2445522
1.8822368
1.862876
1.8439543
1.8254423
1.8073054
1.7895069
1.7720269
1.7548554
1.7379847
1.7214095
1.705126
1.6891309
1.6734207
1.6579919
1.6428404
1.6279621
1.6133522
1.5990058
1.5849172
1.5710802
1.5574881
1.5441329
1.5310058
1.5180962
1.5053913
1.4928755
1.4805291
1.4683271
1.4562369
1.4442159
1.4322082
1.4201367
1.4079111
1.3953564
1.382512
1.3681678
1.3567428
1.3264179
2.060067
2.0366453
2.0137828
1.9914494
1.9696022
1.9481942
1.9272025
1.9066161
1.886426
1.8666261
1.8472117
1.8281786
1.8095218
1.7912363
1.7733164
1.7557557
1.7385476
1.7216847
1.7051592
1.6889624
1.673085
1.6575167
1.642246
1.6272595
1.6125417
1.598074
1.5838337
1.5697922
1.5559136
1.5421513
1.5284453
1.5147147
1.5008655
1.4867195
1.4723223
1.4564434
1.4436048
1.4117059
2.2562969
2.2278775
2.2001863
2.1731917
2.1468382
2.1210646
2.0958449
2.0711666
2.0470183
2.0233916
2.0002799
1.977676
1.955572
1.9339594
1.9128289
1.8921706
1.8719739
1.8522278
1.8329205
1.8140397
1.7955724
1.7775044
1.7598204
1.7425034
1.725534
1.7088899
1.6925442
1.6764643
1.66061
1.64493
1.6293598
1.6138138
1.5981941
1.5823181
1.5662376
1.5487009
1.5343311
1.5007212
2.4744149
2.4397381
2.4060299
2.3732746
2.3414003
2.3103243
2.280011
2.2504392
2.2215886
2.1934432
2.1659892
2.1392124
2.1130983
2.0876318
2.0627972
2.0385786
2.0149595
1.9919229
1.9694516
1.9475278
1.9261332
1.9052485
1.8848534
1.8649259
1.8454417
1.8263735
1.8076895
1.7893521
1.7713155
1.7535232
1.735905
1.7183696
1.7008145
1.683051
1.6651366
1.6457923
1.6297618
1.5942139
2.7180209
2.6755012
2.634412
2.5946986
2.5562198
2.5188391
2.482496
2.4471509
2.412769
2.3793231
2.3467896
2.3151454
2.2843668
2.2544305
2.2253126
2.196989
2.1694354
2.1426275
2.1165405
2.0911498
2.0664299
2.0423551
2.0188985
1.9960317
1.9737243
1.9519426
1.9306486
1.9097982
1.8893395
1.8692091
1.8493298
1.8296037
1.8099217
1.7900873
1.7701628
1.7488333
1.730988
1.6932305
2.9909451
2.9396218
2.8900118
2.8421321
2.7958264
2.750938
2.7074033
2.6651748
2.6242075
2.5844652
2.5459142
2.5085207
2.4722505
2.4370692
2.4029422
2.3698348
2.3377122
2.3065398
2.2762833
2.2469084
2.2183805
2.190665
2.1637265
2.1375284
2.112032
2.0871956
2.0629734
2.0393134
2.0161553
1.9934276
1.9710447
1.9488996
1.9268752
1.9047643
1.8826327
1.8591198
1.8392871
1.7990241
3.304228
3.2409749
3.1802323
3.1219628
3.0658662
3.0116934
2.9593395
2.9087247
2.8597793
2.8124477
2.7666786
2.7224209
2.679624
2.638237
2.5982097
2.5594919
2.5220339
2.4857868
2.4507026
2.4167339
2.3838336
2.3519552
2.3210518
2.2910758
2.2619779
2.2337062
2.2062046
2.179411
2.1532548
2.1276541
2.1025125
2.0777116
2.0531237
2.0285277
2.0039903
1.9780949
1.9561039
1.9130258
3.6580722
3.582108
3.5088118
3.4384119
3.3706424
3.3052822
3.2422572
3.1814913
3.1229077
3.0664383
3.012014
2.9595632
2.9090132
2.8602909
2.8133236
2.7680392
2.7243672
2.6822389
2.6415871
2.6023465
2.5644533
2.5278448
2.4924591
2.458234
2.4251065
2.3930112
2.3618788
2.3316341
2.3021935
2.2734616
2.2453279
2.2176594
2.1903139
2.1630517
2.1359376
2.1074843
2.0831951
2.0369733
4.0729961
3.9779967
3.8869945
3.8002296
3.717196
3.6375385
3.561107
3.4877568
3.4173551
3.3497856
3.2849339
3.222686
3.1629295
3.1055539
3.0504512
2.997517
2.9466502
2.8977537
2.8507343
2.8055022
2.7619705
2.7200552
2.6796741
2.6407459
2.6031891
2.5669203
2.5318527
2.4978936
2.4649416
2.4328833
2.4015892
2.3709065
2.3406725
2.3106229
2.280816
2.2496741
2.2229983
2.1732664
4.5514593
4.4333157
4.3204354
4.2133334
4.1113166
4.0139332
3.9209704
3.8322002
3.7474116
3.6664197
3.589045
3.5151122
3.4444518
3.3769001
3.3123004
3.2505026
3.1913641
3.134749
3.0805283
3.0285786
2.9787818
2.931024
2.8851948
2.8411858
2.7988895
2.7581968
2.7189957
2.6811686
2.644589
2.6091175
2.5745983
2.5408505
2.5076831
2.4747979
2.4422413
2.4083208
2.379211
2.3255371
5.1099519
4.9620088
4.8212674
4.6884856
4.5626399
4.4431358
4.329654
4.2218525
4.119428
4.0221031
3.9296062
3.8416788
3.7580738
3.6785551
3.6028986
3.5308915
3.4623323
3.39703
3.3348037
3.2754806
3.2188954
3.1648893
3.1133087
3.0640034
3.0168253
2.9716266
2.9282575
2.8865634
2.8463811
2.8075344
2.7698304
2.7330506
2.6969665
2.6612369
2.6258912
2.5890954
2.557492
2.4993301
5.7718397
5.5858699
5.4091983
5.2432048
5.0865927
4.9386868
4.7990613
4.6672313
4.5427564
4.4252274
4.31425
4.2094434
4.1104423
4.0169002
3.92849
3.8449005
3.7658363
3.6910168
3.620175
3.5530559
3.489416
3.4290218
3.3716483
3.3170783
3.2651008
3.2155115
3.1681071
3.1226812
3.0790204
3.0369014
2.9960864
2.9563145
2.9173147
2.878699
2.8404779
2.80064
2.7664429
2.7030046
6.581218
6.3412841
6.114471
5.9028381
5.7045858
5.5188431
5.3449354
5.1821051
5.0296653
4.8869749
4.7534173
4.6284034
4.5113731
4.4017896
4.2991393
4.2029278
4.1126886
4.0279793
3.9483787
3.8734914
3.8029431
3.7363783
3.6734624
3.6138845
3.5573538
3.5036073
3.4523741
3.4033809
3.3563606
3.3110492
3.2671726
3.2244361
3.1825262
3.1410049
3.0998589
3.0568127
3.0200822
2.9498833
7.5883912
7.2712177
6.9732314
6.6977029
6.4421981
6.2054853
5.9863805
5.783614
5.5960446
5.422604
5.2622629
5.114029
4.9769463
4.8500952
4.7325941
4.6236186
4.5223887
4.428176
4.3402997
4.2581736
4.1812288
4.1089446
4.0408706
3.9766229
3.9158618
3.8583107
3.8035508
3.7512526
3.7011581
3.6530078
3.6065056
3.5613181
3.517051
3.4731871
3.429619
3.3836271
3.3451468
3.2649822
8.8672787
8.4339684
8.0324934
7.6665831
7.332208
7.0271912
6.7493218
6.4963905
6.2663813
6.0573521
5.8673886
5.6946158
5.5372556
5.3936217
5.2621475
5.1414709
5.0303271
4.9275942
4.8323409
4.7438659
4.6612513
4.5839029
4.511418
4.4434594
4.3797045
4.3198362
4.2634601
4.2102381
4.1598425
4.1119035
4.0659766
4.0215622
3.9780461
3.9346901
3.8911876
3.8438563
3.8062831
3.7091449
10.51237
9.9112623
9.361495
8.867982
8.425069
8.0295189
7.677433
7.3646985
7.0872191
6.8409522
6.6218973
6.4263053
6.25097
6.092898
5.9496418
5.8194119
5.7002565
5.5908541
5.4903949
5.3982011
5.3135922
5.2360421
5.1650643
5.1001406
5.0407522
4.9863297
4.9365598
4.8909835
4.8489829
4.8098781
4.7728941
4.7371868
4.7017164
4.6652886
4.6272245
4.5819702
4.550244
4.4219987
12.391987
11.573909
10.833139
10.179786
9.6079133
9.112282
8.6850496
8.3174561
8.0005726
7.7263662
7.4871656
7.2769061
7.0912181
6.9254309
6.7772894
6.645121
6.5274481
6.4230652
6.3308638
6.2496215
6.178812
6.117536
6.0647695
6.0195717
5.98109
5.9485272
5.9210956
5.8979554
5.8781795
5.8607842
5.8445943
5.8283127
5.8102095
5.7884975
5.7615206
5.7217945
5.6978883
5.5278799
14.31989
13.233914
12.273277
11.448932
10.750328
10.165654
9.6785533
9.272076
8.9302871
8.6410229
8.3923948
8.1780003
7.9933062
7.8345054
7.6989072
7.5838073
7.4877744
7.4089933
7.3453842
7.2951162
7.2566037
7.2284813
7.2095512
7.198728
7.194984
7.1973193
7.2046629
7.2158787
7.2296978
7.2445752
7.2587223
7.2701908
7.276307
7.2745446
7.2618504
7.228845
7.2128289
6.9873355
16.620354
15.180464
13.934737
12.902108
12.062845
11.391539
10.856154
10.426794
10.077812
9.7929262
9.5602095
9.371595
9.2204257
9.1036654
9.0165544
8.9548592
8.9150248
8.8940797
8.8895068
8.8991742
8.9211038
8.9534723
8.9946197
9.0430119
9.0971783
9.1556491
9.2168775
9.2791847
9.3406936
9.3993527
9.4525272
9.4974528
9.5302767
9.5478577
9.5450378
9.5122879
9.4919729
9.1962223
19.413904
17.466476
15.845953
14.560203
13.573049
12.837368
12.29208
11.888063
11.587868
11.365845
11.209829
11.107868
11.050735
11.031287
11.0437
11.083039
11.144721
11.224517
11.31866
11.423866
11.537243
11.656215
11.778469
11.901904
12.02459
12.14469
12.260385
12.369814
12.470916
12.561485
12.638613
12.69937
12.739341
12.755522
12.740694
12.688192
12.636756
12.268476
22.765947
20.1403
17.994527
16.396162
15.305072
14.613546
14.189512
13.934832
13.796152
13.742111
13.755288
13.822976
13.935955
14.084824
14.260405
14.454354
14.659411
14.869502
15.079784
15.286539
15.487031
15.679295
15.861892
16.033691
16.193725
16.341057
16.474669
16.593407
16.695807
16.780113
16.84369
16.883839
16.896002
16.877546
16.81956
16.719295
16.607364
16.154939
26.928276
23.131607
20.174046
18.332246
17.43763
17.108175
17.05819
17.142668
17.311944
17.5507
17.845268
18.184226
18.551767
18.93203
19.311212
19.678503
20.026339
20.350095
20.64743
20.917529
21.160554
21.377267
21.568716
21.73601
21.880164
22.001962
22.101858
22.179917
22.235657
22.268019
22.275066
22.25439
22.201435
22.113789
21.981306
21.804085
21.607404
21.035849
31.941987
25.853175
21.954759
20.606286
20.687119
21.231139
21.844569
22.468418
23.122908
23.812849
24.519668
25.221077
25.892259
26.513905
27.074098
27.567493
27.993742
28.355872
28.658837
28.908361
29.110253
29.270055
29.392805
29.482893
29.543992
29.578984
29.589919
29.578023
29.543583
29.485921
29.403383
29.293414
29.151241
28.973552
28.749696
28.478587
28.187763
27.472039
37.210824
26.775342
23.308888
24.472819
26.684159
28.563282
30.065673
31.401993
32.669687
33.866186
34.961832
35.933963
36.771938
37.4749
38.048981
38.504697
38.854953
39.113607
39.294351
39.409856
39.47133
39.488415
39.46916
39.420065
39.346193
39.251242
39.137635
39.006646
38.858277
38.691089
38.502829
38.290055
38.047807
37.769966
37.448675
37.071287
36.696066
35.799637
39.693245
23.925013
25.941003
32.981183
38.261059
41.54835
43.895891
45.843168
47.498269
48.854666
49.924802
50.741796
51.344849
51.770459
52.050252
52.211002
52.275219
52.261881
52.187
52.063894
51.903493
51.714717
51.504728
51.279082
51.041903
50.795998
50.542988
50.28355
50.016576
49.738701
49.448114
49.14081
48.81412
48.457569
48.07598
47.627884
47.24832
46.238881
32.553884
16.609808
35.481921
51.822675
59.656484
63.452023
65.872127
67.583062
68.721052
69.392855
69.723039
69.818029
69.752873
69.577543
69.325728
69.020619
68.678408
68.310784
67.926566
67.532507
67.133789
66.73448
66.337786
65.946108
65.561144
65.183968
64.815138
64.455254
64.09891
63.743112
63.389723
63.036234
62.685333
62.32422
61.97672
61.571867
61.327456
60.411078
12.156693
12.416089
60.870948
85.049085
92.277235
94.714844
95.951066
96.460448
96.429471
96.05317
95.491032
94.838285
94.147179
93.44699
92.754403
92.078988
91.425476
90.795618
90.189789
89.607787
89.048944
88.512446
87.99774
87.504481
87.032554
86.582209
86.15416
85.750327
85.346173
84.946438
84.56346
84.199336
83.859917
83.539944
83.263308
82.988469
82.87514
82.293364
4.2112623
28.337585
108.73273
136.10434
140.98328
141.80947
142.05045
141.72519
141.01256
140.1034
139.13404
138.16498
137.22296
136.31989
135.45992
134.64477
133.87308
133.14122
132.44551
131.7832
131.15148
130.54768
129.97046
129.41954
128.89553
128.40041
127.93758
127.51096
127.03821
126.5649
126.11612
125.69812
125.31347
124.97591
124.67573
124.48045
124.30119
124.06631
178.31407
93.367481
234.0283
269.58227
276.14044
279.59187
282.72129
284.44472
285.17667
285.35259
285.19599
284.83032
284.33739
283.76377
283.13572
282.47682
281.79991
281.10908
280.40809
279.70319
278.99787
278.29407
277.59719
276.9147
276.25543
275.6318
275.05896
274.54221
273.75874
272.95395
272.16848
271.40958
270.66906
269.98425
269.28127
268.79145
268.03241
267.68072
735.87187
137.44976
870.31506
1005.8117
1031.5642
1057.4635
1080.7837
1095.8532
1105.4622
1111.6699
1115.6259
1118.0406
1119.4067
1120.0157
1120.0482
1119.6684
1118.9748
1118.0164
1116.8392
1115.4984
1114.029
1112.4553
1110.8185
1109.1664
1107.5512
1106.0411
1104.7141
1103.544
1100.8747
1098.2122
1095.5625
1092.9276
1090.2958
1087.6993
1085.0571
1082.5939
1079.8265
1077.2575
14985.475
14535.129
14427.362
14393.731
14366.883
14339.83
14313.069
14287.03
14261.5
14236.322
14211.403
14186.685
14162.127
14137.704
14113.401
14089.202
14065.1
14041.09
14017.167
13993.326
13969.564
13945.879
13922.267
13898.723
13875.243
13851.821
13828.45
13805.134
13782.001
13758.931
13735.926
13712.984
13690.104
13667.29
13644.531
13621.857
13599.202
13576.53
14799.305
15985.777
17974.029
19526.132
20924.452
22172.956
23293.329
24301.409
25204.973
26008.872
26716.273
27329.266
27849.487
28278.535
28618.206
28870.616
29038.29
29124.219
29131.871
29065.143
28928.298
28725.897
28462.737
28143.849
27774.241
27359.69
883.94013
364.04035
472.53153
1303.8521
1750.2168
2044.0086
2277.4434
2466.2838
2627.3751
2767.5865
2889.1966
2993.7085
3082.1105
3154.9382
3212.5007
3255.2041
3283.6426
3298.4277
3300.0974
3289.2005
3266.3799
3232.3517
3187.7768
3132.6324
3067.5445
2992.8856
80.046444
114.45057
267.11772
449.29202
570.66515
643.07538
696.80939
741.99216
782.48405
819.31137
852.41505
881.60473
906.71113
927.56279
943.99803
955.95611
963.50946
966.8022
965.98934
961.23545
952.7384
940.72655
925.42109
906.85636
885.15546
860.37238
30.295441
45.0293
113.75912
230.19216
320.86523
370.16139
396.07934
412.38283
425.25342
436.78622
447.43028
457.00511
465.37101
472.34738
477.67107
481.17156
482.80828
482.62003
480.66072
476.98339
471.66245
464.79422
456.47664
446.71879
435.49258
422.74809
20.445845
25.44025
50.102817
112.66459
189.95141
247.92173
281.68031
299.3876
309.16969
315.5255
320.34675
324.29668
327.60407
330.27605
332.11201
332.97793
332.84594
331.73398
329.6486
326.59123
322.59594
317.72168
312.02851
305.50678
298.11884
289.80573
14.251212
16.289241
23.988456
45.657068
88.184749
140.18949
183.75467
212.36296
228.89393
238.18967
243.53863
246.8304
249.08805
250.74825
251.77465
252.16543
251.96224
251.18086
249.77995
247.71933
245.01939
241.73125
237.90063
233.51282
228.58252
223.11529
9.6971408
11.458752
14.308546
21.330253
36.146256
61.24346
93.866883
125.66036
150.09638
166.29076
176.37403
182.81941
187.25401
190.50362
192.74158
194.24971
195.22883
195.73696
195.70743
195.08155
193.88186
192.15466
189.928
187.20285
184.06893
180.61728
6.7626389
8.6972361
10.098348
12.950517
18.163384
27.323547
41.743171
61.170033
82.790531
102.24753
116.09917
125.62429
132.55819
137.97905
141.82244
144.71951
147.01449
148.82045
150.07469
150.73317
150.82239
150.37569
149.40336
148.00276
146.28924
144.39541
4.8048523
6.9556642
7.9655244
9.2116646
11.410896
14.900125
20.348248
28.492597
39.401612
52.804441
65.957594
76.670786
85.767681
93.629261
99.011186
102.9347
106.13847
108.97095
111.15147
112.6051
113.5037
113.92588
113.87915
113.40389
112.61849
111.66731
3.7153596
5.7566469
6.6096427
7.168153
8.1924094
9.7020644
11.905806
15.147321
19.605048
25.489529
33.108107
42.138206
50.358743
57.756682
63.850093
68.539335
72.356632
75.907701
78.85732
80.972902
82.512387
83.642145
84.422611
84.904356
85.00535
84.917471
3.0203096
4.8360201
5.5749039
5.9086959
6.3566434
7.1169006
8.0989397
9.4821546
11.390928
13.827696
17.007559
21.412024
26.906557
32.791354
38.012425
42.558781
46.468125
49.747763
52.543002
54.890177
56.838028
58.496763
59.955681
61.2987
62.289739
63.060495
2.5483671
4.1000661
4.7337535
4.9957818
5.2058053
5.5845834
6.1162462
6.7525204
7.6140893
8.7178506
10.127459
11.907971
14.469776
17.441241
20.870022
24.409246
27.677494
30.420462
32.780193
34.927879
36.856477
38.555301
40.050308
41.398841
42.718123
43.987224
2.2048731
3.4963529
4.0360985
4.2606585
4.3964824
4.5727648
4.8761961
5.238102
5.6503296
6.1742065
6.8358729
7.6456427
8.7277452
10.024417
11.712342
13.593688
15.422352
17.252743
19.094224
20.834767
22.421002
23.84642
25.097031
26.19198
27.302368
28.438509
1.9420019
2.9875353
3.4451538
3.6436253
3.7562288
3.8557226
4.0062514
4.2323096
4.4789499
4.7381388
5.0616025
5.451045
5.9432784
6.5329623
7.2619726
8.1089245
8.991564
9.9663249
11.011079
12.021294
12.953434
13.801151
14.610661
15.451132
16.363462
17.272687
1.7330002
2.5564083
2.9455652
3.1255886
3.2275985
3.3033252
3.3853654
3.506767
3.6713366
3.8369787
4.0077071
4.2014426
4.4386912
4.7218042
5.0611229
5.4568255
5.8838215
6.3420319
6.8298164
7.3233163
7.8006181
8.2488667
8.6931779
9.1801279
9.7162426
10.232442
1.5383134
2.1517236
2.4678505
2.6263779
2.7185963
2.7823352
2.8360363
2.8950022
2.9752359
3.0815776
3.1849498
3.2856295
3.3870838
3.506814
3.6474758
3.8105817
3.9909185
4.1842787
4.3882664
4.5976579
4.8058587
5.0068869
5.2010008
5.3967529
5.6105937
5.8099992
1.3662135
1.7976608
2.0416883
2.1803604
2.2694976
2.3325883
2.3816413
2.4244568
2.4685697
2.5229484
2.5888052
2.6567714
2.7213872
2.781233
2.8411499
2.9098826
2.9868078