/*--------------------------------*- C++ -*----------------------------------*\
  =========                 |
  \\      /  F ield         | OpenFOAM: The Open Source CFD Toolbox
   \\    /   O peration     | Website:  https://openfoam.org
    \\  /    A nd           | Version:  7
     \\/     M anipulation  |
\*---------------------------------------------------------------------------*/
FoamFile
{
    version     2.0;
    format      ascii;
    class       surfaceScalarField;
    location    "2000";
    object      phi;
}
// * * * * * * * * * * * * * * * * * * * * * * * * * * * * * * * * * * * * * //

dimensions      [0 3 -1 0 0 0 0];

internalField   nonuniform List<scalar> 
30289
(
2.0795613e-07
2.7697265e-09
2.0536455e-07
2.5915789e-09
2.0281453e-07
2.550027e-09
2.0029812e-07
2.5164096e-09
1.9781264e-07
2.4854769e-09
1.9534973e-07
2.4629103e-09
1.9290376e-07
2.4459707e-09
1.904719e-07
2.431856e-09
1.8805234e-07
2.4195637e-09
1.8564394e-07
2.4084001e-09
1.8324622e-07
2.3977253e-09
1.8085909e-07
2.3871259e-09
1.784827e-07
2.3763893e-09
1.7611728e-07
2.3654185e-09
1.7376309e-07
2.3541923e-09
1.7142034e-07
2.3427517e-09
1.6908915e-07
2.3311899e-09
1.667695e-07
2.3196482e-09
1.6446118e-07
2.3083221e-09
1.621637e-07
2.2974774e-09
1.5987622e-07
2.2874762e-09
1.5759741e-07
2.278817e-09
1.5532521e-07
2.2721972e-09
1.5305661e-07
2.2686029e-09
1.5078715e-07
2.2694594e-09
1.4851031e-07
2.2768339e-09
1.4621646e-07
2.29385e-09
1.4389132e-07
2.325148e-09
1.4151304e-07
2.3782796e-09
1.3904839e-07
2.4646453e-09
1.3644279e-07
2.6055977e-09
1.3361004e-07
2.8327576e-09
1.3039015e-07
3.2198887e-09
1.2650118e-07
3.8889637e-09
1.2131559e-07
5.1855891e-09
1.1325794e-07
8.0576545e-09
9.908726e-08
1.4170679e-08
1.3647143e-08
8.5440116e-08
6.2386424e-07
1.103658e-08
6.1609083e-07
1.0364979e-08
6.0844101e-07
1.0199852e-08
6.0089188e-07
1.0065535e-08
5.9343544e-07
9.9419184e-09
5.8604669e-07
9.8516647e-09
5.7870877e-07
9.7838894e-09
5.7141321e-07
9.7274181e-09
5.6415454e-07
9.6782334e-09
5.5692938e-07
9.6335627e-09
5.4973625e-07
9.5908495e-09
5.4257494e-07
9.5484409e-09
5.3544584e-07
9.5054855e-09
5.2834966e-07
9.4615942e-09
5.2128718e-07
9.4166813e-09
5.1425902e-07
9.3709097e-09
5.0726556e-07
9.3246505e-09
5.0030674e-07
9.2784663e-09
4.9338192e-07
9.2331364e-09
4.8648968e-07
9.1897194e-09
4.796275e-07
9.1496578e-09
4.7279138e-07
9.1149367e-09
4.6597525e-07
9.0883325e-09
4.5917008e-07
9.0737688e-09
4.5236262e-07
9.0769165e-09
4.4553346e-07
9.1059955e-09
4.3865389e-07
9.173424e-09
4.316814e-07
9.2976348e-09
4.2455106e-07
9.5086235e-09
4.1716411e-07
9.8515924e-09
4.0935843e-07
1.0411273e-08
4.0087851e-07
1.1312678e-08
3.9125106e-07
1.2847341e-08
3.7964682e-07
1.5493207e-08
3.6423175e-07
2.0600654e-08
3.4044484e-07
3.1844568e-08
2.9770709e-07
5.6908423e-08
1.3542126e-09
3.1000003e-07
1.0397566e-06
2.474893e-08
1.0268079e-06
2.3313663e-08
1.0140594e-06
2.2948356e-08
1.001478e-06
2.2646895e-08
9.8905089e-07
2.2369035e-08
9.7673651e-07
2.2166046e-08
9.6450683e-07
2.201357e-08
9.5234773e-07
2.1886513e-08
9.4025013e-07
2.1775834e-08
9.2820839e-07
2.1675304e-08
9.1622006e-07
2.157918e-08
9.0428476e-07
2.1483746e-08
8.9240316e-07
2.1387083e-08
8.8057644e-07
2.1288316e-08
8.6880587e-07
2.118725e-08
8.5709253e-07
2.1084248e-08
8.4543704e-07
2.0980142e-08
8.3383931e-07
2.0876192e-08
8.222983e-07
2.0774146e-08
8.1081165e-07
2.0676376e-08
7.9937519e-07
2.0586115e-08
7.8798232e-07
2.0507808e-08
7.7662298e-07
2.0447673e-08
7.6528225e-07
2.0414494e-08
7.539382e-07
2.0420963e-08
7.4255873e-07
2.0485467e-08
7.3109638e-07
2.063578e-08
7.1948092e-07
2.0913091e-08
7.0760511e-07
2.1384432e-08
6.9530609e-07
2.2150613e-08
6.8231655e-07
2.3400814e-08
6.6821629e-07
2.5412939e-08
6.5222723e-07
2.88364e-08
6.3299331e-07
3.4727133e-08
6.0751799e-07
4.6075973e-08
5.68499e-07
7.0863554e-08
4.969574e-07
1.2845002e-07
-6.965888e-09
5.052775e-07
1.4556234e-06
4.3865187e-08
1.4375092e-06
4.1427872e-08
1.4196642e-06
4.0793273e-08
1.4020516e-06
4.0259511e-08
1.3846545e-06
3.9766172e-08
1.367415e-06
3.9405548e-08
1.350294e-06
3.9134595e-08
1.3332717e-06
3.8908772e-08
1.3163355e-06
3.8712017e-08
1.2994775e-06
3.8533286e-08
1.2826943e-06
3.8362386e-08
1.2659854e-06
3.8192714e-08
1.2493516e-06
3.8020859e-08
1.2327946e-06
3.7845264e-08
1.2163163e-06
3.7665577e-08
1.1999181e-06
3.7482441e-08
1.1836009e-06
3.7297328e-08
1.1673647e-06
3.7112471e-08
1.1512078e-06
3.6930965e-08
1.1351272e-06
3.6757011e-08
1.119117e-06
3.659633e-08
1.103168e-06
3.6456792e-08
1.0872663e-06
3.6349398e-08
1.0713911e-06
3.6289684e-08
1.055512e-06
3.6300092e-08
1.0395843e-06
3.6413122e-08
1.0235422e-06
3.6677852e-08
1.0072883e-06
3.7167002e-08
9.9067381e-07
3.7998937e-08
9.7347314e-07
3.9351291e-08
9.5531612e-07
4.1557832e-08
9.3562231e-07
4.5106749e-08
9.1331711e-07
5.1141597e-08
8.865394e-07
6.1504844e-08
8.5116702e-07
8.1448347e-08
7.9745043e-07
1.2458015e-07
6.9732582e-07
2.2857463e-07
-1.0028103e-10
6.9046021e-07
1.8714571e-06
6.8349755e-08
1.8481881e-06
6.4696957e-08
1.8252503e-06
6.3731075e-08
1.802608e-06
6.29018e-08
1.7802418e-06
6.2132313e-08
1.758078e-06
6.1569388e-08
1.7360663e-06
6.1146314e-08
1.7141814e-06
6.0793628e-08
1.6924072e-06
6.0486268e-08
1.6707334e-06
6.0207023e-08
1.6491558e-06
5.9940001e-08
1.6276736e-06
5.9674893e-08
1.6062881e-06
5.9406374e-08
1.5850014e-06
5.9132005e-08
1.5638157e-06
5.8851237e-08
1.5427331e-06
5.8565065e-08
1.5217546e-06
5.8275781e-08
1.5008802e-06
5.7986862e-08
1.4801081e-06
5.7703124e-08
1.459434e-06
5.7431105e-08
1.4388506e-06
5.717971e-08
1.4183462e-06
5.6961178e-08
1.397903e-06
5.6792618e-08
1.3774945e-06
5.6698179e-08
1.3570819e-06
5.6712741e-08
1.3366082e-06
5.6886786e-08
1.3159895e-06
5.729654e-08
1.2951017e-06
5.8054837e-08
1.2737552e-06
5.9345377e-08
1.2516633e-06
6.1443253e-08
1.2283551e-06
6.4866012e-08
1.2030944e-06
7.0367472e-08
1.1745185e-06
7.9717507e-08
1.1402838e-06
9.5739523e-08
1.0951767e-06
1.2655542e-07
1.027337e-06
1.9241983e-07
8.9895482e-07
3.5695684e-07
2.4442927e-08
8.7441162e-07
3.6937993e-06
1.1644133e-07
3.6479173e-06
1.1057894e-07
3.602661e-06
1.0898737e-07
3.5579778e-06
1.0758504e-07
3.5138359e-06
1.062742e-07
3.4700919e-06
1.0531331e-07
3.4266477e-06
1.0459058e-07
3.3834534e-06
1.0398793e-07
3.3404771e-06
1.0346252e-07
3.2976991e-06
1.0298502e-07
3.2551108e-06
1.0252837e-07
3.2127107e-06
1.0207496e-07
3.1705014e-06
1.016157e-07
3.128487e-06
1.0114641e-07
3.086672e-06
1.0066615e-07
3.0450605e-06
1.0017661e-07
3.0036546e-06
9.9681673e-08
2.9624542e-06
9.9187264e-08
2.9214558e-06
9.8701574e-08
2.8806511e-06
9.8235718e-08
2.840026e-06
9.7804831e-08
2.7995575e-06
9.7429705e-08
2.7592107e-06
9.7139389e-08
2.718934e-06
9.697487e-08
2.6786515e-06
9.6995314e-08
2.6382519e-06
9.72863e-08
2.5975715e-06
9.7976996e-08
2.556368e-06
9.9258371e-08
2.514272e-06
1.0144132e-07
2.4707251e-06
1.0499012e-07
2.4248119e-06
1.1077923e-07
2.3751037e-06
1.2007571e-07
2.3189627e-06
1.358585e-07
2.2518941e-06
1.6280814e-07
2.1638506e-06
2.1459892e-07
2.0333529e-06
3.2291748e-07
1.7820282e-06
6.082816e-07
1.1861655e-07
1.6878546e-06
5.3587817e-06
1.8588039e-07
5.29232e-06
1.7704063e-07
5.2267056e-06
1.7460177e-07
5.1618987e-06
1.7239192e-07
5.0978691e-06
1.7030386e-07
5.0344135e-06
1.6876889e-07
4.9713909e-06
1.6761317e-07
4.9087298e-06
1.6664905e-07
4.8463843e-06
1.6580802e-07
4.784326e-06
1.6504336e-07
4.7225424e-06
1.6431191e-07
4.6610318e-06
1.6358557e-07
4.5997977e-06
1.6284979e-07
4.5388463e-06
1.6209787e-07
4.4781841e-06
1.6132829e-07
4.417817e-06
1.6054375e-07
4.3577482e-06
1.5975043e-07
4.2979777e-06
1.5895778e-07
4.2385004e-06
1.5817883e-07
4.1793049e-06
1.5743128e-07
4.1203705e-06
1.5673921e-07
4.0616645e-06
1.5613569e-07
4.003137e-06
1.5566688e-07
3.944714e-06
1.553979e-07
3.8862866e-06
1.5542268e-07
3.827696e-06
1.5587698e-07
3.7687073e-06
1.5696563e-07
3.7089747e-06
1.5899104e-07
3.6479705e-06
1.6244551e-07
3.5848987e-06
1.6806191e-07
3.5184556e-06
1.7722231e-07
3.4466134e-06
1.9191793e-07
3.3656323e-06
2.1683957e-07
3.269229e-06
2.5921142e-07
3.1431305e-06
3.4069743e-07
2.9595585e-06
5.0648945e-07
2.6003493e-06
9.6749084e-07
2.9788147e-07
2.4210844e-06
7.5673564e-06
2.8350808e-07
7.4736679e-06
2.7072916e-07
7.3810904e-06
2.6717926e-07
7.2896102e-06
2.6387211e-07
7.1992114e-06
2.607027e-07
7.1096165e-06
2.583638e-07
7.0206293e-06
2.5660039e-07
6.93215e-06
2.551283e-07
6.8441149e-06
2.5384316e-07
6.7564842e-06
2.5267403e-07
6.6692408e-06
2.5155531e-07
6.5823822e-06
2.5044415e-07
6.4959137e-06
2.4931833e-07
6.4098439e-06
2.4816766e-07
6.3241824e-06
2.469898e-07
6.2389373e-06
2.4578884e-07
6.1541135e-06
2.4457421e-07
6.0697111e-06
2.4336025e-07
5.9857231e-06
2.421668e-07
5.9021336e-06
2.4102076e-07
5.8189141e-06
2.3995869e-07
5.736019e-06
2.3903078e-07
5.6533788e-06
2.3830706e-07
5.5708905e-06
2.3788622e-07
5.4884026e-06
2.3791057e-07
5.405694e-06
2.3858561e-07
5.3224384e-06
2.4022121e-07
5.2381553e-06
2.4327416e-07
5.1521127e-06
2.4848812e-07
5.0632085e-06
2.5696608e-07
4.9696397e-06
2.7079116e-07
4.868612e-06
2.9294561e-07
4.7549751e-06
3.3047649e-07
4.6202355e-06
3.9395093e-07
4.4445937e-06
5.1633927e-07
4.1939574e-06
7.5712571e-07
3.697094e-06
1.4643542e-06
5.9788092e-07
3.3970946e-06
1.0480409e-05
4.1811543e-07
1.0350896e-05
4.0024218e-07
1.022282e-05
3.9525501e-07
1.0096195e-05
3.9049712e-07
9.9710375e-06
3.8586003e-07
9.8469805e-06
3.8242079e-07
9.7237578e-06
3.7982307e-07
9.6012338e-06
3.7765232e-07
9.4793216e-06
3.7575534e-07
9.3579674e-06
3.7402824e-07
9.2371479e-06
3.7237479e-07
9.1168602e-06
3.7073193e-07
8.9971115e-06
3.6906694e-07
8.8779144e-06
3.6736482e-07
8.7592821e-06
3.6562213e-07
8.641226e-06
3.6384488e-07
8.5237533e-06
3.6204696e-07
8.4068641e-06
3.6024944e-07
8.2905494e-06
3.5848149e-07
8.1747876e-06
3.5678259e-07
8.0595399e-06
3.5520639e-07
7.9447442e-06
3.5382647e-07
7.8303058e-06
3.5274542e-07
7.7160843e-06
3.5210772e-07
7.6018733e-06
3.5212157e-07
7.4873716e-06
3.5308731e-07
7.3721352e-06
3.5545762e-07
7.2555108e-06
3.5989852e-07
7.1365045e-06
3.6749449e-07
7.0136231e-06
3.7984745e-07
6.8844269e-06
3.9998733e-07
6.7451505e-06
4.3222199e-07
6.5888526e-06
4.8677441e-07
6.4043625e-06
5.7844106e-07
6.1646726e-06
7.5602916e-07
5.8299648e-06
1.0918336e-06
5.1602128e-06
2.1341061e-06
1.0684869e-06
4.6896069e-06
1.4311326e-05
5.943999e-07
1.4141556e-05
5.700123e-07
1.3973576e-05
5.6323514e-07
1.3807396e-05
5.566772e-07
1.364309e-05
5.5016608e-07
1.3480184e-05
5.4532709e-07
1.3318324e-05
5.4168311e-07
1.3157328e-05
5.3864751e-07
1.2997082e-05
5.3600193e-07
1.2837511e-05
5.3359869e-07
1.2678586e-05
5.3130044e-07
1.2520301e-05
5.2901683e-07
1.2362667e-05
5.267009e-07
1.2205701e-05
5.2433115e-07
1.204942e-05
5.2190266e-07
1.1893841e-05
5.1942405e-07
1.1738973e-05
5.1691527e-07
1.1584815e-05
5.144066e-07
1.1431357e-05
5.1193992e-07
1.1278568e-05
5.095719e-07
1.1126394e-05
5.0737954e-07
1.0974753e-05
5.0546837e-07
1.0823512e-05
5.0398551e-07
1.0672482e-05
5.0313797e-07
1.052138e-05
5.03224e-07
1.0369794e-05
5.0467338e-07
1.0217118e-05
5.0813366e-07
1.006246e-05
5.1455582e-07
9.9044664e-06
5.2548852e-07
9.7411041e-06
5.432097e-07
9.5690578e-06
5.7203364e-07
9.3832289e-06
6.1805089e-07
9.1742106e-06
6.9579268e-07
8.9273262e-06
8.2532547e-07
8.6053739e-06
1.0779815e-06
8.1631156e-06
1.5340918e-06
7.266904e-06
3.0303178e-06
1.7881926e-06
6.5471982e-06
1.9318568e-05
8.2712275e-07
1.9094305e-05
7.9427491e-07
1.8872367e-05
7.8517353e-07
1.8652677e-05
7.763672e-07
1.8435388e-05
7.6745526e-07
1.8219898e-05
7.6081686e-07
1.8005746e-05
7.5583488e-07
1.7792695e-05
7.516992e-07
1.7580591e-05
7.4810599e-07
1.7369339e-05
7.4485037e-07
1.7158899e-05
7.4174068e-07
1.6949265e-05
7.3865028e-07
1.6740453e-05
7.3551328e-07
1.6532484e-05
7.3229957e-07
1.6325385e-05
7.2900228e-07
1.6119175e-05
7.2563359e-07
1.5913869e-05
7.2222158e-07
1.5709467e-05
7.1880891e-07
1.5505952e-05
7.1545446e-07
1.5303286e-05
7.1223798e-07
1.5101398e-05
7.0926766e-07
1.4900175e-05
7.0669179e-07
1.4699443e-05
7.0471695e-07
1.4498947e-05
7.0363368e-07
1.4298311e-05
7.0386027e-07
1.4096986e-05
7.0599896e-07
1.3894163e-05
7.1095664e-07
1.3688656e-05
7.2006249e-07
1.3478663e-05
7.3548114e-07
1.3261491e-05
7.6038202e-07
1.3032749e-05
8.0077529e-07
1.2785721e-05
8.6507888e-07
1.2507983e-05
9.7353059e-07
1.2180934e-05
1.1523749e-06
1.1754479e-05
1.5044366e-06
1.1180717e-05
2.1078539e-06
1.0014266e-05
4.1967682e-06
2.8274856e-06
8.9749735e-06
2.5841422e-05
1.1354402e-06
2.5543776e-05
1.0919213e-06
2.5249253e-05
1.0796966e-06
2.4957576e-05
1.0680436e-06
2.4668985e-05
1.0560464e-06
2.4382722e-05
1.0470795e-06
2.4098193e-05
1.0403642e-06
2.381509e-05
1.0348025e-06
2.3533216e-05
1.0299799e-06
2.3252449e-05
1.0256175e-06
2.2972736e-05
1.0214532e-06
2.2694074e-05
1.0173125e-06
2.2416483e-05
1.0131048e-06
2.2139993e-05
1.0087887e-06
2.1864641e-05
1.0043551e-06
2.1590454e-05
9.9982067e-07
2.1317451e-05
9.9522454e-07
2.1045634e-05
9.9062567e-07
2.0774983e-05
9.8610551e-07
2.0505447e-05
9.8177416e-07
2.0236933e-05
9.7778098e-07
1.9969295e-05
9.7433047e-07
1.9702304e-05
9.7170729e-07
1.9435626e-05
9.7031153e-07
1.9168768e-05
9.7071873e-07
1.890101e-05
9.7375655e-07
1.8631296e-05
9.8067054e-07
1.8358077e-05
9.9328201e-07
1.8079001e-05
1.014557e-06
1.7790567e-05
1.0488163e-06
1.7487079e-05
1.1042636e-06
1.7159874e-05
1.1922835e-06
1.6792854e-05
1.3405503e-06
1.6363161e-05
1.5820683e-06
1.580453e-05
2.0630675e-06
1.5069905e-05
2.8424788e-06
1.3585269e-05
5.6814044e-06
4.2686683e-06
1.2144086e-05
3.4317614e-05
1.5416667e-06
3.3924812e-05
1.4847231e-06
3.3536324e-05
1.4681851e-06
3.3151464e-05
1.4529033e-06
3.2770549e-05
1.4369614e-06
3.2392626e-05
1.4250023e-06
3.2016931e-05
1.4160593e-06
3.1643069e-05
1.4086643e-06
3.1270791e-05
1.4022587e-06
3.0899939e-05
1.3964694e-06
3.0530449e-05
1.390943e-06
3.0162318e-05
1.3854433e-06
2.9795576e-05
1.3798473e-06
2.9430265e-05
1.3740993e-06
2.9066433e-05
1.3681869e-06
2.870412e-05
1.3621337e-06
2.8343352e-05
1.3559928e-06
2.7984133e-05
1.3498448e-06
2.7626438e-05
1.3438007e-06
2.7270201e-05
1.3380103e-06
2.6915306e-05
1.3326767e-06
2.6561559e-05
1.3280775e-06
2.6208667e-05
1.324599e-06
2.5856195e-05
1.3227834e-06
2.5503504e-05
1.32341e-06
2.5149662e-05
1.3275979e-06
2.4793303e-05
1.33703e-06
2.4432424e-05
1.3541607e-06
2.4063995e-05
1.3829866e-06
2.3683514e-05
1.4292966e-06
2.328368e-05
1.5040977e-06
2.2853469e-05
1.6224949e-06
2.2372239e-05
1.8217798e-06
2.1812549e-05
2.1417584e-06
2.1087736e-05
2.7878807e-06
2.0155395e-05
3.7748198e-06
1.8295797e-05
7.5410021e-06
6.2141893e-06
1.6350276e-05
4.5324119e-05
2.0552978e-06
4.4827408e-05
1.981434e-06
4.4336568e-05
1.9590253e-06
4.3850188e-05
1.9392835e-06
4.3368633e-05
1.9185161e-06
4.2890701e-05
1.9029345e-06
4.2415403e-05
1.8913572e-06
4.1942231e-05
1.8818363e-06
4.1470865e-05
1.8736244e-06
4.1001107e-05
1.8662277e-06
4.0532874e-05
1.8591758e-06
4.0066165e-05
1.8521521e-06
3.9601021e-05
1.844992e-06
3.9137499e-05
1.8376209e-06
3.8675663e-05
1.830023e-06
3.8215566e-05
1.8222302e-06
3.7757245e-05
1.8143146e-06
3.7300704e-05
1.8063852e-06
3.6845914e-05
1.7985915e-06
3.6392788e-05
1.7911357e-06
3.5941174e-05
1.784291e-06
3.549082e-05
1.7784311e-06
3.5041345e-05
1.7740748e-06
3.4592178e-05
1.7719503e-06
3.4142485e-05
1.7731028e-06
3.3691051e-05
1.7790316e-06
3.3236092e-05
1.7919887e-06
3.2775003e-05
1.8152501e-06
3.2303841e-05
1.8541483e-06
3.1816776e-05
1.9163614e-06
3.1304366e-05
2.0165084e-06
3.0752486e-05
2.174374e-06
3.0134392e-05
2.4398738e-06
2.94172e-05
2.8589504e-06
2.8486886e-05
3.7181951e-06
2.7308711e-05
4.952995e-06
2.4989147e-05
9.8605656e-06
8.8246111e-06
2.2378725e-05
5.9555111e-05
2.7102529e-06
5.8919542e-05
2.6170034e-06
5.8292173e-05
2.5863947e-06
5.7670513e-05
2.560943e-06
5.7054862e-05
2.5341676e-06
5.6443707e-05
2.5140889e-06
5.5835767e-05
2.4992973e-06
5.5230375e-05
2.4872279e-06
5.4627123e-05
2.4768765e-06
5.4025759e-05
2.4675923e-06
5.3426179e-05
2.458755e-06
5.2828387e-05
2.4499444e-06
5.2232438e-05
2.4409414e-06
5.1638411e-05
2.4316477e-06
5.1046391e-05
2.4220429e-06
5.0456451e-05
2.4121701e-06
4.986864e-05
2.4021263e-06
4.9282968e-05
2.3920569e-06
4.8699397e-05
2.3821621e-06
4.8117822e-05
2.3727112e-06
4.7538044e-05
2.3640686e-06
4.6959744e-05
2.3567313e-06
4.6382429e-05
2.3513895e-06
4.580537e-05
2.3490101e-06
4.5227492e-05
2.35098e-06
4.4647239e-05
2.359285e-06
4.4062323e-05
2.3769048e-06
4.3469411e-05
2.4081623e-06
4.2863472e-05
2.4600869e-06
4.2237092e-05
2.5427419e-06
4.1578298e-05
2.6753017e-06
4.0869404e-05
2.883268e-06
4.0076463e-05
3.2328148e-06
3.9161051e-05
3.7743625e-06
3.7977677e-05
4.9015699e-06
3.6501625e-05
6.4290469e-06
3.3673674e-05
1.2688516e-05
1.2237934e-05
3.0260351e-05
0.00010678208
3.8427368e-06
0.00010567237
3.7267115e-06
0.00010457982
3.6789412e-06
0.00010349783
3.6429373e-06
0.00010242586
3.6061408e-06
0.00010136151
3.5784392e-06
0.00010030254
3.558263e-06
9.9247717e-05
3.5420511e-06
9.8196304e-05
3.5282896e-06
9.7147865e-05
3.516031e-06
9.6102226e-05
3.5043937e-06
9.5059396e-05
3.4927749e-06
9.4019478e-05
3.4808589e-06
9.2982622e-05
3.4685043e-06
9.1948982e-05
3.455683e-06
9.0918694e-05
3.442458e-06
8.989185e-05
3.4289698e-06
8.8868478e-05
3.4154287e-06
8.7848517e-05
3.4021231e-06
8.6831788e-05
3.3894407e-06
8.5817952e-05
3.3779045e-06
8.4806456e-05
3.3682273e-06
8.3796449e-05
3.3613968e-06
8.2786664e-05
3.3587947e-06
8.1775246e-05
3.3623985e-06
8.0759495e-05
3.3750354e-06
7.9735466e-05
3.4009338e-06
7.8697412e-05
3.4462166e-06
7.7636709e-05
3.5207895e-06
7.6540658e-05
3.6387932e-06
7.5388971e-05
3.8269888e-06
7.4151908e-05
4.1203308e-06
7.277252e-05
4.612203e-06
7.1189959e-05
5.356923e-06
6.9164872e-05
6.9266568e-06
6.6659884e-05
8.9340355e-06
6.214395e-05
1.720445e-05
1.8470453e-05
5.5911431e-05
0.0001367625
5.2125954e-06
0.00013541837
5.0708467e-06
0.0001340964
5.0009041e-06
0.00013278783
4.9515149e-06
0.0001314912
4.9027654e-06
0.00013020359
4.8660545e-06
0.00012892209
4.8397611e-06
0.00012764505
4.8190859e-06
0.00012637153
4.8018188e-06
0.00012510094
4.7866187e-06
0.00012383306
4.7722697e-06
0.0001225679
4.7579327e-06
0.0001213056
4.7431651e-06
0.00012004633
4.7277697e-06
0.00011879031
4.7117067e-06
0.0001175377
4.6950636e-06
0.00011628864
4.6780345e-06
0.00011504316
4.6609109e-06
0.00011380119
4.6440916e-06
0.00011256252
4.6281119e-06
0.00011132673
4.6136932e-06
0.00011009314
4.6018167e-06
0.00010886069
4.5938401e-06
0.00010762783
4.5916594e-06
0.00010639225
4.5979831e-06
0.0001051506
4.616676e-06
0.00010389804
4.6535011e-06
0.00010262747
4.7167827e-06
0.00010132833
4.8199303e-06
9.9985139e-05
4.9819852e-06
9.8573208e-05
5.2389196e-06
9.705729e-05
5.6362484e-06
9.5368341e-05
6.3011522e-06
9.3438424e-05
7.2868397e-06
9.0985194e-05
9.3798874e-06
8.797839e-05
1.1940839e-05
8.2836424e-05
2.2346416e-05
2.5814139e-05
7.5492738e-05
0.00017211304
6.8386619e-06
0.00017051707
6.6668201e-06
0.00016894838
6.5695922e-06
0.00016739627
6.5036244e-06
0.00016585827
6.4407693e-06
0.00016433079
6.3935334e-06
0.00016281018
6.3603712e-06
0.00016129428
6.3349824e-06
0.00015978186
6.3142401e-06
0.00015827218
6.2962972e-06
0.00015676494
6.2795146e-06
0.00015526012
6.2627502e-06
0.00015375789
6.2453973e-06
0.00015225848
6.2271842e-06
0.00015076213
6.2080539e-06
0.00014926907
6.188121e-06
0.00014777946
6.1676448e-06
0.00014629336
6.1470149e-06
0.00014481068
6.1267651e-06
0.00014333118
6.1076111e-06
0.00014185436
6.0905161e-06
0.00014037939
6.0767887e-06
0.00013890499
6.0682365e-06
0.00013742927
6.0673799e-06
0.00013594944
6.0778118e-06
0.00013446147
6.1046489e-06
0.00013295947
6.1554991e-06
0.00013143494
6.2413163e-06
0.00012987518
6.3796899e-06
0.00012826178
6.5953844e-06
0.00012656532
6.9353825e-06
0.00012474509
7.4564743e-06
0.00012271929
8.3269501e-06
0.00012041335
9.5927837e-06
0.00011750652
1.2286713e-05
0.00011396811
1.5479249e-05
0.00010823776
2.8076774e-05
3.4169565e-05
9.9882331e-05
0.0002136537
8.7451897e-06
0.00021178173
8.5387895e-06
0.00020994251
8.4088124e-06
0.0002081235
8.3226355e-06
0.0002063209
8.2433668e-06
0.00020453045
8.1839852e-06
0.00020274765
8.14317e-06
0.00020096977
8.1128668e-06
0.00019919523
8.0887747e-06
0.00019742312
8.0684115e-06
0.00019565302
8.049617e-06
0.0001938849
8.0308694e-06
0.00019211894
8.0113525e-06
0.00019035543
7.9906987e-06
0.00018859466
7.968825e-06
0.0001868369
7.9458759e-06
0.00018508236
7.9221866e-06
0.00018333111
7.8982639e-06
0.00018158307
7.8748027e-06
0.00017983795
7.8527349e-06
0.00017809515
7.8333131e-06
0.0001763537
7.8182375e-06
0.00017461209
7.8098525e-06
0.00017286805
7.8114218e-06
0.00017111827
7.8275884e-06
0.00016935797
7.8649494e-06
0.00016758018
7.9332878e-06
0.00016577486
8.0466331e-06
0.00016392709
8.2274643e-06
0.0001620154
8.5070716e-06
0.00016000544
8.9453482e-06
0.00015785115
9.6107566e-06
0.000155458
1.0720104e-05
0.0001527442
1.2306585e-05
0.00014936129
1.5669621e-05
0.00014526222
1.9578317e-05
0.0001389941
3.4344898e-05
4.3439e-05
0.00012972466
0.00026235658
1.0925426e-05
0.00026021621
1.0679161e-05
0.00025811453
1.0510489e-05
0.00025603701
1.0400156e-05
0.00025397807
1.0302305e-05
0.00025193263
1.0229427e-05
0.00024989528
1.0180521e-05
0.00024786262
1.014553e-05
0.00024583271
1.0118679e-05
0.00024380442
1.0096703e-05
0.00024177723
1.0076815e-05
0.00023975107
1.0057028e-05
0.00023772615
1.0036269e-05
0.0002357028
1.0014047e-05
0.00023368138
9.9902462e-06
0.00023166221
9.9650417e-06
0.00022964554
9.938857e-06
0.00022763147
9.9123366e-06
0.00022561991
9.8863656e-06
0.00022361051
9.8621315e-06
0.0002216026
9.8412294e-06
0.00021959501
9.8258217e-06
0.00021758598
9.8188863e-06
0.00021557284
9.8245614e-06
0.0002135517
9.8487224e-06
0.00021151696
9.899697e-06
0.00020946044
9.989802e-06
0.00020737045
1.0136622e-05
0.00020522963
1.0368286e-05
0.00020301328
1.0723427e-05
0.00020068176
1.1276861e-05
0.00019818354
1.2108983e-05
0.00019541124
1.3492404e-05
0.00019227372
1.5444098e-05
0.00018840803
1.9535312e-05
0.00018372908
2.4257268e-05
0.00017696915
4.1104828e-05
5.3537596e-05
0.00016687055
0.0003193138
1.3344063e-05
0.00031694091
1.3052054e-05
0.00031461289
1.2838507e-05
0.00031231317
1.2699878e-05
0.0003100339
1.2581572e-05
0.00030776898
1.2494352e-05
0.00030551198
1.243752e-05
0.00030325874
1.2398767e-05
0.00030100693
1.237049e-05
0.00029875517
1.2348463e-05
0.00029650283
1.2329159e-05
0.00029424982
1.2310034e-05
0.00029199639
1.2289702e-05
0.00028974291
1.2267526e-05
0.00028748981
1.2243344e-05
0.00028523748
1.2217369e-05
0.00028298622
1.2190125e-05
0.00028073613
1.2162418e-05
0.00027848715
1.2135355e-05
0.00027623885
1.2110423e-05
0.00027399046
1.208962e-05
0.00027174064
1.2075649e-05
0.0002694873
1.2072227e-05
0.00026722734
1.2084513e-05
0.00026495625
1.2119816e-05
0.00026266748
1.2188468e-05
0.00026035157
1.2305711e-05
0.00025799499
1.2493199e-05
0.00025557775
1.2785529e-05
0.00025307166
1.3229514e-05
0.00025043156
1.3916965e-05
0.00024760002
1.4940524e-05
0.00024445738
1.663504e-05
0.00024089993
1.9001555e-05
0.00023656472
2.3870516e-05
0.00023130786
2.9514131e-05
0.00022411327
4.8299416e-05
6.4350849e-05
0.00021330002
0.00038568682
1.6005929e-05
0.00038307762
1.5661247e-05
0.00038051999
1.5396141e-05
0.00037799534
1.5224528e-05
0.00037549316
1.5083755e-05
0.00037300605
1.4981461e-05
0.00037052648
1.4917092e-05
0.00036804941
1.4875832e-05
0.00036557206
1.4847841e-05
0.0003630928
1.482772e-05
0.00036061089
1.4811067e-05
0.00035812625
1.4794681e-05
0.00035563915
1.4776803e-05
0.00035315005
1.4756623e-05
0.00035065946
1.4733929e-05
0.00034816786
1.4708971e-05
0.00034567559
1.4682394e-05
0.00034318282
1.465519e-05
0.00034068945
1.4628727e-05
0.00033819503
1.4604838e-05
0.00033569867
1.4585985e-05
0.00033319882
1.4575497e-05
0.0003306931
1.4577947e-05
0.00032817795
1.4599664e-05
0.00032564816
1.4649601e-05
0.00032309625
1.4740378e-05
0.0003205114
1.4890563e-05
0.0003178782
1.5126397e-05
0.00031517398
1.5489751e-05
0.00031236706
1.6036434e-05
0.00030940693
1.6877096e-05
0.00030623017
1.8117279e-05
0.00030270801
2.01572e-05
0.00029872251
2.2987055e-05
0.00029392066
2.8672365e-05
0.00028809249
3.5342307e-05
0.00028052629
5.5865612e-05
7.5686218e-05
0.00026919092
0.00046287682
1.8873108e-05
0.00046007078
1.8467287e-05
0.00045732373
1.8143197e-05
0.00045461491
1.7933345e-05
0.00045193063
1.7768031e-05
0.00044926181
1.7650282e-05
0.00044659961
1.7579295e-05
0.000443938
1.7537447e-05
0.00044127364
1.7512196e-05
0.00043860466
1.74967e-05
0.00043593019
1.7485533e-05
0.00043325016
1.7474719e-05
0.0004305649
1.7462059e-05
0.00042787498
1.7446544e-05
0.00042518101
1.7427898e-05
0.00042248356
1.7406424e-05
0.00041978305
1.7382902e-05
0.0004170797
1.7358541e-05
0.00041437342
1.7335008e-05
0.00041166372
1.7314538e-05
0.00040894958
1.7300126e-05
0.00040622926
1.7295819e-05
0.00040350004
1.7307163e-05
0.00040075788
1.7341826e-05
0.00039799686
1.7410623e-05
0.00039520847
1.7528763e-05
0.00039238048
1.7718554e-05
0.00038949552
1.8011355e-05
0.00038652816
1.8457113e-05
0.00038344312
1.9121476e-05
0.00038018477
2.0135444e-05
0.00037668316
2.1618896e-05
0.00037280371
2.4036647e-05
0.00036841188
2.7378881e-05
0.00036317258
3.3911666e-05
0.00035680906
4.1705833e-05
0.0003489365
6.373817e-05
8.7356219e-05
0.0003372665
0.00055242101
2.1898198e-05
0.00054947
2.1418294e-05
0.0005465877
2.1025497e-05
0.00054375005
2.0771004e-05
0.00054093932
2.0578757e-05
0.00053814412
2.0445483e-05
0.00053535404
2.0369373e-05
0.00053256191
2.0329573e-05
0.0005297638
2.0310312e-05
0.00052695751
2.0302986e-05
0.00052414208
2.0300961e-05
0.00052131745
2.0299356e-05
0.00051848404
2.0295462e-05
0.00051564255
2.0288037e-05
0.00051279371
2.0276738e-05
0.00050993821
2.0261924e-05
0.00050707658
2.0244536e-05
0.00050420908
2.0226033e-05
0.00050133567
2.0208425e-05
0.0004984558
2.0194404e-05
0.00049556835
2.0187576e-05
0.00049267137
2.01928e-05
0.0004897618
2.0216728e-05
0.00048683509
2.0268534e-05
0.00048388459
2.0361132e-05
0.00048090073
2.0512623e-05
0.00047786981
2.0749475e-05
0.00047477245
2.110871e-05
0.00047158046
2.1649102e-05
0.0004682549
2.2447034e-05
0.0004647355
2.3654849e-05
0.00046094532
2.5409076e-05
0.00045674729
2.8234674e-05
0.00045198695
3.2139222e-05
0.00044635841
3.9540201e-05
0.00043951926
4.854499e-05
0.0004314216
7.1835822e-05
9.9144715e-05
0.00041963311
0.0006560615
2.4967945e-05
0.00065307867
2.4401131e-05
0.00065017362
2.3930539e-05
0.00064731923
2.3625399e-05
0.00064449373
2.3404255e-05
0.000641683
2.3256216e-05
0.00063887488
2.3177494e-05
0.00063606097
2.3143476e-05
0.00063323668
2.3134605e-05
0.00063039951
2.3140151e-05
0.00062754841
2.3152062e-05
0.00062468335
2.3164414e-05
0.0006218049
2.3173913e-05
0.00061891389
2.3179053e-05
0.00061601121
2.3179418e-05
0.0006130977
2.3175435e-05
0.000610174
2.3168232e-05
0.00060724048
2.3159555e-05
0.0006042971
2.3151805e-05
0.00060134331
2.3148194e-05
0.00059837787
2.3153015e-05
0.00059539862
2.3172048e-05
0.00059240217
2.3213183e-05
0.00058938342
2.3287283e-05
0.00058633495
2.3409599e-05
0.00058324613
2.3601444e-05
0.00058010173
2.3893873e-05
0.00057688032
2.4330116e-05
0.00057355096
2.4978468e-05
0.00057007098
2.5927012e-05
0.00056637596
2.7349872e-05
0.00056238179
2.9403242e-05
0.00055795152
3.266495e-05
0.00055291128
3.7179454e-05
0.00054699846
4.5453027e-05
0.00053978529
5.5758155e-05
0.00053157583
8.0045286e-05
0.0001108087
0.00051991184
0.00077564862
2.802309e-05
0.00077270132
2.7348438e-05
0.00076984493
2.6786922e-05
0.00076704683
2.6423502e-05
0.0007642801
2.6170986e-05
0.00076152698
2.6009341e-05
0.00075877316
2.5931308e-05
0.00075600898
2.5907663e-05
0.00075322913
2.5914451e-05
0.00075043087
2.593841e-05
0.00074761311
2.5969827e-05
0.00074477593
2.6001595e-05
0.00074192007
2.6029765e-05
0.00073904658
2.6052544e-05
0.00073615656
2.6069443e-05
0.00073325102
2.6080978e-05
0.00073033076
2.6088493e-05
0.00072739625
2.6094062e-05
0.00072444752
2.610053e-05
0.00072148402
2.6111695e-05
0.00071850442
2.6132619e-05
0.00071550636
2.6170107e-05
0.00071248612
2.6233425e-05
0.00070943809
2.6335307e-05
0.00070635412
2.6493573e-05
0.0007032225
2.673306e-05
0.00070002657
2.7089803e-05
0.00069674293
2.7613763e-05
0.00069333809
2.8383309e-05
0.00068976592
2.9499178e-05
0.00068595878
3.1157009e-05
0.00068182601
3.3536014e-05
0.00067723391
3.7257052e-05
0.00067199209
4.2421274e-05
0.00066589936
5.1545759e-05
0.0006584259
6.3231611e-05
0.00065021454
8.8256646e-05
0.00012208746
0.00063893579
0.0009132813
3.0967012e-05
0.00091046962
3.0160114e-05
0.00090776305
2.9493497e-05
0.00090512246
2.9064086e-05
0.00090251555
2.8777896e-05
0.00089992024
2.8604648e-05
0.00089731978
2.8531769e-05
0.00089470322
2.8524226e-05
0.00089206464
2.8553033e-05
0.00088940107
2.8601975e-05
0.00088671151
2.8659391e-05
0.00088399625
2.8716856e-05
0.0008812563
2.8769715e-05
0.00087849296
2.8815876e-05
0.00087570762
2.8854787e-05
0.00087290152
2.888708e-05
0.00087007565
2.891436e-05
0.00086723064
2.8939073e-05
0.00086436661
2.8964564e-05
0.00086148302
2.8995283e-05
0.00085857849
2.9037149e-05
0.0008556505
2.9098094e-05
0.00085269503
2.9188899e-05
0.000849706
2.9324338e-05
0.00084667455
2.9525027e-05
0.00084358799
2.9819614e-05
0.00084042833
3.0249467e-05
0.00083717034
3.0871752e-05
0.00083377836
3.1775287e-05
0.00083020317
3.3074365e-05
0.00082637504
3.4985143e-05
0.00082219769
3.7713367e-05
0.00081754434
4.1910395e-05
0.00081220958
4.7756037e-05
0.00080606396
5.7691382e-05
0.00079849431
7.0801254e-05
0.00079041744
9.6333518e-05
0.000132715
0.00077978989
0.0010713708
3.360867e-05
0.0010688966
3.2634382e-05
0.0010665464
3.1843635e-05
0.0010642715
3.1339033e-05
0.0010620327
3.1016671e-05
0.0010598025
3.0834912e-05
0.0010575609
3.0773337e-05
0.0010552958
3.0789295e-05
0.0010530008
3.0848091e-05
0.0010506726
3.0930114e-05
0.0010483106
3.1021421e-05
0.0010459153
3.1112133e-05
0.0010434882
3.1196868e-05
0.0010410308
3.1273236e-05
0.0010385449
3.1340648e-05
0.0010360321
3.1399896e-05
0.0010334936
3.1452889e-05
0.0010309302
3.1502504e-05
0.0010283421
3.1552645e-05
0.0010257289
3.1608485e-05
0.0010230891
3.1676883e-05
0.0010204202
3.1767006e-05
0.0010177179
3.1891276e-05
0.0010149755
3.2066675e-05
0.0010121837
3.2316824e-05
0.0010093289
3.267445e-05
0.0010063918
3.3186548e-05
0.0010033456
3.3917912e-05
0.0010001529
3.4967991e-05
0.00099676186
3.6465449e-05