/*--------------------------------*- C++ -*----------------------------------*\
  =========                 |
  \\      /  F ield         | OpenFOAM: The Open Source CFD Toolbox
   \\    /   O peration     | Website:  https://openfoam.org
    \\  /    A nd           | Version:  7
     \\/     M anipulation  |
\*---------------------------------------------------------------------------*/
FoamFile
{
    version     2.0;
    format      ascii;
    class       volSymmTensorField;
    location    "2000";
    object      Rall;
}
// * * * * * * * * * * * * * * * * * * * * * * * * * * * * * * * * * * * * * //

dimensions      [0 2 -2 0 0 0 0];

internalField   nonuniform List<symmTensor> 
15296
(
(0.0011588839 8.4187992e-06 2.5430967e-15 0.00111888 2.1702527e-16 0.0011097905)
(0.0011248473 3.4453453e-06 2.5601853e-15 0.001125811 2.0524898e-16 0.0011259118)
(0.0011164749 2.9321996e-06 8.1749411e-19 0.0011240021 -1.7200686e-17 0.0011254336)
(0.0011095327 2.6291032e-06 5.2414246e-15 0.0011218155 -3.6542841e-17 0.0011241752)
(0.0011030533 2.3657627e-06 -2.6558001e-15 0.0011195713 -6.3031117e-17 0.0011227378)
(0.0010981799 2.152517e-06 5.3768148e-15 0.0011168363 3.4039416e-16 0.0011203853)
(0.0010944372 1.9854204e-06 2.7261776e-15 0.0011137735 8.6456614e-17 0.0011174116)
(0.0010913073 1.8522088e-06 1.6080152e-18 0.0011105644 -2.45333e-17 0.0011141395)
(0.0010886103 1.7462317e-06 -2.6784165e-19 0.0011072678 -1.0605709e-16 0.0011106788)
(0.0010862198 1.663185e-06 2.8385097e-15 0.0011039242 1.6543307e-16 0.0011071053)
(0.0010840117 1.5985542e-06 -1.1842849e-19 0.0011005749 -1.1356347e-17 0.0011034935)
(0.001081902 1.5485013e-06 -1.3618819e-20 0.0010972468 9.9994931e-19 0.0010998922)
(0.0010798449 1.5103037e-06 -5.9262855e-15 0.0010939536 -1.427567e-16 0.0010963267)
(0.0010778169 1.4821212e-06 3.0061841e-15 0.0010907012 2.2211827e-16 0.0010928083)
(0.0010758101 1.4629115e-06 2.4797639e-19 0.0010874897 -6.2004293e-17 0.0010893388)
(0.0010738306 1.4525601e-06 6.187688e-15 0.0010843146 2.0716501e-16 0.0010859113)
(0.0010718966 1.4520548e-06 3.1403094e-15 0.0010811659 1.6672029e-16 0.0010825109)
(0.0010700402 1.4637504e-06 3.1882632e-15 0.00107803 3.2459995e-16 0.0010791158)
(0.0010683085 1.4918416e-06 3.2358062e-15 0.0010748869 -1.0909268e-16 0.0010756945)
(0.0010667691 1.5431362e-06 -2.0137693e-19 0.0010717086 -5.9745741e-17 0.001072203)
(0.0010655187 1.62826e-06 -1.2658437e-18 0.0010684559 -1.1231227e-16 0.0010685799)
(0.0010646955 1.7635045e-06 -1.2366559e-18 0.0010650735 -1.6898595e-17 0.0010647385)
(0.0010644991 1.9737635e-06 3.4420953e-15 0.0010614815 1.3651031e-16 0.0010605552)
(0.0010652199 2.2970056e-06 -3.4948989e-15 0.0010575643 -2.5845209e-16 0.0010558517)
(0.0010672896 2.7918254e-06 -2.9276325e-19 0.0010531503 -1.1764188e-16 0.0010503653)
(0.0010713523 3.5487085e-06 -7.2329053e-15 0.0010479824 -2.0697226e-16 0.0010437074)
(0.0010784088 4.7119267e-06 -7.3666505e-15 0.0010416612 -1.9422485e-16 0.0010352798)
(0.001090004 6.5095707e-06 -5.4740566e-19 0.0010335652 2.4717027e-17 0.0010241712)
(0.0011087391 9.3306713e-06 6.895635e-19 0.0010226486 -1.1540431e-17 0.0010088663)
(0.0011387802 1.3809679e-05 -3.9287462e-15 0.0010071808 -1.579566e-16 0.00098697017)
(0.0011882817 2.1188072e-05 -3.1159715e-18 0.00098379762 -1.3804632e-16 0.00095389285)
(0.0012709608 3.353337e-05 1.1627109e-18 0.00094661339 3.9583904e-17 0.00090235457)
(0.0014205999 5.6188554e-05 -8.7852204e-15 0.00088107194 -4.2492394e-16 0.00081507905)
(0.0015453076 7.6144923e-05 -3.6366993e-15 0.00082457197 -4.2851141e-16 0.00075087584)
(0.0015554563 7.8890239e-05 -9.2523407e-18 0.00081697471 -8.2586795e-17 0.00076286462)
(0.0015663589 8.6639099e-05 -2.1664061e-18 0.00080291515 2.6213421e-17 0.00078593369)
(0.0016399354 6.6316407e-05 6.9783188e-16 0.00080499513 3.9364904e-16 0.00086904709)
(0.0015562552 5.4084557e-05 -3.1778199e-16 0.00075175368 -5.0049596e-16 0.00094532037)
(0.0011568011 1.8520599e-05 1.6756654e-18 0.0011169326 6.7228978e-17 0.0011139394)
(0.0011247569 8.330655e-06 -8.5192904e-16 0.0011260233 -2.3887455e-17 0.0011259033)
(0.0011164453 6.9799318e-06 8.6326405e-16 0.0011247156 9.8983188e-17 0.0011248695)
(0.0011094706 6.3997953e-06 -1.9961787e-18 0.0011229392 -5.9920716e-18 0.0011232365)
(0.0011029542 5.9655813e-06 -2.1253717e-18 0.0011210568 3.7165882e-18 0.0011214768)
(0.0010980561 5.6324744e-06 8.3423775e-19 0.0011184974 1.4795052e-16 0.0011189757)
(0.0010942993 5.3804904e-06 9.0900071e-16 0.0011154801 4.3484243e-17 0.0011159726)
(0.001091161 5.1839987e-06 3.6490902e-18 0.0011122487 4.7760019e-18 0.001112733)
(0.00108846 5.0251272e-06 -9.3121515e-16 0.0011088844 -1.0394693e-16 0.0011093455)
(0.0010860691 4.893693e-06 -9.4787015e-16 0.0011054434 -2.8813793e-19 0.0011058714)
(0.0010838631 4.7827053e-06 -2.630558e-18 0.0011019814 -5.9994931e-17 0.0011023716)
(0.001081757 4.686992e-06 1.9448355e-15 0.0010985352 9.6471647e-17 0.0010988861)
(0.0010797043 4.6029154e-06 9.8667223e-16 0.0010951238 4.9338089e-17 0.0010954356)
(0.0010776814 4.5279358e-06 2.690812e-18 0.0010917555 8.9270533e-17 0.0010920291)
(0.0010756803 4.4602447e-06 -2.031956e-15 0.0010884312 -1.2027172e-16 0.0010886677)
(0.001073707 4.398584e-06 2.0621834e-15 0.0010851454 1.3819609e-16 0.0010853458)
(0.0010717799 4.3421549e-06 2.2596157e-18 0.0010818859 1.0689145e-16 0.0010820503)
(0.0010699315 4.2905737e-06 1.1757456e-18 0.0010786353 1.2837278e-16 0.0010787627)
(0.0010682098 4.2438714e-06 -1.0787381e-15 0.0010753682 -5.0980661e-17 0.0010754562)
(0.0010666833 4.2025588e-06 1.094608e-15 0.0010720494 7.2613546e-17 0.0010720931)
(0.0010654502 4.1677663e-06 -3.7408494e-18 0.0010686293 -3.0103883e-17 0.0010686208)
(0.001064651 4.1414701e-06 -1.3679422e-18 0.0010650379 7.1508808e-17 0.0010649652)
(0.0010644886 4.1268776e-06 4.0491875e-18 0.0010611748 7.2325197e-17 0.0010610197)
(0.0010652582 4.1289725e-06 2.3212796e-18 0.0010568948 -7.6637206e-17 0.0010566309)
(0.0010673987 4.1555047e-06 -2.3723662e-15 0.0010519831 -7.8372923e-17 0.0010515719)
(0.0010715646 4.2181476e-06 -1.2093899e-15 0.0010461202 -9.0796677e-17 0.0010455063)
(0.001078773 4.3352871e-06 2.4573015e-15 0.0010388119 -4.4762229e-18 0.0010379145)
(0.0010905921 4.5337206e-06 1.2556456e-15 0.0010292971 5.7800854e-17 0.0010280008)
(0.0011096598 4.8582324e-06 1.0997268e-18 0.0010163038 -1.5104021e-18 0.0010144397)
(0.0011401943 5.366738e-06 1.3204316e-15 0.00099777526 -2.5512139e-17 0.00099510904)
(0.0011904263 6.1762906e-06 1.361437e-15 0.00096974814 -6.193461e-17 0.00096593909)
(0.0012741448 7.3063517e-06 1.4210598e-15 0.00092561371 9.4680046e-17 0.00092029122)
(0.001425081 9.2186854e-06 7.6292977e-18 0.00084942905 -4.8447445e-17 0.00084230155)
(0.0015600636 9.7052483e-06 -1.2690742e-15 0.00078393721 -2.2662388e-16 0.00077671848)
(0.0015673469 6.8161647e-06 -5.2238333e-18 0.00078625101 -2.9508187e-17 0.0007815549)
(0.0015766405 1.4691021e-05 -3.5095472e-18 0.00078919449 1.9499502e-17 0.00078842692)
(0.0016549846 -3.7173611e-05 7.6056396e-18 0.00082494285 5.7124464e-17 0.00083480875)
(0.0014407799 -8.3439499e-05 -6.4284167e-17 0.00072091939 -2.6271486e-16 0.0010356062)
(0.0011543483 2.8197606e-05 1.6516852e-18 0.0011184128 2.8208128e-17 0.0011151616)
(0.0011246094 1.3940268e-05 5.1497697e-16 0.0011263359 1.3908229e-17 0.001125984)
(0.0011165449 1.1415488e-05 -1.0353056e-15 0.001124889 -2.0799347e-17 0.0011248503)
(0.0011096135 1.0446483e-05 -1.0529938e-15 0.0011231173 -2.4936306e-17 0.0011231721)
(0.0011031237 9.7558086e-06 5.2913778e-16 0.0011212487 6.5705011e-17 0.001121374)
(0.0010982394 9.2299569e-06 -5.3660274e-16 0.0011186932 3.1490739e-17 0.0011188565)
(0.0010944885 8.8338577e-06 1.1524987e-18 0.0011156728 4.3453746e-17 0.0011158517)
(0.001091352 8.5256056e-06 3.9143496e-18 0.0011124348 -2.3944787e-17 0.0011126176)
(0.0010886498 8.2758906e-06 -5.5820729e-16 0.0011090619 -1.3313309e-16 0.0011092405)
(0.0010862557 8.0682262e-06 -5.7109142e-16 0.0011056109 -8.2172142e-17 0.0011057799)
(0.0010840453 7.891594e-06 -2.3153388e-18 0.0011021384 -2.2580176e-17 0.0011022949)
(0.0010819343 7.7379349e-06 -1.1687476e-15 0.0010986819 -2.0008626e-17 0.0010988245)
(0.0010798766 7.6015931e-06 -5.9388596e-16 0.0010952606 2.1168873e-17 0.0010953888)
(0.0010778485 7.4786107e-06 -5.9993358e-16 0.0010918828 -8.9985883e-18 0.0010919967)
(0.001075842 7.3661066e-06 6.1164114e-16 0.0010885495 -5.457431e-17 0.0010886492)
(0.0010738632 7.2619335e-06 2.1337726e-18 0.0010852552 8.1545593e-17 0.0010853408)
(0.0010719301 7.1644822e-06 -6.25368e-16 0.0010819876 2.0963287e-17 0.0010820587)
(0.0010700749 7.072542e-06 -2.8965096e-19 0.0010787292 2.5414161e-17 0.001078785)
(0.0010683449 6.9851902e-06 -7.8964218e-19 0.0010754546 -6.4902547e-17 0.0010754936)
(0.0010668079 6.9017278e-06 -6.5763549e-16 0.0010721283 -3.3455345e-18 0.0010721477)
(0.001065561 6.8216463e-06 -6.7345861e-16 0.0010687007 -3.2084073e-17 0.001068696)
(0.0010647428 6.7446041e-06 6.7680551e-16 0.0010651015 1.0590823e-16 0.0010650661)
(0.0010645537 6.6704374e-06 1.3825517e-15 0.0010612304 8.9952618e-17 0.0010611544)
(0.0010652852 6.5991408e-06 2.2250407e-18 0.001056942 -7.3309272e-17 0.001056811)
(0.0010673704 6.5309607e-06 7.124273e-16 0.0010520219 -7.3657491e-17 0.0010518147)
(0.0010714552 6.4661843e-06 -7.266872e-16 0.001046151 -6.5702758e-17 0.0010458373)
(0.0010785427 6.4055796e-06 -7.4347117e-16 0.001038836 -3.4731478e-17 0.0010383717)
(0.0010901797 6.3486323e-06 7.5332e-16 0.0010293187 9.1080751e-17 0.001028641)
(0.0011089689 6.2962657e-06 -7.7075894e-16 0.0010163313 -2.3896406e-17 0.0010153502)
(0.0011390682 6.237055e-06 -7.915161e-16 0.00099783013 -4.2682435e-17 0.00099642377)
(0.0011886112 6.1737006e-06 -8.1866402e-16 0.00096986627 -1.1001661e-16 0.00096787099)
(0.001271221 5.9164889e-06 1.0053317e-18 0.00092588479 1.1272476e-16 0.0009231549)
(0.0014204791 5.8027535e-06 -1.8040325e-15 0.00084995487 -1.0192598e-16 0.00084651804)
(0.001560248 4.2583463e-06 2.4863538e-18 0.00078212097 -2.3128066e-16 0.00077838707)
(0.0015673936 -1.0895524e-06 -4.7526184e-18 0.00078585949 -3.3475745e-17 0.0007818019)
(0.0015763171 1.082216e-05 4.7324741e-16 0.00079144764 6.2807061e-17 0.00078550858)
(0.0016526708 -6.4056702e-05 1.2234465e-16 0.00083547955 5.9639734e-17 0.00082754604)
(0.0013991534 -7.9296154e-05 1.4682307e-17 0.00069651984 -1.7144811e-16 0.00099820072)
(0.0011525202 3.6545868e-05 2.7263616e-18 0.001119753 1.6197013e-17 0.001116017)
(0.0011244096 1.9741355e-05 -3.6279748e-16 0.0011267855 -5.6027471e-18 0.0011261077)
(0.0011166175 1.5930681e-05 -1.1401985e-18 0.0011251393 -1.0242647e-16 0.0011249082)
(0.0011097167 1.4527465e-05 -4.790448e-18 0.0011233553 -2.8711369e-17 0.0011232139)
(0.0011032275 1.3569187e-05 -1.9590849e-18 0.0011214991 5.7042579e-17 0.0011214038)
(0.0010983428 1.2843228e-05 3.8467873e-16 0.0011189489 3.025642e-17 0.001118882)
(0.0010945923 1.2296818e-05 3.9055712e-16 0.0011159276 5.5037019e-17 0.0011158774)
(0.0010914565 1.1871583e-05 3.9808807e-16 0.001112686 -9.1352473e-18 0.0011126457)
(0.0010887552 1.1526854e-05 1.9816958e-18 0.0011093074 -7.9747227e-17 0.0011092726)
(0.0010863621 1.1239883e-05 -3.5605938e-18 0.0011058493 -1.1369484e-16 0.0011058169)
(0.0010841529 1.0995496e-05 4.0881107e-16 0.001102369 3.0448378e-17 0.0011023371)
(0.0010820432 1.0782583e-05 -1.3583046e-18 0.0010989044 -4.6535096e-17 0.0010988719)
(0.0010799868 1.0593346e-05 -2.0173857e-18 0.001095475 -3.1212682e-17 0.0010954412)
(0.0010779598 1.0422327e-05 4.3129928e-16 0.0010920894 1.1019421e-17 0.0010920538)
(0.0010759543 1.026554e-05 3.8844503e-18 0.0010887484 7.3669304e-19 0.0010887109)
(0.0010739762 1.0119979e-05 -4.3982529e-16 0.0010854467 1.3481337e-17 0.001085407)
(0.0010720437 9.9833415e-06 4.5178273e-16 0.0010821717 -2.6660612e-17 0.0010821295)
(0.0010701888 9.8538188e-06 -1.1139659e-18 0.0010789057 9.8521461e-18 0.0010788607)
(0.0010684586 9.7299148e-06 -1.2524194e-18 0.0010756232 -3.0645037e-17 0.0010755748)
(0.0010669211 9.6103217e-06 -4.705903e-16 0.0010722883 -1.111669e-16 0.0010722355)
(0.001065673 9.4938152e-06 -7.2246534e-18 0.0010688508 -6.0793738e-17 0.0010687923)
(0.0010648527 9.3791363e-06 -5.0014803e-19 0.0010652399 8.1839958e-17 0.0010651737)
(0.0010646601 9.2648684e-06 -4.8752366e-16 0.0010613543 3.7015184e-17 0.0010612773)
(0.0010653858 9.149211e-06 1.0025904e-15 0.0010570476 -1.3716935e-17 0.0010569555)
(0.0010674616 9.0297616e-06 -1.0172127e-15 0.0010521034 -8.6002426e-17 0.0010519899)
(0.0010715311 8.9027636e-06 -2.2868906e-18 0.0010462009 -7.0381153e-17 0.0010460566)
(0.0010785935 8.7627163e-06 5.2283819e-16 0.0010388439 -2.2102661e-17 0.0010386551)
(0.0010901875 8.5989611e-06 5.3821609e-16 0.0010292718 1.0161079e-16 0.0010290186)
(0.0011089027 8.3959339e-06 -5.2498609e-19 0.0010162151 -2.1493021e-17 0.0010158672)
(0.0011388649 8.1129063e-06 -1.1075978e-19 0.0009976362 -3.9254672e-17 0.00099715001)
(0.0011881464 7.7047467e-06 1.3779006e-18 0.00096960733 -8.5439872e-17 0.00096891344)
(0.0012701985 6.8520321e-06 6.7828722e-19 0.00092567139 5.0248477e-17 0.00092468389)
(0.0014181408 5.7865341e-06 6.4886329e-16 0.00085021584 -8.8335251e-17 0.0008488135)
(0.0015603377 2.861537e-06 -5.5195125e-16 0.00078108955 -1.7038892e-16 0.00077944492)
(0.0015673774 -4.7326732e-06 -3.2758646e-16 0.00078449383 -7.1401702e-17 0.00078315522)
(0.0015759472 1.0737614e-05 1.693144e-16 0.00078971608 8.3327664e-17 0.00078677449)
(0.0016506668 -7.5387047e-05 8.3415217e-17 0.00083531189 7.6727489e-17 0.00082955603)
(0.0013974305 -8.891293e-05 7.8515448e-18 0.00069383941 -7.6232358e-17 0.00097472954)
(0.0011509086 4.3686742e-05 3.230729e-18 0.0011212096 1.416667e-17 0.0011166531)
(0.0011242169 2.5536451e-05 -2.8272741e-16 0.0011273037 -3.4432908e-17 0.0011262831)
(0.0011167209 2.0474352e-05 -2.8967579e-16 0.001125433 -1.2375859e-16 0.0011250175)
(0.0011098768 1.8610103e-05 2.8729767e-16 0.0011235971 -3.2516973e-18 0.00112332)
(0.0011033997 1.7381894e-05 2.9349865e-16 0.0011217272 6.9216276e-17 0.0011215119)
(0.0010985192 1.6457146e-05 -2.977728e-16 0.0011191697 2.5998511e-17 0.0011189925)
(0.0010947707 1.5761248e-05 -3.0151997e-16 0.0011161428 4.739691e-17 0.0011159902)
(0.0010916356 1.5219358e-05 3.1110342e-16 0.0011128965 4.5630246e-17 0.0011127607)
(0.001088934 1.4779715e-05 1.5552928e-18 0.0011095139 -4.8158672e-17 0.0011093896)
(0.00108654 1.4413466e-05 3.1246618e-16 0.0011060522 -6.3526482e-17 0.0011059358)
(0.0010843298 1.4101355e-05 3.1792086e-16 0.0011025685 3.9884588e-17 0.0011024576)
(0.001082219 1.382925e-05 -2.2507319e-18 0.0010991006 -9.1192129e-18 0.0010989937)
(0.0010801612 1.3587224e-05 -1.8977359e-18 0.0010956681 -3.0042898e-17 0.001095564)
(0.0010781327 1.3368331e-05 6.7177704e-16 0.0010922795 6.1579006e-17 0.0010921774)
(0.0010761257 1.3167486e-05 -3.3486432e-16 0.0010889357 -2.0580326e-17 0.0010888352)
(0.0010741458 1.2980849e-05 -3.4210956e-16 0.0010856313 -4.9908831e-17 0.0010855319)
(0.0010722112 1.2805454e-05 -1.0445943e-15 0.0010823537 -1.0746456e-16 0.0010822551)
(0.0010703539 1.2638946e-05 -7.1072456e-16 0.0010790855 -5.417191e-17 0.001078987)
(0.0010686207 1.2479337e-05 -3.6327815e-16 0.0010758009 -4.1994662e-17 0.0010757021)
(0.0010670793 1.2324833e-05 -3.6741956e-16 0.0010724642 -1.1315007e-16 0.0010723643)
(0.001065826 1.217368e-05 3.6404256e-16 0.0010690254 -4.8880032e-17 0.0010689233)
(0.0010649986 1.2023984e-05 -1.093734e-19 0.0010654139 4.9347658e-17 0.0010653081)
(0.0010647959 1.1873497e-05 -7.6119593e-16 0.0010615287 -3.501219e-17 0.0010614169)
(0.0010655074 1.1719261e-05 1.6880382e-18 0.0010572239 2.4996068e-18 0.001057103)
(0.0010675621 1.1557193e-05 3.9656129e-16 0.0010522842 -9.0889973e-18 0.0010521495)
(0.0010716001 1.1380961e-05 -1.9732766e-18 0.0010463899 -4.7550445e-17 0.0010462348)
(0.0010786144 1.1181076e-05 4.0656679e-16 0.0010390476 3.6856167e-17 0.001038862)
(0.0010901329 1.0940201e-05 4.1829938e-16 0.0010295011 9.6035098e-17 0.0010292703)
(0.0011087268 1.0631924e-05 -1.9688694e-18 0.0010164883 -1.7570027e-17 0.0010161902)
(0.0011384847 1.0194653e-05 4.404724e-16 0.00099798836 2.3208852e-17 0.0009975912)
(0.0011874094 9.5505311e-06 2.7991384e-18 0.00097010376 -1.8932256e-17 0.0009695549)
(0.0012687911 8.2759251e-06 -4.7416297e-16 0.00092644613 -1.2541085e-17 0.00092569023)
(0.0014153727 6.5263546e-06 -1.6424344e-19 0.00085157351 -9.1001969e-17 0.00085051909)
(0.00156044 2.4583015e-06 4.9055657e-18 0.00078098702 -1.0774536e-16 0.00077964072)
(0.0015673571 -7.3445089e-06 2.0213311e-18 0.00078442069 -7.9170563e-17 0.00078328812)
(0.0015756043 1.0908391e-05 -1.4069753e-16 0.00079001376 2.3420037e-17 0.00078617097)
(0.0016485613 -8.0776836e-05 -6.6492762e-17 0.00083656449 3.2791243e-17 0.00082831525)
(0.0014102323 -9.7132261e-05 3.8459771e-18 0.00069997157 -2.854836e-17 0.00096937553)
(0.0011491778 5.1194684e-05 3.9003448e-18 0.0011230071 1.4232076e-17 0.0011173536)
(0.0011240121 3.2781707e-05 -2.8776786e-16 0.0011280562 -2.8055822e-17 0.0011265453)
(0.0011168787 2.6323821e-05 -9.991365e-19 0.001125905 -8.1302723e-17 0.0011252025)
(0.0011101284 2.3850844e-05 -2.9857789e-16 0.0011239722 -5.2028293e-17 0.0011235095)
(0.0011036734 2.2275087e-05 -3.0177137e-16 0.0011220677 8.869441e-18 0.0011217132)
(0.0010987997 2.1099654e-05 -3.0242977e-16 0.0011194933 3.6898433e-18 0.0011192015)
(0.0010950542 2.0215177e-05 2.2156108e-18 0.0011164559 4.0198185e-17 0.0011162035)
(0.0010919202 1.9525532e-05 4.2741857e-18 0.0011132019 5.6451987e-17 0.0011129766)
(0.0010892182 1.8965272e-05 -3.1472623e-16 0.0011098135 -4.623456e-17 0.001109607)
(0.0010868229 1.8498048e-05 -3.2284718e-16 0.0011063475 -6.4378403e-17 0.0011061537)
(0.001084611 1.8099556e-05 -2.7445457e-18 0.0011028601 1.2703079e-17 0.0011026752)
(0.0010824981 1.7751897e-05 -3.5177479e-18 0.001099389 -2.4538797e-18 0.0010992104)
(0.0010804381 1.7442472e-05 3.3254366e-16 0.0010959535 -9.6050223e-18 0.0010957795)
(0.0010784072 1.7162459e-05 4.0887878e-18 0.0010925621 6.1382789e-17 0.0010923915)
(0.0010763975 1.6905402e-05 3.6566792e-18 0.0010892157 -2.3865837e-17 0.0010890476)
(0.0010744147 1.6666417e-05 1.2318353e-18 0.0010859089 -5.6236004e-17 0.0010857426)
(0.0010724768 1.6441736e-05 3.5828413e-16 0.0010826291 -8.2707717e-17 0.0010824639)
(0.0010706156 1.6228364e-05 -7.2112432e-16 0.001079359 -1.4471285e-16 0.0010791942)
(0.0010688778 1.6023772e-05 3.6097208e-16 0.001076073 -1.5538852e-17 0.0010759076)
(0.0010673307 1.5825675e-05 -3.7230742e-16 0.0010727357 -8.3291849e-17 0.0010725685)
(0.0010660701 1.5631842e-05 -7.7110484e-18 0.0010692974 -6.021603e-17 0.0010691266)
(0.001065233 1.5439855e-05 3.8201016e-16 0.001065688 7.5856222e-17 0.0010655112)
(0.001065017 1.5246853e-05 5.6449406e-18 0.0010618074 -3.4492055e-17 0.0010616209)
(0.0010657096 1.5049068e-05 2.8877116e-18 0.0010575109 -3.3400999e-17 0.0010573097)
(0.0010677371 1.4841301e-05 4.0283873e-16 0.0010525849 5.9554164e-17 0.0010523616)
(0.0010717348 1.4615508e-05 -4.1051119e-16 0.001046713 -1.8320288e-17 0.0010464568)
(0.0010786878 1.4359613e-05 -3.5473207e-18 0.0010394063 8.0563165e-17 0.0010391012)
(0.0010901105 1.4051677e-05 -2.4437697e-18 0.0010299165 8.2965981e-17 0.0010295395)
(0.0011085509 1.3658074e-05 4.3265948e-16 0.0010169955 4.402855e-17 0.0010165111)
(0.0011380509 1.3101197e-05 4.4748215e-16 0.00099864736 8.8673332e-17 0.00099800663)
(0.0011865236 1.228185e-05 2.8609663e-18 0.0009710239 1.411972e-17 0.00097014301)
(0.001267059 1.0684207e-05 -1.4489099e-18 0.00092782748 1.6351378e-17 0.00092662631)
(0.0014119148 8.4244065e-06 -1.9176777e-18 0.00085385022 -7.8469273e-17 0.00085218023)
(0.001560606 3.2914923e-06 5.6891037e-18 0.00078149917 -3.5025612e-17 0.00077931681)
(0.0015673805 -9.1921193e-06 2.741756e-18 0.00078490308 -4.9445832e-17 0.00078291948)
(0.0015752687 1.11829e-05 -4.4989536e-18 0.00079100404 -3.9461991e-17 0.00078495021)
(0.0016462264 -7.9735909e-05 7.8676412e-19 0.00083681261 2.4674646e-17 0.00082543849)
(0.0014294188 -0.00010926532 -1.202267e-17 0.00071221978 -3.7411099e-17 0.00097428588)
(0.0011476066 5.9184996e-05 5.1199746e-18 0.0011249103 1.9048462e-17 0.0011182961)
(0.0011238303 4.1492686e-05 -1.3260732e-18 0.0011291889 -4.8758724e-17 0.0011269437)
(0.0011171375 3.3679032e-05 2.0089072e-16 0.0011266879 8.6092694e-18 0.0011255139)
(0.001110536 3.0473079e-05 -3.3029604e-18 0.0011246144 -3.3605808e-17 0.0011238133)
(0.0011041196 2.8467322e-05 2.042084e-16 0.001122661 1.114853e-17 0.0011220244)
(0.0010992581 2.6985583e-05 -4.1662303e-16 0.0011200619 -2.7533689e-17 0.0011195198)
(0.0010955178 2.5870802e-05 3.4566627e-18 0.0011170073 3.1410034e-17 0.0011165267)
(0.0010923855 2.4999875e-05 3.4561391e-18 0.0011137398 1.4604162e-17 0.0011133032)
(0.0010896826 2.4290854e-05 -2.1926927e-16 0.0011103405 -6.9113986e-17 0.0011099359)
(0.0010872851 2.3698485e-05 -2.5664236e-18 0.0011068649 -3.3128482e-17 0.0011064841)
(0.0010850701 2.3192477e-05 -2.4149257e-18 0.0011033689 1.4381057e-18 0.0011030062)
(0.0010829537 2.2750422e-05 2.2253464e-16 0.0010998898 9.399033e-18 0.0010995413)
(0.0010808897 2.2356503e-05 2.300927e-16 0.0010964467 2.1084201e-17 0.0010961098)
(0.0010788545 2.1999631e-05 -2.2910998e-16 0.001093048 2.6366181e-17 0.0010927207)
(0.0010768401 2.1671676e-05 3.1823538e-18 0.0010896946 -1.0095249e-17 0.0010893755)
(0.0010748523 2.1366479e-05 1.3356384e-18 0.001086381 -3.1724779e-17 0.0010860688)
(0.0010729089 2.1079274e-05 -2.4027957e-16 0.0010830949 -5.509235e-17 0.0010827887)
(0.0010710415 2.080625e-05 -2.4992913e-16 0.0010798187 -1.5096636e-16 0.0010795175)
(0.0010692965 2.0544166e-05 -3.2494076e-18 0.001076527 1.600054e-18 0.0010762299)
(0.0010677408 2.0290059e-05 -2.5940045e-16 0.0010731845 -9.2602954e-17 0.0010728903)
(0.0010664697 2.0040986e-05 2.5297434e-16 0.0010697418 -1.6301124e-17 0.0010694491)
(0.0010656191 1.9793713e-05 5.991564e-19 0.0010661292 7.1271511e-17 0.0010658361)
(0.0010653853 1.9544341e-05 5.3332509e-18 0.001062247 -4.761686e-18 0.0010619509)
(0.0010660535 1.9287694e-05 5.2330612e-18 0.0010579514 -2.9079128e-17 0.0010576487)
(0.0010680464 1.9016554e-05 -5.5270662e-16 0.0010530303 -3.4702907e-17 0.0010527158)
(0.0010719933 1.8719779e-05 2.8013875e-16 0.0010471695 -2.1378618e-18 0.0010468357)
(0.0010788702 1.8380537e-05 -2.9154515e-16 0.001039884 -7.3937802e-19 0.0010395197)
(0.0010901748 1.7968699e-05 2.8966361e-16 0.0010304326 7.4766891e-17 0.0010300219)
(0.0011084265 1.7437568e-05 2.9780223e-16 0.0010175792 6.9745546e-17 0.0010170969)
(0.0011376102 1.6682682e-05 3.0831608e-16 0.00099935391 1.0121158e-16 0.00099876671)
(0.0011855286 1.5565035e-05 2.7526978e-18 0.00097195935 1.4958866e-17 0.00097120099)
(0.0012650259 1.3439824e-05 -3.22491e-18 0.00092920442 3.6251198e-17 0.00092822977)
(0.0014077787 1.0296945e-05 6.9924521e-16 0.00085614768 9.904992e-18 0.00085482502)
(0.0015609313 3.5543753e-06 7.1238828e-18 0.00078149096 1.1435877e-17 0.00077965014)
(0.0015674749 -1.211202e-05 1.8437282e-16 0.00078468062 -2.8120481e-17 0.00078338921)
(0.0015752361 8.763804e-06 -2.9141179e-18 0.00079097302 -3.2623345e-17 0.00078484038)
(0.0016423962 -7.5358405e-05 1.5359464e-19 0.00083460362 1.5727699e-17 0.0008222331)
(0.0014588854 -0.00012876098 5.0450705e-18 0.00073237721 -3.7808749e-17 0.00097981309)
(0.0011464466 6.6457349e-05 -2.7555859e-16 0.0011268687 -2.5169443e-17 0.0011193638)
(0.0011237705 5.0467742e-05 1.4003981e-16 0.0011306182 -3.1855853e-17 0.0011274916)
(0.0011175239 4.1743958e-05 1.4404893e-16 0.0011277715 2.3613667e-17 0.0011259728)
(0.0011111134 3.7833734e-05 -3.5442379e-18 0.0011255203 -3.501101e-18 0.0011242597)
(0.001104753 3.5376097e-05 1.4400612e-16 0.0011234967 5.3739111e-17 0.0011224791)
(0.00109991 3.3570918e-05 1.5031809e-16 0.001120861 1.7329951e-17 0.0011199831)
(0.0010961774 3.2212443e-05 4.9508163e-18 0.0011177813 3.4514497e-17 0.0011169954)
(0.0010930474 3.1148249e-05 1.7590058e-18 0.0011144945 -2.221161e-18 0.0011137752)
(0.0010903432 3.0279298e-05 -1.9543986e-18 0.0011110796 -6.6935884e-17 0.0011104098)
(0.0010879423 2.9551416e-05 -1.5734413e-16 0.0011075904 -1.0679174e-17 0.0011069586)
(0.0010857227 2.8928296e-05 -3.2066094e-16 0.0011040822 -3.5036806e-17 0.0011034801)
(0.0010836009 2.8382914e-05 1.5626521e-16 0.0011005917 2.8213494e-17 0.0011000139)
(0.0010815308 2.7896121e-05 3.2710101e-16 0.0010971378 7.261007e-17 0.0010965803)
(0.0010794891 2.7454466e-05 4.6492308e-18 0.0010937287 1.418014e-17 0.0010931885)
(0.0010774677 2.704807e-05 3.5427771e-18 0.0010903653 -2.0583654e-18 0.0010898402)
(0.0010754724 2.6669432e-05 1.172095e-18 0.001087042 -1.6177525e-17 0.0010865303)
(0.0010735209 2.6312728e-05 -1.7032279e-16 0.0010837466 -6.0125324e-17 0.0010832468)
(0.0010716446 2.597329e-05 -1.7713204e-16 0.0010804614 -1.4118623e-16 0.0010799724)
(0.0010698896 2.5647119e-05 -3.5894702e-18 0.0010771613 -1.4464126e-17 0.0010766819)
(0.0010683224 2.5330533e-05 1.7710027e-16 0.0010738111 -6.3939008e-17 0.0010733401)
(0.0010670375 2.5019837e-05 1.7937051e-16 0.0010703617 2.8428699e-17 0.0010698978)
(0.0010661698 2.4710929e-05 1.8740622e-16 0.0010667437 8.0141843e-17 0.0010662855)
(0.0010659139 2.4398822e-05 5.8843706e-18 0.0010628583 2.3180577e-17 0.0010624038)
(0.0010665525 2.4076853e-05 -1.8822095e-16 0.0010585627 -3.6759699e-17 0.0010581092)
(0.0010685042 2.3735695e-05 1.0354396e-18 0.0010536466 -6.4485726e-17 0.0010531904)
(0.0010723919 2.3360958e-05 -1.7938531e-18 0.0010477986 -1.9592785e-17 0.0010473343)
(0.0010791807 2.2930869e-05 -5.0899789e-18 0.0010405386 -5.1411126e-17 0.0010400581)
(0.0010903495 2.240673e-05 -2.1100483e-16 0.0010311337 2.0413116e-17 0.0010306256)
(0.0011083857 2.1728397e-05 -2.155505e-16 0.0010183628 1.9635821e-17 0.0010178077)
(0.0011372099 2.0763244e-05 -9.4479117e-19 0.0010002869 7.0314833e-17 0.00099966042)
(0.0011845002 1.9331408e-05 2.276973e-18 0.00097316718 1.1570098e-17 0.0009724108)
(0.0012628267 1.6663032e-05 -3.5575579e-18 0.00093093537 1.4850327e-19 0.0009300247)
(0.0014032479 1.2598105e-05 -2.5137235e-16 0.00085892178 3.4720978e-17 0.00085774182)
(0.0015614195 4.1154227e-06 6.9569769e-18 0.00078171593 2.2966987e-17 0.00077992439)
(0.0015676826 -1.4746957e-05 -3.8640635e-19 0.00078467705 -1.4223573e-17 0.00078378071)
(0.0015755145 4.1374027e-06 7.0939546e-17 0.00079120933 2.000358e-17 0.00078475452)
(0.001637562 -6.7625624e-05 2.2854918e-20 0.00083198745 4.4553629e-18 0.00081749233)
(0.0014907193 -0.00014840593 3.1796937e-18 0.00075481905 -1.6541605e-17 0.00098574734)
(0.0011456343 7.2849287e-05 -1.9923467e-16 0.0011290116 -4.2915737e-17 0.0011207112)
(0.0011239494 5.9544098e-05 -2.0233943e-16 0.0011323384 -2.1119515e-17 0.0011282535)
(0.0011181075 5.042917e-05 6.4782104e-19 0.0011292191 -1.631576e-17 0.0011266317)
(0.00111192 4.5937316e-05 -3.2372105e-18 0.0011267661 -1.0503307e-17 0.0011248982)
(0.0011056358 4.3040839e-05 -1.6491627e-18 0.0011246474 4.311794e-17 0.0011231263)
(0.0011008199 4.0908697e-05 3.1809742e-18 0.0011219594 4.5768646e-17 0.0011206403)
(0.0010970987 3.9301155e-05 -2.1226745e-16 0.0011188438 1.1769805e-17 0.0011176588)
(0.0010939721 3.8037117e-05 1.18885e-19 0.0011155292 -2.8376239e-18 0.001114442)
(0.0010912662 3.7000692e-05 2.2126003e-16 0.0011120915 -2.1817162e-17 0.0011110782)
(0.0010888606 3.6129316e-05 -1.1503534e-18 0.0011085828 -1.2030203e-17 0.0011076268)
(0.0010866345 3.5381018e-05 -3.8224271e-18 0.0011050569 -5.2239442e-17 0.0011041466)
(0.0010845049 3.47243e-05 -3.01784e-18 0.0011015501 1.61184e-17 0.0011006774)
(0.0010824261 3.4136735e-05 8.3072616e-19 0.0010980809 8.5125663e-17 0.0010972398)
(0.0010803749 3.3602523e-05 -1.1533947e-16 0.0010946572 3.1830723e-17 0.0010938432)
(0.0010783433 3.3110035e-05 -1.1766091e-16 0.0010912798 -3.5624172e-18 0.0010904896)
(0.001076337 3.2650409e-05 1.2348933e-16 0.001087943 -9.8694807e-18 0.001087174)
(0.001074374 3.221674e-05 1.2617138e-16 0.0010846348 -4.3409968e-17 0.0010838847)
(0.001072485 3.1803464e-05 1.2705337e-16 0.0010813374 -9.5150024e-17 0.0010806045)
(0.001070716 3.1405775e-05 -1.3182886e-16 0.0010780257 -3.6831502e-17 0.0010773083)
(0.0010691329 3.1019208e-05 -3.4285353e-18 0.001074665 -4.9350563e-17 0.0010739616)
(0.0010678295 3.0639227e-05 1.2997386e-16 0.0010712063 2.2590367e-17 0.0010705154)
(0.0010669395 3.0260743e-05 1.3627593e-16 0.0010675811 1.020701e-16 0.001066901)
(0.0010666556 2.9877515e-05 -1.3315248e-16 0.0010636912 5.2940263e-18 0.0010630199)
(0.0010672575 2.9481164e-05 3.9479865e-18 0.0010593953 -4.5803037e-17 0.0010587303)
(0.0010691594 2.9059936e-05 -1.4018903e-16 0.0010544852 -6.713827e-17 0.0010538232)
(0.0010729766 2.8595729e-05 -1.4746167e-16 0.001048653 -6.2952745e-17 0.0010479894)
(0.0010796625 2.806119e-05 -5.5900753e-18 0.0010414239 -4.4593174e-17 0.0010407521)
(0.0010906746 2.7408005e-05 -1.542755e-16 0.001032075 -2.7578068e-17 0.001031386)
(0.0011084644 2.6561228e-05 -3.1428724e-18 0.0010194017 -8.9426045e-18 0.0010186795)
(0.0011368821 2.5357327e-05 -1.6030675e-18 0.0010014995 3.9574555e-17 0.0010007272)
(0.0011834664 2.357152e-05 1.6404516e-16 0.00097469526 2.2766202e-17 0.00097381868)
(0.0012604859 2.0311205e-05 -1.7403988e-16 0.00093305465 -4.5521388e-17 0.00093207131)
(0.0013983414 1.5230346e-05 -2.5833347e-18 0.00086219337 2.1054496e-17 0.00086100638)
(0.0015621278 4.8036528e-06 7.4667637e-18 0.00078214806 3.1892145e-17 0.00078021945)
(0.0015680571 -1.7093391e-05 -9.4826179e-17 0.00078485322 -2.4143362e-17 0.00078417196)
(0.0015760826 -2.9483985e-06 -3.2404173e-18 0.00079156666 3.5792291e-17 0.00078495516)
(0.0016319228 -5.8088826e-05 2.2846093e-17 0.00082898314 2.2600481e-17 0.00081218835)
(0.0015191818 -0.00016562695 1.3030757e-18 0.00077628387 -4.4651942e-18 0.00099343327)
(0.0011455827 7.8567058e-05 2.7424443e-18 0.0011311089 -2.1136942e-17 0.0011222966)
(0.0011245266 6.8567553e-05 1.4058809e-18 0.0011343765 -1.1516134e-17 0.0011293116)
(0.0011189819 5.9603643e-05 7.2112056e-19 0.0011311094 -1.7367854e-17 0.0011275632)
(0.0011130339 5.4758496e-05 -1.7105286e-18 0.001128452 7.1140911e-18 0.0011257925)
(0.0011068449 5.1487885e-05 -1.5619734e-16 0.0011262194 8.6296109e-18 0.0011240247)
(0.0011020654 4.9046309e-05 -1.5457598e-16 0.0011234647 5.0360782e-18 0.0011215472)