0.4742268 	7.6310381e-08 	-1.5843276e-08 	7.4839325e-11 	7.6145497e-08 	-3.1902858e-10 	5.4171797e-09
0.48453608 	4.0664589e-09 	-1.005493e-10 	1.2168104e-13 	4.0589045e-09 	-2.1038508e-12 	4.4477993e-10
0.49484536 	7.3536522e-11 	-1.7019951e-13 	-5.9578425e-15 	7.3444363e-11 	-5.2220331e-13 	2.6458766e-11
0.50515464 	7.7234635e-11 	-1.1507487e-12 	4.5954746e-18 	7.7103523e-11 	-7.6177988e-17 	1.5909896e-11
0.51546392 	3.29483e-09 	-1.0132148e-11 	1.6059853e-13 	3.2925442e-09 	6.3867356e-11 	1.2159075e-09
0.5257732 	1.4478503e-07 	1.2487999e-09 	4.0588464e-11 	1.4476147e-07 	3.5775494e-09 	3.0035294e-08
0.53608247 	1.8980943e-06 	2.9865344e-08 	2.1076456e-10 	1.8989738e-06 	1.1810652e-08 	4.019408e-07
0.54639175 	1.2079782e-05 	3.5974432e-07 	4.7268883e-10 	1.2105151e-05 	1.2526732e-08 	2.9846686e-06
0.55670103 	3.616776e-05 	1.9899164e-06 	1.235841e-09 	3.6353529e-05 	1.3172295e-08 	1.4382659e-05
0.56701031 	5.4375886e-05 	5.3581742e-06 	9.8607902e-09 	5.4910827e-05 	3.571396e-08 	2.5826128e-05
0.57731959 	5.2989676e-05 	8.115806e-06 	1.0719685e-08 	5.3804919e-05 	-7.9684015e-08 	2.7561785e-05
0.58762887 	3.4514809e-05 	7.600208e-06 	-3.8657842e-08 	3.5274751e-05 	-2.8204938e-07 	1.6936089e-05
0.59793814 	1.0269593e-05 	2.7547152e-06 	-9.1155451e-09 	1.0536536e-05 	-3.8559996e-08 	1.4768287e-06
0.60824742 	4.7413029e-06 	1.625923e-06 	4.3220129e-08 	4.8948035e-06 	1.3318011e-07 	2.0236922e-08
0.6185567 	7.6806961e-07 	2.9858103e-07 	-2.0751962e-09 	7.9619824e-07 	-6.2204645e-09 	3.6201254e-07
0.62886598 	3.3506168e-07 	1.2057375e-07 	-1.8046035e-10 	3.4603586e-07 	6.4922388e-10 	4.3848182e-08
0.63917526 	5.458769e-07 	1.6649999e-07 	6.8185319e-10 	5.6085016e-07 	1.4855156e-09 	3.3974067e-08
0.64948454 	5.2150594e-07 	1.1286815e-07 	-2.8964238e-10 	5.3169246e-07 	6.4409045e-10 	1.3885183e-07
0.65979381 	6.1377249e-07 	9.4174397e-08 	-1.9745485e-10 	6.2221079e-07 	-1.6650923e-10 	2.151833e-07
0.67010309 	6.021549e-07 	5.9050347e-08 	2.5926066e-11 	6.0717786e-07 	1.9319187e-10 	1.9366214e-07
0.68041237 	6.8819559e-07 	5.0003825e-08 	-9.7563137e-11 	6.9230422e-07 	6.1134395e-10 	2.8949197e-07
0.69072165 	7.6341618e-07 	4.8443317e-08 	1.9244372e-10 	7.6677213e-07 	2.0664222e-09 	1.320793e-07
0.70103093 	1.0482257e-06 	7.1267732e-08 	8.9698444e-10 	1.0529237e-06 	9.9316697e-09 	3.7848806e-07
0.71134021 	1.6630675e-06 	1.3139506e-07 	4.2674086e-10 	1.6700073e-06 	3.0955522e-09 	1.5997117e-07
0.72164948 	5.4818205e-06 	7.1009674e-07 	2.3112029e-08 	5.5096962e-06 	1.4622177e-07 	1.0887652e-06
0.73195876 	1.3835127e-05 	2.0769149e-06 	1.9549362e-09 	1.390629e-05 	2.422363e-09 	8.2115459e-07
0.74226804 	4.5224234e-05 	9.5626478e-06 	2.4853274e-07 	4.550275e-05 	9.4356793e-07 	1.2566838e-05
0.75257732 	0.00011703459 	2.856136e-05 	2.7329889e-08 	0.00011774126 	1.0375939e-07 	1.2704544e-05
0.7628866 	0.00025915227 	7.1494861e-05 	4.7355368e-07 	0.00026103945 	1.5359413e-06 	0.0001175568
0.77319588 	0.00044717414 	0.00012983498 	1.4205297e-07 	0.0004506974 	4.6073981e-07 	0.00011791834
0.78350515 	0.00068272265 	0.00020976521 	6.3124945e-07 	0.00068935007 	1.9515373e-06 	0.0002986
0.79381443 	0.00089174945 	0.0002781923 	3.5991944e-08 	0.00090198473 	1.6076783e-08 	0.00025432154
0.80412371 	0.0010569058 	0.00033091102 	7.2094737e-07 	0.0010725511 	2.3163525e-06 	0.00041962613
0.81443299 	0.0011981557 	0.00037495476 	1.5404905e-07 	0.0012182205 	1.1069171e-07 	5.1098674e-05
0.82474227 	0.0013100432 	0.0004091608 	4.2967496e-07 	0.0013354506 	1.4382097e-06 	0.00050005296
0.83505155 	0.0014024106 	0.00043623119 	4.0559685e-08 	0.0014307684 	1.2372883e-07 	0.00055210238
0.84536082 	0.0014736451 	0.00045967026 	2.1550455e-08 	0.0015029267 	3.9180115e-08 	0.00035302437
0.8556701 	0.001526385 	0.00048036613 	2.1814974e-07 	0.0015558195 	4.1573409e-07 	0.00058465446
0.86597938 	0.0015654048 	0.00050020822 	9.2711877e-08 	0.0015936464 	5.1150907e-08 	0.00060314959
0.87628866 	0.001590544 	0.0005195988 	1.0109924e-08 	0.0016162052 	5.1854532e-08 	0.00020818593
0.88659794 	0.0016024522 	0.00053881326 	1.6593904e-09 	0.0016264748 	2.1676195e-08 	0.00041437515
0.89690722 	0.0016004016 	0.00055706732 	4.7189596e-08 	0.0016221294 	-1.0742982e-07 	0.00061236846
0.90721649 	0.0015831255 	0.00057376159 	7.783296e-08 	0.001601909 	-3.429905e-07 	0.00060606755
0.91752577 	0.0015474686 	0.00058889137 	7.126944e-08 	0.0015660775 	-5.3744627e-07 	0.00059224369
0.92783505 	0.0014909719 	0.00061417572 	2.1997606e-07 	0.0015065537 	-5.8377901e-07 	0.00057171475
0.93814433 	0.0014081452 	0.00064999571 	1.1014002e-08 	0.0014153817 	-2.1124238e-07 	0.00054462389
0.94845361 	0.0012851468 	0.00059812376 	4.6134081e-10 	0.0012868109 	-2.0460848e-10 	8.3946476e-05
0.95876289 	0.0011121645 	0.0005165922 	-3.1799008e-07 	0.0011095589 	-6.89112e-07 	0.00040854423
0.96907216 	0.00088642515 	0.00041108253 	4.6768814e-09 	0.0008816243 	1.0208003e-08 	0.00010655765
0.97938144 	0.00053457094 	0.00024804398 	-2.3179789e-07 	0.00053227584 	-4.9669626e-07 	0.00021442125
0.98969072 	0.00010647768 	4.9450192e-05 	-1.6052729e-07 	0.00010621236 	-3.4453567e-07 	4.3871492e-05
