0.47826087 	0.42154902 	0.00015445457 	-1.0207117e-08
0.48913043 	0.96415902 	0.00085442012 	-9.987999e-08
0.5 	1.3156885 	0.0016831066 	1.1694911e-07
0.51086957 	1.4599289 	0.0021218195 	3.6971634e-07
0.52173913 	1.4940907 	0.0021496083 	-2.9776598e-07
0.5326087 	1.4964896 	0.002048813 	-2.8106247e-07
0.54347826 	1.4926693 	0.0019343799 	-1.2558897e-06
0.55434783 	1.487689 	0.0018356963 	-8.2041779e-07
0.56521739 	1.4826314 	0.0017646138 	-6.6756547e-07
0.57608696 	1.4780449 	0.0017084148 	-8.9470981e-07
0.58695652 	1.4739364 	0.001649212 	-6.5522039e-07
0.59782609 	1.4701242 	0.0015814572 	-1.1316096e-08
0.60869565 	1.4663939 	0.0015039405 	-8.6985179e-08
0.61956522 	1.4627268 	0.0014217415 	-1.744937e-09
0.63043478 	1.4589637 	0.0013284259 	-1.7591131e-06
0.64130435 	1.4550077 	0.0012190112 	4.1609217e-08
0.65217391 	1.4508027 	0.0011034878 	1.0269549e-07
0.66304348 	1.4464171 	0.000984587 	-1.915191e-06
0.67391304 	1.4415786 	0.00083503946 	5.9075058e-07
0.68478261 	1.4367744 	0.00068744668 	-1.5646271e-06
0.69565217 	1.4316972 	0.00053108787 	3.4086006e-07
0.70652174 	1.4265367 	0.000409278 	-4.2611916e-07
0.7173913 	1.4209412 	0.00032128545 	1.6243371e-07
0.72826087 	1.4145865 	0.00026992625 	-1.6093724e-07
0.73913043 	1.4068824 	0.0002613655 	1.878366e-07
0.75 	1.3988954 	0.00023494365 	-1.4966401e-07
0.76086957 	1.3904635 	0.00018274361 	1.7848904e-07
0.77173913 	1.3828511 	0.00013397942 	-7.3790116e-08
0.7826087 	1.3768261 	8.5528573e-05 	1.6828961e-08
0.79347826 	1.371518 	2.2525964e-05 	7.2465704e-08
0.80434783 	1.3667917 	-6.142387e-05 	-1.0136006e-06
0.81521739 	1.3622998 	-0.00016762952 	1.5022746e-07
0.82608696 	1.357781 	-0.00027285053 	-3.6402707e-07
0.83695652 	1.3533006 	-0.00034802299 	-3.2781397e-07
0.84782609 	1.3487245 	-0.00042489652 	1.4230339e-07
0.85869565 	1.3438553 	-0.0005016937 	3.4079572e-08
0.86956522 	1.3386467 	-0.00057264728 	-5.5900831e-07
0.88043478 	1.3329804 	-0.00064028053 	-3.5246115e-07
0.89130435 	1.3266989 	-0.00070456595 	7.3705279e-09
0.90217391 	1.3195701 	-0.00076995965 	6.1978104e-08
0.91304348 	1.3113506 	-0.00080792879 	7.5537607e-08
0.92391304 	1.3016514 	-0.00089998916 	2.3663992e-08
0.93478261 	1.2896054 	-0.00096201931 	6.5193539e-08
0.94565217 	1.2703931 	-0.00093527303 	5.1107524e-09
0.95652174 	1.2251717 	-0.00095599474 	3.3524582e-07
0.9673913 	1.1125464 	-0.00078384116 	1.1315878e-07
0.97826087 	0.87129673 	-0.00040864445 	7.167996e-07
0.98913043 	0.46933658 	-9.497321e-05 	2.2987287e-07
