0.47916667 	0.48107576 	0.00020940194 	1.0109593e-07
0.48958333 	1.0009363 	0.00095505578 	-2.8875773e-07
0.5 	1.3287034 	0.0017750811 	3.3633424e-07
0.51041667 	1.461194 	0.0021916236 	6.4324157e-07
0.52083333 	1.493231 	0.0022153209 	-2.4421945e-07
0.53125 	1.4953793 	0.0021133758 	-9.1891699e-08
0.54166667 	1.4920054 	0.0019956421 	-2.94067e-07
0.55208333 	1.4877142 	0.0018876868 	-5.6736453e-07
0.5625 	1.4832061 	0.0018024829 	-4.1218142e-07
0.57291667 	1.4787915 	0.00173238 	-4.3219287e-09
0.58333333 	1.474643 	0.0016691139 	1.2507947e-08
0.59375 	1.4707428 	0.0016050919 	4.7118312e-08
0.60416667 	1.4670215 	0.0015358238 	-2.4450155e-07
0.61458333 	1.4632956 	0.0014510406 	-1.3824506e-06
0.625 	1.4594402 	0.0013499758 	8.7613991e-08
0.63541667 	1.4554115 	0.001239299 	7.4194738e-08
0.64583333 	1.4512276 	0.0011183492 	-2.1167511e-06
0.65625 	1.4467193 	0.00097078976 	4.3837889e-07
0.66666667 	1.4422563 	0.00082027157 	-1.377872e-06
0.67708333 	1.4376503 	0.00065610472 	1.2657601e-07
0.6875 	1.4332131 	0.00052402009 	-2.0074462e-08
0.69791667 	1.4287877 	0.00041303218 	-1.3877011e-07
0.70833333 	1.4241325 	0.00032679178 	2.0523804e-08
0.71875 	1.4191742 	0.00025551053 	-5.4838001e-08
0.72916667 	1.4132626 	0.00020071921 	-7.4292608e-08
0.73958333 	1.4061103 	0.00016933517 	6.6566079e-08
0.75 	1.3984803 	0.00013027348 	-2.6344771e-07
0.76041667 	1.3901511 	8.9253817e-05 	1.9213926e-07
0.77083333 	1.3825459 	5.5051375e-05 	-2.2674093e-07
0.78125 	1.3763477 	2.6490629e-05 	1.0764325e-07
0.79166667 	1.3708434 	-1.7256909e-05 	-7.3328194e-08
0.80208333 	1.3661801 	-8.7453324e-05 	-2.4174195e-07
0.8125 	1.3617596 	-0.00017824449 	1.1819467e-07
0.82291667 	1.3574621 	-0.00027992622 	-1.4065643e-06
0.83333333 	1.3532414 	-0.00035895826 	1.2397856e-07
0.84375 	1.3489024 	-0.0004322777 	2.5420737e-08
0.85416667 	1.3443985 	-0.00050665389 	-9.0393604e-07
0.86458333 	1.3396548 	-0.00057675148 	4.49333e-08
0.875 	1.3345195 	-0.00064330857 	1.9302022e-07
0.88541667 	1.3288344 	-0.00070825963 	2.902567e-08
0.89583333 	1.3224869 	-0.00077121647 	-2.9287945e-07
0.90625 	1.3152982 	-0.00083032379 	-3.3939277e-07
0.91666667 	1.3070101 	-0.00087339049 	-5.7938776e-07
0.92708333 	1.2972261 	-0.00097111282 	-5.4458601e-07
0.9375 	1.2848474 	-0.0010113451 	1.3270522e-08
0.94791667 	1.2637055 	-0.0010060491 	2.1054974e-07
0.95833333 	1.2151004 	-0.001007514 	2.0460139e-08
0.96875 	1.0965598 	-0.0008146637 	3.8245431e-07
0.97916667 	0.85127053 	-0.00042228586 	4.940263e-07
0.98958333 	0.45336451 	-0.00010055698 	1.9220121e-07
