/*--------------------------------*- C++ -*----------------------------------*\
  =========                 |
  \\      /  F ield         | OpenFOAM: The Open Source CFD Toolbox
   \\    /   O peration     | Website:  https://openfoam.org
    \\  /    A nd           | Version:  7
     \\/     M anipulation  |
\*---------------------------------------------------------------------------*/
FoamFile
{
    version     2.0;
    format      ascii;
    class       volScalarField;
    location    "2000";
    object      nut;
}
// * * * * * * * * * * * * * * * * * * * * * * * * * * * * * * * * * * * * * //

dimensions      [0 2 -1 0 0 0 0];

internalField   nonuniform List<scalar> 
15296
(
0.0019786882
0.0019794407
0.0019803049
0.0019812507
0.0019822603
0.0019833216
0.0019844261
0.0019855679
0.0019867418
0.001987944
0.0019891709
0.0019904197
0.001991688
0.0019929738
0.0019942753
0.0019955907
0.0019969186
0.0019982578
0.0019996071
0.0020009657
0.0020023325
0.0020037065
0.0020050869
0.0020064729
0.002007864
0.0020092603
0.0020106635
0.0020120784
0.0020135184
0.0020150107
0.0020166101
0.0020186025
0.0020208301
0.0015718644
0.00091865239
0.00047982246
0.00025158078
0.00011422252
0.001978698
0.0019794519
0.0019803165
0.0019812624
0.0019822719
0.001983333
0.0019844372
0.0019855786
0.0019867522
0.0019879538
0.0019891802
0.0019904285
0.0019916962
0.0019929814
0.0019942822
0.001995597
0.0019969243
0.0019982628
0.0019996115
0.0020009694
0.0020023355
0.0020037088
0.0020050885
0.0020064738
0.0020078642
0.0020092598
0.0020106622
0.0020120763
0.0020135151
0.0020150058
0.0020166017
0.0020185893
0.0020207874
0.0016052448
0.00092250939
0.00047041838
0.00023107075
0.00010555024
0.0019787199
0.0019794772
0.001980343
0.0019812896
0.0019822993
0.0019833604
0.0019844645
0.0019856056
0.0019867787
0.0019879799
0.0019892057
0.0019904533
0.0019917204
0.0019930048
0.0019943049
0.0019956188
0.0019969452
0.0019982829
0.0019996307
0.0020009877
0.0020023529
0.0020037253
0.002005104
0.0020064883
0.0020078777
0.0020092723
0.0020106737
0.0020120866
0.002013524
0.0020150126
0.0020166044
0.0020185865
0.002020752
0.0016256302
0.00093914397
0.00048647262
0.00023560625
0.00010418194
0.0019787531
0.0019795157
0.0019803837
0.0019813314
0.0019823418
0.0019834032
0.0019845073
0.0019856482
0.001986821
0.0019880217
0.0019892469
0.0019904939
0.0019917601
0.0019930437
0.0019943429
0.0019956559
0.0019969814
0.0019983179
0.0019996647
0.0020010206
0.0020023847
0.002003756
0.0020051336
0.0020065168
0.002007905
0.0020092984
0.0020106985
0.0020121099
0.0020135457
0.0020150319
0.0020166192
0.0020185952
0.0020207283
0.0016385769
0.00094629697
0.00049395285
0.0002342378
0.00010397152
0.0019787977
0.0019795673
0.0019804384
0.0019813879
0.0019823993
0.0019834612
0.0019845656
0.0019857064
0.001986879
0.0019880792
0.0019893038
0.00199055
0.0019918155
0.0019930981
0.0019943963
0.0019957083
0.0019970326
0.001998368
0.0019997135
0.0020010682
0.002002431
0.002003801
0.0020051773
0.0020065591
0.002007946
0.0020093379
0.0020107365
0.0020121463
0.0020135801
0.0020150637
0.0020166463
0.0020186158
0.002020717
0.0016523123
0.00095422044
0.00050298446
0.00023484065
0.00010557293
0.0019788698
0.0019796508
0.0019805269
0.0019814795
0.0019824928
0.0019835557
0.0019846606
0.0019858015
0.0019869738
0.0019881735
0.0019893973
0.0019906425
0.0019919068
0.0019931882
0.0019944849
0.0019957954
0.001997118
0.0019984517
0.0019997955
0.0020011484
0.0020025093
0.0020038774
0.0020052518
0.0020066316
0.0020080164
0.0020094063
0.0020108026
0.00201221
0.0020136411
0.0020151209
0.002016697
0.0020186575
0.0020207191
0.0016704491
0.00096467161
0.00051550665
0.00023710551
0.00010634605
0.0019789906
0.0019797897
0.0019806749
0.0019816329
0.0019826494
0.0019837144
0.0019848204
0.0019859618
0.0019871339
0.001988333
0.0019895558
0.0019907996
0.0019920623
0.0019933417
0.0019946364
0.0019959447
0.0019972648
0.001998596
0.0019999372
0.0020012874
0.0020026455
0.0020040107
0.0020053821
0.002006759
0.0020081407
0.0020095274
0.0020109204
0.002012324
0.0020137511
0.0020152253
0.0020167926
0.0020187404
0.0020207555
0.0016935118
0.00097684971
0.00053100829
0.00024019151
0.00010882528
0.0019791646
0.001979988
0.0019808869
0.0019818528
0.0019828743
0.0019839424
0.0019850503
0.0019861926
0.0019873648
0.0019885633
0.0019897849
0.0019910271
0.0019922876
0.0019935647
0.0019948567
0.0019961622
0.0019974791
0.001998807
0.0020001448
0.0020014914
0.0020028458
0.0020042072
0.0020055747
0.0020069476
0.0020083252
0.0020097076
0.0020110961
0.0020124949
0.0020139168
0.0020153837
0.0020169403
0.002018872
0.0020208409
0.0017205142
0.00099068807
0.0005487072
0.00024469011
0.0001131895
0.0019794105
0.001980265
0.0019811836
0.0019821607
0.0019831893
0.0019842621
0.001985373
0.0019865168
0.0019876894
0.0019888872
0.0019901075
0.0019913476
0.0019926056
0.0019938797
0.0019951683
0.00199647
0.0019977828
0.0019991064
0.0020004397
0.0020017816
0.0020031312
0.0020044876
0.00200585
0.0020072176
0.0020085898
0.0020099665
0.0020113491
0.0020127415
0.0020141566
0.0020156143
0.0020171577
0.0020190692
0.0020209949
0.0017519729
0.0010066325
0.00056846477
0.00025035796
0.00011753319
0.0019797531
0.0019806481
0.001981592
0.0019825846
0.0019836234
0.0019847031
0.0019858183
0.0019869645
0.001988138
0.0019893355
0.0019905542
0.001991792
0.0019930469
0.0019943173
0.0019956015
0.0019968985
0.001998206
0.0019995242
0.0020008518
0.0020021877
0.0020035311
0.002004881
0.0020062368
0.0020075975
0.0020089627
0.0020103321
0.0020117071
0.0020130911
0.0020144972
0.0020159433
0.0020174709
0.0020193564
0.0020212449
0.0017888628
0.0010254931
0.0005904772
0.00025760529
0.00012167358
0.0019802284
0.0019811731
0.0019821477
0.0019831611
0.001984214
0.0019853033
0.0019864248
0.0019875748
0.0019887499
0.0019899473
0.0019911645
0.0019923996
0.0019936508
0.0019949166
0.0019961956
0.0019974867
0.0019987875
0.002000099
0.0020014193
0.0020027476
0.0020040831
0.0020054249
0.0020067721
0.0020081242
0.0020094803
0.0020108404
0.0020122055
0.0020135788
0.0020149733
0.0020164046
0.002017913
0.0020197654
0.0020216251
0.0018321665
0.00104818
0.00061474257
0.00026710418
0.00012623963
0.0019808916
0.0019818851
0.001982898
0.0019839375
0.0019850089
0.0019861111
0.0019872412
0.0019883963
0.0019895739
0.0019907714
0.001991987
0.0019932188
0.0019944655
0.0019957256
0.0019969979
0.0019982816
0.0019995745
0.0020008771
0.002002188
0.0020035066
0.002004832
0.0020061632
0.0020074997
0.0020088405
0.002010185
0.002011533
0.0020128854
0.002014245
0.0020156246
0.0020170373
0.0020185223
0.002020333
0.0020221725
0.0018825087
0.0010753615
0.00064092825
0.00027890689
0.00013189237
0.0019818045
0.001982852
0.001983906
0.0019849764
0.0019860708
0.0019871893
0.0019883304
0.0019894922
0.0019906729
0.0019918708
0.0019930842
0.001994312
0.0019955529
0.0019968058
0.0019980697
0.0019993439
0.0020006269
0.0020019177
0.0020032168
0.0020045229
0.0020058353
0.002007153
0.0020084755
0.0020098019
0.0020111315
0.002012464
0.0020138001
0.0020151421
0.0020165024
0.0020178916
0.0020193483
0.0020211072
0.0020229319
0.0019417791
0.001108385
0.00066970571
0.00029353818
0.00013894177
0.0019830571
0.0019841638
0.001985257
0.0019863621
0.0019874838
0.001988622
0.0019897765
0.0019909465
0.0019921311
0.0019933294
0.0019945403
0.001995763
0.0019969968
0.0019982407
0.0019994941
0.0020007564
0.0020020268
0.0020033029
0.0020045873
0.0020058778
0.0020071737
0.0020084746
0.0020097794
0.0020110876
0.0020123983
0.0020137112
0.0020150266
0.0020163464
0.0020176822
0.0020190421
0.0020204643
0.0020221598
0.0020239693
0.0020115868
0.0011485126
0.00070189996
0.00031138329
0.00014763385
0.0019847947
0.0019859296
0.0019870663
0.0019882081
0.001989359
0.0019905189
0.0019916882
0.0019928674
0.0019940564
0.0019952548
0.0019964624
0.0019976788
0.0019989036
0.0020001364
0.0020013768
0.0020026244
0.0020038788
0.0020051378
0.0020064033
0.0020076742
0.0020089498
0.0020102294
0.0020115124
0.0020127978
0.0020140849
0.0020153731
0.0020166626
0.0020179548
0.0020192598
0.0020205836
0.0020219639
0.0020235832
0.0020253696
0.0020297573
0.0011989192
0.000738431
0.00033429779
0.00015762206
0.001987594
0.0019887617
0.0019899417
0.0019911234
0.0019923066
0.0019934909
0.001994677
0.0019958659
0.0019970584
0.0019982551
0.0019994562
0.0020006621
0.002001873
0.0020030888
0.0020043096
0.0020055351
0.0020067655
0.002008
0.0020092367
0.0020104784
0.0020117238
0.0020129722
0.0020142227
0.0020154744
0.0020167264
0.0020179781
0.0020192292
0.0020204803
0.0020217396
0.0020230115
0.002024331
0.0020258435
0.0020275842
0.0020312027
0.0012712618
0.00078658218
0.00036747926
0.00017218388
0.0019919445
0.0019931635
0.001994373
0.001995578
0.0019967804
0.0019979787
0.0019991727
0.0020003633
0.0020015517
0.0020027388
0.0020039254
0.0020051124
0.0020063004
0.0020074899
0.0020086811
0.0020098744
0.0020110699
0.0020122678
0.0020134661
0.0020146653
0.0020158686
0.002017073
0.0020182776
0.0020194819
0.0020206849
0.0020218854
0.0020230827
0.0020242765
0.0020254714
0.0020266783
0.0020279115
0.0020292856
0.0020309337
0.0020338177
0.0013679743
0.00084921014
0.00041147651
0.00019472692
0.0019977055
0.0019989356
0.0020001495
0.0020013533
0.0020025514
0.0020037422
0.0020049252
0.0020061011
0.0020072709
0.0020084355
0.0020095961
0.0020107537
0.002011909
0.0020130627
0.0020142156
0.002015368
0.0020165202
0.0020176727
0.0020188252
0.0020199755
0.0020211273
0.0020222782
0.0020234282
0.0020245764
0.0020257216
0.002026862
0.002027996
0.0020291226
0.0020302423
0.0020313722
0.0020325041
0.0020337276
0.0020352406
0.0020375101
0.001484784
0.00092530242
0.00046485455
0.00022382579
0.0020051274
0.0020063197
0.0020075048
0.0020086787
0.0020098447
0.0020110013
0.0020121483
0.0020132865
0.002014417
0.0020155404
0.0020166579
0.0020177704
0.0020188786
0.0020199834
0.0020210854
0.0020221851
0.002023283
0.0020243794
0.0020254745
0.0020265681
0.0020276572
0.0020287439
0.0020298304
0.0020309136
0.0020319915
0.002033062
0.0020341227
0.0020351714
0.0020362055
0.0020372394
0.0020382568
0.0020393199
0.0020406606
0.0020423954
0.0016254261
0.0010166126
0.0005290883
0.00025882073
0.0020144008
0.0020155362
0.0020166601
0.0020177708
0.0020188734
0.0020199666
0.0020210499
0.0020221243
0.0020231908
0.0020242503
0.0020253034
0.002026351
0.002027394
0.0020284329
0.0020294683
0.0020305007
0.0020315305
0.0020325579
0.002033583
0.0020346063
0.0020356241
0.0020366387
0.0020376486
0.0020386559
0.0020396564
0.0020406468
0.0020416238
0.0020425837
0.0020435219
0.0020444455
0.0020453352
0.0020462277
0.0020473629
0.0020486194
0.001795632
0.001128801
0.00060709835
0.00030161772
0.0020257091
0.0020267544
0.0020277855
0.0020288029
0.0020298134
0.0020308158
0.0020318091
0.0020327944
0.0020337726
0.0020347446
0.0020357111
0.002036673
0.002037631
0.0020385856
0.0020395372
0.0020404862
0.0020414329
0.0020423774
0.0020433196
0.0020442596
0.0020451962
0.0020461292
0.0020470545
0.0020479726
0.002048885
0.0020497851
0.0020506686
0.00205153
0.0020523627
0.0020531629
0.0020539285
0.002054637
0.0020555323
0.0020563739
0.0020015323
0.0012686927
0.00070298313
0.00035496746
0.0020391479
0.0020400582
0.0020409671
0.0020418675
0.0020427633
0.0020436522
0.0020445329
0.0020454063
0.002046274
0.0020471369
0.002047996
0.0020488521
0.002049706
0.0020505581
0.0020514089
0.0020522585
0.002053107
0.0020539545
0.0020548007
0.0020556452
0.0020564874
0.0020573262
0.00205816
0.0020589835
0.0020597965
0.0020605947
0.002061377
0.0020621318
0.0020628504
0.0020635187
0.0020641551
0.0020646713
0.0020652978
0.0020658086
0.0020683556
0.0014454159
0.00082255779
0.00042233133
0.0020546343
0.0020554032
0.0020561781
0.0020569452
0.0020577077
0.0020584637
0.0020592121
0.0020599546
0.002060693
0.0020614286
0.0020621627
0.0020628962
0.0020636297
0.0020643639
0.002065099
0.0020658352
0.0020665723
0.0020673104
0.0020680488
0.0020687872
0.0020695245
0.0020702594
0.0020709901
0.0020717141
0.0020724235
0.0020731169
0.0020737879
0.0020744264
0.0020750219
0.0020755568
0.0020760436
0.0020763701
0.0020767185
0.0020769397
0.0020782802
0.0016726151
0.00097463473
0.00050870189
0.0020719529
0.0020725989
0.0020732316
0.0020738495
0.0020744621
0.0020750696
0.0020756715
0.0020762696
0.0020768662
0.0020774626
0.0020780601
0.0020786599
0.0020792626
0.0020798688
0.0020804788
0.0020810925
0.0020817098
0.0020823305
0.002082954
0.0020835794
0.0020842057
0.0020848313
0.0020854538
0.0020860703
0.0020866757
0.0020872646
0.0020878246
0.0020883475
0.0020888212
0.0020892194
0.0020895436
0.0020897163
0.0020897885
0.0020897005
0.0020900901
0.0019660179
0.0011722591
0.00062133301
0.0020907425
0.0020912025
0.002091672
0.0020921346
0.0020925943
0.0020930502
0.0020935018
0.0020939516
0.0020944022
0.0020948555
0.0020953129
0.0020957756
0.0020962446
0.0020967201
0.0020972025
0.0020976917
0.0020981876
0.0020986896
0.0020991972
0.0020997094
0.0021002247
0.0021007413
0.0021012567
0.0021017671
0.0021022677
0.0021027515
0.0021032086
0.0021036251
0.0021039859
0.0021042578
0.0021044282
0.0021044596
0.0021042781
0.0021038616
0.0021036001
0.0021042005
0.0014353052
0.00077118622
0.0021101223
0.0021104371
0.0021107573
0.0021110698
0.0021113799
0.0021116878
0.0021119929
0.002112298
0.0021126061
0.0021129196
0.0021132402
0.0021135694
0.0021139079
0.0021142566
0.0021146154
0.0021149845
0.0021153635
0.002115752
0.0021161491
0.0021165538
0.0021169644
0.0021173789
0.0021177944
0.0021182068
0.0021186106
0.0021189981
0.0021193588
0.0021196774
0.0021199352
0.0021201011
0.002120146
0.0021200189
0.0021196659
0.002118946
0.0021182108
0.0021174248
0.0017963074
0.00097557948
0.0021289506
0.0021291619
0.0021293689
0.0021295579
0.0021297368
0.0021299087
0.0021300755
0.0021302422
0.0021304133
0.0021305921
0.0021307809
0.0021309818
0.0021311959
0.0021314238
0.002131666
0.0021319223
0.0021321925
0.002132476
0.0021327719
0.0021330789
0.0021333954
0.002133719
0.0021340465
0.0021343736
0.0021346943
0.0021350002
0.00213528
0.0021355174
0.0021356916
0.0021357689
0.0021357178
0.0021354628
0.0021350071
0.0021340543
0.0021329094
0.0021313523
0.0021333426
0.0012609511
0.0021460496
0.0021461166
0.0021461771
0.0021462175
0.0021462463
0.0021462682
0.0021462868
0.0021463079
0.0021463373
0.0021463788
0.0021464354
0.0021465091
0.0021466014
0.0021467128
0.0021468438
0.0021469942
0.0021471635
0.0021473511
0.0021475559
0.0021477765
0.0021480111
0.0021482571
0.0021485111
0.0021487685
0.0021490229
0.0021492657
0.002149485
0.0021496636
0.0021497798
0.0021497981
0.0021496842
0.0021493577
0.002148806
0.0021477973
0.0021463339
0.0021444919
0.0021435496
0.0016714483
0.0021595145
0.0021593812
0.0021592465
0.0021590958
0.0021589379
0.0021587785
0.0021586221
0.0021584757
0.0021583454
0.0021582353
0.0021581484
0.0021580867
0.0021580515
0.002158043
0.0021580615
0.0021581065
0.0021581774
0.0021582732
0.0021583926
0.0021585341
0.0021586954
0.002158874
0.0021590661
0.002159267
0.0021594703
0.002159667
0.0021598452
0.0021599876
0.0021600722
0.0021600639
0.0021599255
0.0021595836
0.002158986
0.0021580324
0.0021564572
0.0021545197
0.002151852
0.0021529904
0.0021665387
0.0021662014
0.002165856
0.0021654921
0.0021651218
0.002164754
0.0021643961
0.0021640569
0.0021637435
0.0021634605
0.0021632112
0.0021629975
0.0021628202
0.0021626796
0.0021625753
0.0021625066
0.0021624725
0.0021624718
0.0021625027
0.0021625634
0.0021626517
0.0021627645
0.0021628982
0.002163048
0.0021632074
0.0021633678
0.0021635176
0.0021636402
0.0021637143
0.002163707
0.0021635812
0.0021632705
0.0021627149
0.0021618228
0.0021604111
0.0021585678
0.0021552202
0.0021563037
0.0021638057
0.0021632433
0.0021626598
0.0021620514
0.0021614355
0.0021608251
0.0021602317
0.0021596668
0.0021591388
0.002158653
0.0021582128
0.0021578201
0.0021574756
0.0021571791
0.0021569298
0.0021567266
0.0021565682
0.0021564528
0.0021563785
0.0021563433
0.0021563445
0.0021563792
0.0021564437
0.0021565333
0.0021566419
0.0021567614
0.0021568814
0.0021569867
0.0021570582
0.0021570668
0.0021569787
0.0021567372
0.0021562856
0.0021555446
0.0021543639
0.0021530393
0.0021494564
0.0021522182
0.0021475496
0.0021466812
0.0021457786
0.0021448485
0.0021439138
0.0021429922
0.0021420993
0.0021412489
0.0021404501
0.0021397083
0.0021390268
0.0021384068
0.0021378486
0.0021373512
0.0021369134
0.0021365334
0.0021362095
0.0021359394
0.002135721
0.0021355519
0.0021354295
0.0021353506
0.0021353119
0.002135309
0.0021353366
0.0021353877
0.0021354534
0.0021355213
0.0021355756
0.002135593
0.0021355458
0.0021353912
0.0021350788
0.0021345707
0.0021336582
0.0021329931
0.002129672
0.0021355472
0.002114237
0.0021129786
0.0021116677
0.0021103268
0.0021089865
0.0021076693
0.0021063958
0.0021051816
0.002104036
0.0021029642
0.002101969
0.0021010508
0.0021002089
0.0020994417
0.0020987473
0.0020981234
0.0020975676
0.0020970774
0.0020966504
0.0020962839
0.0020959754
0.002095722
0.0020955205
0.0020953674
0.0020952584
0.0020951882
0.00209515
0.0020951351
0.0020951322
0.0020951253
0.0020950959
0.0020950168
0.0020948516
0.0020946016
0.002094049
0.0020940213
0.0020910327
0.0021009095
0.0020641697
0.0020625129
0.002060763
0.0020589658
0.0020571635
0.0020553875
0.0020536655
0.0020520166
0.0020504512
0.0020489751
0.002047591
0.002046299
0.002045098
0.0020439861
0.0020429608
0.0020420195
0.0020411595
0.0020403782
0.0020396728
0.0020390407
0.0020384795
0.0020379863
0.0020375587
0.0020371939
0.0020368886
0.0020366396
0.0020364426
0.0020362926
0.0020361838
0.0020361081
0.0020360567
0.0020360191
0.0020359754
0.0020359651
0.0020357663
0.0020364136
0.0020336463
0.0020472119
0.0020008208
0.001998663
0.0019963651
0.0019940039
0.0019916361
0.0019893032
0.0019870406
0.0019848701
0.001982803
0.0019808453
0.0019789994
0.0019772648
0.0019756398
0.0019741217
0.0019727073
0.0019713935
0.001970177
0.0019690546
0.0019680232
0.0019670801
0.0019662224
0.0019654477
0.0019647536
0.0019641381
0.0019635991
0.0019631349
0.0019627438
0.0019624244
0.0019621759
0.0019619977
0.0019618907
0.0019618591
0.0019618995
0.0019620837
0.0019621927
0.0019634237
0.0019609536
0.001977321
0.001925842
0.0019230685
0.0019201156
0.0019170933
0.0019140716
0.001911104
0.0019082331
0.0019054823
0.0019028629
0.0019003801
0.001898035
0.0018958257
0.0018937487
0.0018918001
0.0018899755
0.0018882704
0.0018866808
0.0018852025
0.0018838318
0.0018825654
0.0018814002
0.0018803338
0.0018793639
0.0018784889
0.0018777078
0.0018770202
0.001876427
0.0018759299
0.0018755328
0.0018752415
0.0018750659
0.0018750229
0.0018751241
0.0018754668
0.0018758404
0.0018775538
0.0018754168
0.0018938259
0.001841061
0.0018375653
0.0018338583
0.0018300946
0.0018263594
0.0018227169
0.0018192124
0.0018158669
0.0018126886
0.0018096797
0.0018068382
0.0018041594
0.0018016377
0.0017992672
0.0017970418
0.0017949559
0.0017930041
0.0017911815
0.0017894836
0.0017879065
0.001786447
0.0017851022
0.0017838702
0.0017827498
0.0017817408
0.0017808441
0.0017800626
0.0017794008
0.0017788668
0.0017784718
0.0017782334
0.0017781786
0.0017783324
0.0017788098
0.0017794134
0.0017815148
0.0017797317
0.0017994619
0.0017485882
0.0017442901
0.0017397853
0.001735257
0.0017307963
0.0017264744
0.0017223362
0.0017183986
0.0017146663
0.001711138
0.0017078087
0.0017046708
0.0017017165
0.001698938
0.0016963274
0.0016938778
0.0016915826
0.001689436
0.0016874327
0.0016855682
0.001683839
0.001682242
0.0016807752
0.0016794378
0.0016782303
0.0016771546
0.0016762152
0.001675419
0.0016747772
0.0016743057
0.001674028
0.0016739788
0.0016741939
0.0016747994
0.0016756138
0.0016780268
0.0016766234
0.0016970211
0.001651034
0.0016456818
0.001640219
0.0016348286
0.001629586
0.0016245553
0.00161977
0.001615237
0.0016109542
0.0016069151
0.0016031102
0.001599529
0.0015961609
0.0015929958
0.0015900244
0.001587238
0.001584629
0.0015821904
0.0015799163
0.0015778016
0.0015758421
0.0015740346
0.001572377
0.0015708688
0.0015695107
0.0015683057
0.0015672592
0.0015663801
0.0015656821
0.0015651841
0.0015649142
0.0015649123
0.0015652225
0.0015659753
0.001567008
0.0015696871
0.001568708
0.0015892184
0.0015473794
0.0015417263
0.001535779
0.001529813
0.001523965
0.0015183399
0.0015129875
0.0015079204
0.0015031391
0.0014986368
0.0014944027
0.0014904244
0.0014866898
0.0014831872
0.0014799057
0.0014768356
0.001473968
0.0014712953
0.0014688107
0.0014665087
0.0014643846
0.0014624352
0.0014606583
0.0014590533
0.0014576215
0.0014563663
0.0014552941
0.0014544148
0.0014537437
0.0014533018
0.0014531203
0.0014532413
0.0014537149
0.00145467
0.001455965
0.0014589068
0.0014584239
0.0014786127
0.0014424557
0.001435646
0.0014287193
0.0014219176
0.0014153482
0.0014090981
0.001403196
0.0013976401
0.0013924212
0.0013875257
0.0013829375
0.0013786408
0.0013746207
0.0013708637
0.0013673573
0.0013640907
0.0013610543
0.0013582399
0.0013556402
0.0013532495
0.0013510629
0.0013490772
0.0013472903
0.0013457015
0.0013443124
0.0013431264
0.0013421504
0.0013413946
0.0013408749
0.0013406129
0.0013406407
0.0013410005
0.0013417455
0.0013429975
0.0013446373
0.001347883
0.0013479919
0.0013675578
0.0013328399
0.0013256911
0.0013183446
0.0013110888
0.0013040742
0.0012974097
0.0012911272
0.0012852266
0.0012796995
0.0012745312
0.0012697047
0.0012652032
0.0012610114
0.0012571149
0.0012535013
0.0012501594
0.0012470795
0.0012442532
0.0012416734
0.0012393342
0.0012372308
0.0012353595
0.0012337182
0.0012323058
0.0012311231
0.0012301732
0.0012294617
0.0012289981
0.0012287969
0.0012288784
0.0012292735
0.0012300215
0.0012311761
0.0012328468
0.0012349375
0.0012385564
0.001239354
0.0012581281
0.0012231626
0.001215178
0.0012071247
0.0011992591
0.0011917286
0.0011846334
0.0011779904
0.0011717898
0.001166017
0.0011606539
0.001155681
0.0011510795
0.0011468325
0.0011429247
0.0011393428
0.0011360752
0.0011331118
0.0011304438
0.0011280633
0.0011259637
0.0011241388
0.0011225838
0.0011212944
0.0011202676
0.0011195015
0.0011189962
0.0011187544
0.0011187819
0.00111909
0.0011196948
0.0011206235
0.0011219099
0.0011236056
0.0011258047
0.0011284344
0.001132483
0.0011340224
0.001151942
0.0011135105
0.0011046528
0.0010958265
0.0010872804
0.0010791839
0.0010716335
0.0010646325
0.0010581636
0.0010522053
0.0010467316
0.0010417177
0.001037142
0.0010329853
0.0010292307
0.0010258632
0.0010228691
0.0010202364
0.0010179535
0.0010160095
0.0010143938
0.0010130961
0.0010121062
0.0010114147
0.0010110126
0.001010892
0.0010110468
0.0010114734
0.0010121719
0.0010131476
0.0010144107
0.0010159831
0.0010178917
0.0010201862
0.0010229448
0.0010261197
0.0010305803
0.0010328174
0.0010498692
0.0010044415
0.00099444938
0.00098471383
0.00097543471
0.0009667825
0.00095882845
0.00095155263
0.00094492457
0.0009389126
0.00093348413
0.0009286098
0.00092426396
0.00092042387
0.00091706928
0.00091418131
0.00091174124
0.0009097299
0.00090812764
0.00090691426
0.00090606912
0.00090557155
0.00090540106
0.00090553765
0.00090596227
0.00090665775
0.00090760937
0.00090880649
0.00091024265
0.00091191754
0.00091383604
0.00091601647
0.00091848134
0.00092128144
0.00092448313
0.00092806845
0.00093279679
0.00093555377
0.00095170917
0.00089523004
0.00088425086
0.00087375449
0.00086389998
0.00085486487
0.00084669105
0.00083933765
0.00083276504
0.00082693595
0.00082181495
0.00081737052
0.00081357322
0.00081039351
0.00080780052
0.00080576092
0.000804239
0.00080319744
0.00080259783
0.00080240189
0.00080257139
0.00080306967
0.00080386193
0.00080491577
0.00080620204
0.00080769588
0.00080937711
0.00081123188
0.0008132525
0.00081543759
0.00081779139
0.00082033349
0.00082308744
0.00082611109
0.00082946483
0.00083316597
0.00083787987
0.00084083596
0.00085605611
0.00078701662
0.00077499813
0.00076381344
0.00075353205
0.00074430578
0.00073613231
0.0007289559
0.0007227377
0.00071744196
0.00071303058
0.00070946123
0.00070668379
0.00070463982
0.00070326407
0.00070248656
0.00070223559
0.00070244143
0.00070303764
0.00070396203
0.00070515934
0.00070658231
0.00070819
0.00070994675
0.00071182146
0.00071378963
0.00071583415
0.00071794495
0.00072014176
0.00072241687
0.00072477103
0.00072722824
0.00072981835
0.00073261464
0.00073567616
0.0007390674
0.0007433748
0.00074607743
0.00076053897
0.00068050213
0.0006676633
0.00065594473
0.00064538816
0.0006361602
0.00062825013
0.00062161931
0.00061624013
0.00061206278
0.00060900784
0.00060696853
0.00060581652
0.00060541486
0.00060562753
0.00060632694
0.00060740019
0.00060875294
0.00061030838
0.00061200318
0.00061378679
0.00061563373
0.00061752091
0.00061940376
0.00062125201
0.00062305027
0.00062479604
0.00062643549
0.00062278289
0.00061928215
0.00061607565
0.00061325515
0.00061105953
0.0006093771
0.00060896569
0.00060841371
0.00061143722
0.0006095172
0.00061786215
0.00057758433
0.00056351759
0.00055105561
0.00054024839
0.00053130024
0.00052420907
0.00051893546
0.00051538004
0.0005133439
0.0005125589
0.0005127307
0.00051357839
0.00051486773
0.00051641607
0.00051808671
0.0005197835
0.00052145231
0.00052308079
0.00052462227
0.00052606098
0.0005244391
0.0005189148
0.00051339534
0.00050796743
0.00050269707
0.0004976249
0.00049280071
0.00048823759
0.00048395224
0.00048000319
0.00047643341
0.00047340191
0.00047085458
0.00046932273
0.0004679057
0.00046924432
0.00046733579
0.00047398172
0.0004906517
0.00047515639
0.00046207079
0.00045151917
0.00044378061
0.00043881289
0.00043632942
0.00043580569
0.00043658535
0.00043806687
0.0004398003
0.00044149887
0.00044301698
0.000444317
0.00044535739
0.00044612576
0.00044500711
0.00043856673
0.00043210433
0.00042575131
0.00041957948
0.00041358228
0.00040774039
0.00040205946
0.00039656193
0.00039128237
0.00038624348
0.00038155668
0.00037724709
0.00037334435
0.00036987066
0.00036691811
0.000364459
0.00036282329
0.00036147444
0.00036212912
0.00036084677
0.0003661553
0.00042373606
0.00040766496
0.00039471273
0.0003854559
0.00038024328
0.00037860042
0.00037945835
0.00038157952
0.00038394786
0.00038598256
0.00038747034
0.00038835595
0.00038871492
0.00038259039
0.00037465781
0.000366853
0.00035931994
0.00035205028
0.00034502974
0.00033826321
0.0003318201
0.00032577504
0.00032010383
0.0003147804
0.00030979138
0.00030513663
0.00030081912
0.00029686234
0.00029328914
0.00029012387
0.00028738716
0.00028513673
0.00028336417
0.00028226504
0.00028153687
0.00028223549
0.00028187384
0.0002864119
0.00036291386
0.00034621895
0.00033448795
0.00032865886
0.00032828793
0.00033125472
0.00033506204
0.00033808421
0.00033972331
0.00034007329
0.00033291991
0.00032340842
0.00031414766
0.00030521879
0.00029663218
0.00028842325
0.00028066443
0.0002734867
0.00026685433
0.00026072111
0.00025506304
0.0002498762
0.00024514915
0.00024086249
0.00023699464
0.00023352642
0.00023044246
0.00022773189
0.00022539101
0.00022342374
0.00022183426
0.00022065165
0.00021987367
0.00021961176
0.00021970271
0.00022077752
0.00022132685
0.00022520219
0.00030728624
0.00029122966
0.00028343048
0.00028451763
0.00029068622
0.00029684224
0.00030011532
0.00029858508
0.00028719528
0.00027585359
0.00026488641
0.00025443454
0.00024459934
0.00023558745
0.00022740412
0.00021998103
0.00021326446
0.00020723487
0.00020185878
0.00019708938
0.00019287612
0.00018917195
0.00018593557
0.00018312941
0.00018071883
0.00017867266
0.00017696422
0.00017557168
0.00017447843
0.00017367679
0.00017316198
0.00017294607
0.00017302715
0.00017347159
0.0001741859
0.00017557259
0.00017665542
0.00018004507
0.00025775747
0.00024428769
0.00024574074
0.00025693375
0.00026682422
0.00026772458
0.0002544325
0.00024073755
0.00022734264
0.0002147401
0.0002033593
0.00019326009
0.00018434254
0.00017653476
0.00016975562
0.00016390535
0.00015888078
0.00015458703
0.00015094083
0.00014786714
0.00014529738
0.00014316953
0.00014142914
0.00014002943
0.00013893064
0.00013809941
0.00013750844
0.00013713642
0.0001369673
0.00013699237
0.00013720742
0.00013761943
0.00013822959
0.00013908192
0.00014012207
0.00014163023
0.00014289383
0.00014599071
0.00021325242
0.00020965476
0.00022759378
0.00024524324
0.00023537095
0.00021918303
0.00020237568
0.00018647909
0.00017248501
0.00016047261
0.00015032702
0.00014184833
0.00013480503
0.00012898122
0.00012419221
0.00012027986
0.00011710744
0.00011455692
0.00011252834
0.00011093823
0.00010971716
0.00010880727
0.00010816046
0.0001077371
0.00010750496
0.00010743825
0.00010751692
0.00010772626
0.00010805624
0.00010850249
0.00010906439
0.00010974897
0.00011056274
0.00011153666
0.00011264451
0.00011408921
0.00011529254
0.0001182042
0.00017607052
0.00019595921
0.00022825832
0.0002119243
0.00019206688
0.0001712299
0.00015255638
0.00013699132
0.0001245144
0.0001146617
0.0001069121
0.00010082686
9.6060695e-05
9.2342632e-05
8.9459748e-05
8.7244421e-05
8.556425e-05
8.4314079e-05
8.3410154e-05
8.2785981e-05
8.2388984e-05
8.2177567e-05
8.2118733e-05
8.2186407e-05
8.2360204e-05
8.262449e-05
8.2967813e-05
8.3382515e-05
8.3864444e-05
8.4413379e-05
8.5032021e-05
8.5727762e-05
8.6511617e-05
8.7403423e-05
8.8400247e-05
8.9641638e-05
9.0641808e-05
9.3353467e-05
0.00015128399
0.00021452302
0.00019536626
0.00017200577
0.00014675501
0.00012450084
0.00010719046
9.4393044e-05
8.504507e-05
7.8195076e-05
7.3144484e-05
6.9405603e-05
6.6637163e-05
6.4595418e-05
6.3102738e-05
6.2028109e-05
6.1274321e-05
6.0768761e-05
6.045667e-05
6.0296563e-05
6.0256977e-05
6.0313917e-05
6.0448979e-05
6.0648106e-05
6.0900726e-05
6.1199097e-05
6.1538026e-05
6.1914549e-05
6.2328214e-05
6.2780915e-05
6.3277702e-05
6.3824765e-05
6.4435008e-05
6.5117114e-05
6.5886979e-05
6.6823607e-05
6.7543147e-05
6.9900129e-05
0.00015039811
0.0001813984
0.00015759784
0.00012804455
0.00010163982
8.2220321e-05
6.910603e-05
6.038641e-05
5.4509222e-05
5.0472968e-05
4.7657814e-05
4.5673738e-05
4.4268634e-05
4.3275271e-05
4.2579914e-05
4.2103644e-05
4.1790915e-05
4.1602029e-05
4.1508116e-05
4.1487986e-05
4.152602e-05
4.1610564e-05
4.173283e-05
4.1886245e-05
4.2066018e-05
4.2268791e-05
4.2492559e-05
4.2736413e-05
4.3001542e-05
4.329e-05
4.3607081e-05
4.3956216e-05
4.4349683e-05
4.4785369e-05
4.5293092e-05
4.5891296e-05
4.6330472e-05
4.814462e-05
0.00015440689
0.00014361081
0.00011390997
8.3300416e-05
6.1285177e-05
4.7799136e-05
3.9649042e-05
3.4548581e-05
3.1175839e-05
2.8846454e-05
2.7193712e-05
2.6005435e-05
2.5149047e-05
2.4536234e-05
2.4105142e-05
2.381107e-05
2.3621219e-05
2.3511215e-05
2.3462723e-05
2.3461969e-05
2.3498642e-05
2.3564957e-05