0.3982523954 	0.01739936701 	-0.002095764482 	3.332874114e-05
0.3982523954 	0.01739936701 	-0.002095764482 	3.332874114e-05
0.3994377339 	0.1003193268 	-0.01485377447 	0.000112059865
0.4006231409 	0.2602817252 	-0.04036988357 	0.0001849053603
0.4018085007 	0.4502606708 	-0.06986688103 	0.000215136043
0.4029936986 	0.6309039647 	-0.09705583433 	0.0002143432355
0.4041786207 	0.8088213322 	-0.1229427844 	0.0001956390235
0.4060019699 	1.004174046 	-0.1502353117 	0.0001597756222
0.4080604285 	1.202132662 	-0.1765259771 	0.000107071087
0.4103833753 	1.389905572 	-0.2000865628 	4.399933123e-05
0.4130209671 	1.566709135 	-0.2208693476 	-2.488990858e-05
0.4160013668 	1.730281329 	-0.238683474 	-9.389057376e-05
0.4193641481 	1.878684085 	-0.2534235803 	-0.0001569883118
0.423157894 	2.011892473 	-0.2651977622 	-0.0002092636614
0.4274660238 	2.131467795 	-0.2742791101 	-0.000247648463
0.432326175 	2.239883188 	-0.281024419 	-0.000272137102
0.4378190673 	2.349831388 	-0.2863223828 	-0.0002896316933
0.4461325613 	2.469204561 	-0.2903697921 	-0.0003149406588
0.455048941 	2.583718897 	-0.2921794132 	-0.0003491931087
0.46460301 	2.681110356 	-0.2910926959 	-0.0003834974639
0.4748437118 	2.760363372 	-0.2873941107 	-0.0004084644148
0.4858216947 	2.823129721 	-0.2814937067 	-0.0004159043627
0.497589651 	2.869823863 	-0.273492885 	-0.000405327692
0.5102027201 	2.904274208 	-0.2639900626 	-0.0003903140252
0.5237189542 	2.929689633 	-0.2535198428 	-0.0003821345204
0.5381998521 	2.945837119 	-0.2420360613 	-0.0003753401491
0.5537109596 	2.95389351 	-0.2296315581 	-0.0003568034867
0.570323245 	2.956001637 	-0.2168038273 	-0.0003290081238
0.588119929 	2.954704955 	-0.2038248132 	-0.0002943231939
0.6071750317 	2.95156138 	-0.190688689 	-0.0002619849218
0.6275820376 	2.946154178 	-0.1775452971 	-0.0002348492554
0.6494344704 	2.935010066 	-0.1640947444 	-0.0002129540012
0.6728352312 	2.916955232 	-0.1500132656 	-0.0001893801921
0.6978966025 	2.899508919 	-0.1364615319 	-0.0001620070434
0.7229590561 	2.885013161 	-0.1244096014 	-0.0001380974918
0.7463631701 	2.867673377 	-0.1134078754 	-0.0001150650981
0.7682214995 	2.845832684 	-0.1032995906 	-9.799573889e-05
0.7886381734 	2.82188511 	-0.09420049988 	-8.522513182e-05
0.8077096611 	2.797797094 	-0.08602773466 	-7.458811775e-05
0.8255255342 	2.773568637 	-0.07866455931 	-6.541343188e-05
0.8421687484 	2.748298091 	-0.07197032891 	-5.735661525e-05
0.8577166818 	2.720637815 	-0.06581031065 	-5.031020962e-05
0.8722413334 	2.688853945 	-0.06005607465 	-4.403048639e-05
0.8858098685 	2.651160261 	-0.05461596369 	-3.838926922e-05
0.8984849828 	2.606002688 	-0.04942825058 	-3.332986245e-05
0.9103252262 	2.552176407 	-0.04444539783 	-2.868464579e-05
0.9213853035 	2.488896686 	-0.03964062022 	-2.43584166e-05
0.9317163424 	2.415621942 	-0.03499852963 	-2.029638939e-05
0.9413661361 	2.331654196 	-0.0305056846 	-1.645300286e-05
0.9503793651 	2.235651144 	-0.02614208273 	-1.277452886e-05
0.9587978034 	2.13353545 	-0.02217295546 	-9.460665718e-06
0.9643701856 	2.03767385 	-0.01893517015 	-6.740908978e-06
0.9693034113 	1.945323238 	-0.01619556658 	-4.474684246e-06
0.9736706736 	1.848113977 	-0.0136630114 	-2.438588912e-06
0.9775368093 	1.745527762 	-0.01133069555 	-6.950574065e-07
0.9809592473 	1.637154802 	-0.009201222528 	6.873882514e-07
0.983988851 	1.522527594 	-0.007284697532 	1.654474662e-06
0.9866706657 	1.400766864 	-0.005595081891 	2.190173179e-06
0.9890445811 	1.269973215 	-0.004143609078 	2.324625915e-06
0.9911459193 	1.126292068 	-0.002924790697 	2.118537313e-06
0.9930059564 	0.9736836102 	-0.001976458886 	1.702350096e-06
0.9942142764 	0.8209421511 	-0.001208070065 	1.291101998e-06
0.995422663 	0.6466124682 	-0.000582474079 	9.482969376e-07
0.996631116 	0.4317077145 	-0.000364829077 	4.980785068e-07
0.9978396355 	0.2053080972 	-0.000411213681 	-3.939379924e-08
0.9990482216 	0.05374365654 	-0.0002386360939 	-1.645434503e-07
