0.2158351985 	0.3059484184 	0.1120252839 	-0.001047416818
0.2158351985 	0.3059484184 	0.1120252839 	-0.001047416818
0.2173898312 	1.119059703 	0.403380655 	-0.003368696045
0.218944359 	1.912162642 	0.6776790762 	-0.004705943671
0.2204983132 	2.314820021 	0.8072693351 	-0.004545502451
0.22205123 	2.47950486 	0.8530589917 	-0.004108454137
0.2236026504 	2.546047495 	0.8651051416 	-0.003751292532
0.2259870383 	2.576026886 	0.862766154 	-0.00339353173
0.2286733807 	2.589461909 	0.8529556247 	-0.003045641748
0.2316959752 	2.597281113 	0.8399038041 	-0.002685921142
0.2350910569 	2.602845012 	0.8244704013 	-0.002315690116
0.2389916993 	2.607156616 	0.8067611991 	-0.001932948007
0.2434078721 	2.610596498 	0.7870825428 	-0.001547572611
0.2483623539 	2.613511839 	0.7657137628 	-0.001167044359
0.2539168455 	2.616175783 	0.7427906053 	-0.0007961954639
0.2602735202 	2.618732064 	0.7182813952 	-0.0004366902474
0.2674522301 	2.620974134 	0.6898209166 	-0.0001029358782
0.2701019815 	2.621701403 	0.6813296212 	-0.0005651750831
0.277968411 	2.621338452 	0.6552358285 	-0.00026545526
0.2892151638 	2.620230393 	0.6184558552 	-0.0005543598594
0.3013211162 	2.618718791 	0.5822501796 	-0.0007677255655
0.3143027377 	2.616778735 	0.5467268996 	-0.0009056609479
0.3282678633 	2.614324459 	0.5119835894 	-0.0009724068041
0.3433513408 	2.61118271 	0.4781055843 	-0.0009744360727
0.359565347 	2.607168998 	0.4452268564 	-0.0008735639367
0.3770029629 	2.602066607 	0.4134352757 	-0.0005728057064
0.3957533827 	2.595650234 	0.3827341649 	-0.0003487055048
0.4159554384 	2.587718882 	0.3531055642 	-0.0001911578826
0.4376602607 	2.578086095 	0.3245789753 	-8.935275597e-05
0.4609443107 	2.56662736 	0.2971379479 	-3.109066516e-05
0.4859777749 	2.553214855 	0.2707396782 	-4.342612321e-06
0.5128005118 	2.537726119 	0.2453719103 	1.754109467e-06
0.5281619985 	2.528255895 	0.2323608433 	-0.00073706225
0.5414840545 	2.519960624 	0.2208362568 	-3.414855365e-06
0.5721687136 	2.499552601 	0.1971792557 	-3.887385709e-06
0.6050359512 	2.476335382 	0.174887491 	-2.883001327e-08
0.637884791 	2.451209051 	0.1548215693 	4.254980298e-06
0.6685342863 	2.425425242 	0.1374694285 	7.068970862e-06
0.6971361319 	2.39942934 	0.1224839532 	8.295923366e-06
0.7238334956 	2.373227209 	0.1093853766 	8.304316028e-06
0.7487597886 	2.346843183 	0.09782857648 	7.514528322e-06
0.7720389899 	2.320277742 	0.08754475914 	6.302849552e-06
0.7937834623 	2.293499739 	0.07832641602 	4.936565607e-06
0.8140976249 	2.266463935 	0.07001036258 	3.588880765e-06
0.8330771917 	2.239115384 	0.06246669512 	2.366264462e-06
0.8508109857 	2.211382082 	0.05558984362 	1.325170753e-06
0.8673812119 	2.183160737 	0.04929333771 	4.884371036e-07
0.8789729725 	2.1615499 	0.04495880032 	-7.1702655e-05
0.8828624254 	2.154310405 	0.04350094851 	3.172657197e-07
0.897323651 	2.124619289 	0.03814648114 	1.31492085e-06
0.9108370337 	2.093677912 	0.03319038805 	1.964196445e-06
0.9234642351 	2.060897504 	0.0285863375 	2.315624674e-06
0.9352628795 	2.02533279 	0.02429235185 	2.411921227e-06
0.9462868468 	1.988472965 	0.0205443347 	2.333020118e-06
0.9535860031 	1.953970085 	0.01760935986 	2.100171509e-06
0.9600493528 	1.92003303 	0.01520888994 	1.845658715e-06
0.9657723032 	1.882888704 	0.01305094615 	1.55078348e-06
0.9708394384 	1.841424586 	0.01110240017 	1.233826636e-06
0.9753257253 	1.794306613 	0.009334078863 	9.10749244e-07
0.9792976023 	1.739726348 	0.007721896566 	5.971836324e-07
0.9828139396 	1.674938682 	0.006245944054 	3.09089615e-07
0.9859268946 	1.595461152 	0.004889986652 	6.255869242e-08
0.9886826718 	1.493753932 	0.003651117279 	-1.263925393e-07
0.9911221987 	1.36712355 	0.00261077476 	-2.236795778e-07
0.9927070693 	1.221303713 	0.001871317092 	-2.347265833e-07
0.9942921068 	1.031509115 	0.001329632169 	-2.305531693e-07
0.9958773114 	0.7594545703 	0.0006470240281 	-1.869100165e-07
0.997462683 	0.4076718515 	-0.000210121978 	-1.611406095e-07
0.9990482216 	0.1200991773 	-0.0003565222279 	-1.030408844e-07
