0.4709460472 	0.1020910289 	4.295522598e-05 	-7.988301442e-07
0.4709460472 	0.1020910289 	4.295522598e-05 	-7.988301442e-07
0.4719924022 	0.3917305355 	6.742339353e-06 	-2.726925946e-06
0.4730387601 	0.7639112171 	-0.000324450201 	-5.078393135e-06
0.4740851209 	1.080223046 	-0.0005910044516 	-7.264408488e-06
0.4751314845 	1.320486765 	-0.0005655569033 	-9.063563323e-06
0.4761778509 	1.520020872 	-0.0005749615658 	-1.062923413e-05
0.4777887022 	1.707343493 	-0.0006817623247 	-1.220528818e-05
0.4796086996 	1.87140434 	-0.000802304255 	-1.37204018e-05
0.4816649984 	2.010665896 	-0.000913274348 	-1.513352373e-05
0.4839898925 	2.133101285 	-0.001007362927 	-1.648406752e-05
0.4866170339 	2.243806269 	-0.001088261195 	-1.779747395e-05
0.4895852754 	2.346158167 	-0.001157698879 	-1.908929396e-05
0.492938906 	2.442488805 	-0.00121563179 	-2.037432495e-05
0.4967307534 	2.534394492 	-0.001260964663 	-2.166228793e-05
0.5010150927 	2.622889386 	-0.001291128963 	-2.295538359e-05
0.5058569357 	2.716045072 	-0.001299603201 	-2.43476022e-05
0.5131774231 	2.815338123 	-0.001272986032 	-2.592451872e-05
0.5210221424 	2.905854654 	-0.001221677028 	-2.747475555e-05
0.5294278369 	2.978151787 	-0.001170216737 	-2.888707682e-05
0.5384349972 	3.031983312 	-0.001118307551 	-3.006470718e-05
0.5480868191 	3.070188714 	-0.001084664333 	-3.089485492e-05
0.5584294125 	3.096202861 	-0.001090218869 	-3.147378388e-05
0.5695120252 	3.112409051 	-0.001125207642 	-3.187936238e-05
0.5813872839 	3.121120661 	-0.001187982824 	-3.213475687e-05
0.5941114518 	3.124480115 	-0.00127574469 	-3.229347464e-05
0.6077447052 	3.123983893 	-0.001378036826 	-3.233642864e-05
0.6223514991 	3.120569194 	-0.001489991222 	-3.22470654e-05
0.6380015177 	3.114789442 	-0.001607972291 	-3.202622719e-05
0.6547677711 	3.106945253 	-0.001730453784 	-3.17582047e-05
0.6727297628 	3.097183425 	-0.001855506539 	-3.143493023e-05
0.6919718284 	3.085490672 	-0.001979337734 	-3.082159212e-05
0.7125844168 	3.071664569 	-0.002098995848 	-2.948679661e-05
0.7346644336 	3.055662927 	-0.00220648255 	-2.741357597e-05
0.756746148 	3.038173659 	-0.00230350886 	-2.511271617e-05
0.7773635624 	3.02013044 	-0.002392342691 	-2.300256893e-05
0.7966134053 	3.001653178 	-0.0024683934 	-2.122910922e-05
0.814586177 	2.982325607 	-0.002521234037 	-1.963131503e-05
0.8313664872 	2.961972901 	-0.002534581303 	-1.81276723e-05
0.8470333997 	2.940571158 	-0.002510711315 	-1.67339638e-05
0.8616607424 	2.917887696 	-0.002462156874 	-1.540141343e-05
0.8753174814 	2.893419717 	-0.002396772938 	-1.412962179e-05
0.8880680093 	2.866319256 	-0.002312533891 	-1.291237969e-05
0.8999724522 	2.835186657 	-0.002205062014 	-1.174151746e-05
0.9110869503 	2.798210353 	-0.002071255943 	-1.061672112e-05
0.9214639198 	2.753759572 	-0.00190728693 	-9.540698555e-06
0.9311522995 	2.700715182 	-0.001716580424 	-8.527568491e-06
0.9401977815 	2.638370459 	-0.001509333275 	-7.575416271e-06
0.9486430259 	2.566169321 	-0.001296963005 	-6.675909762e-06
0.9565278625 	2.483327004 	-0.001089120402 	-5.823380299e-06
0.9638894781 	2.395570789 	-0.0009061225073 	-5.059150434e-06
0.9687607812 	2.31392377 	-0.0007653419004 	-4.437084847e-06
0.9730723166 	2.236111409 	-0.0006539603852 	-3.911059837e-06
0.9768884077 	2.154801054 	-0.0005572063011 	-3.42525689e-06
0.9802659863 	2.068908168 	-0.0004726897133 	-2.972596397e-06
0.9832554423 	1.976882094 	-0.0003983798909 	-2.54773092e-06
0.9859013753 	1.876510994 	-0.0003331750815 	-2.147101613e-06
0.98824326 	1.764603566 	-0.0002785504134 	-1.768511492e-06
0.990316035 	1.636444344 	-0.0002377766637 	-1.411059772e-06
0.9921506239 	1.484905645 	-0.0002003020071 	-1.07562777e-06
0.9937743971 	1.311945065 	-0.0001494652977 	-7.835389251e-07
0.9948291616 	1.12889298 	-1.8090674e-05 	-5.50220145e-07
0.9958839263 	0.9126912408 	0.0001100301878 	-3.528426602e-07
0.9969386912 	0.6369641281 	-1.597511714e-05 	-1.832114093e-07
0.9979934563 	0.3232362048 	-0.000140311273 	-5.772850801e-08
0.9990482216 	0.09125144847 	-6.316726702e-05 	-4.356901143e-09
