0.2638980281 	1.927933855e-07 	4.907628241e-10 	3.627339449e-12 	1.915143474e-07 	1.509719138e-09 	3.650795748e-10
0.2638980281 	1.927933855e-07 	4.907628241e-10 	3.627339449e-12 	1.915143474e-07 	1.509719138e-09 	3.650795748e-10
0.2654533431 	2.296500218e-05 	5.01150098e-07 	4.690255168e-09 	2.1973702e-05 	1.904749937e-07 	4.188798328e-08
0.2670087167 	0.0003123709848 	1.734107679e-05 	1.791685602e-07 	0.0002784403811 	2.448189737e-06 	5.307847548e-07
0.2685638061 	0.001398040086 	9.614367043e-05 	1.02102119e-06 	0.001207961951 	9.674863536e-06 	2.302711214e-06
0.2701182719 	0.003213995927 	0.0001666482723 	2.325917278e-06 	0.00286392489 	1.969597522e-05 	5.459436826e-06
0.2716717782 	0.005260796802 	4.487188246e-05 	4.000119987e-06 	0.005041026038 	2.866176162e-05 	9.609596709e-06
0.2740607069 	0.007298553931 	-0.0003927351706 	6.627076636e-06 	0.007634173279 	3.611429155e-05 	1.455285608e-05
0.2767546051 	0.009217917458 	-0.001102008635 	1.025779266e-05 	0.01038196001 	4.159455545e-05 	1.979090129e-05
0.2797895793 	0.01109156855 	-0.002006521478 	1.530713295e-05 	0.01316128011 	4.448047639e-05 	2.508905788e-05
0.2832304115 	0.01307129032 	-0.003073125192 	1.975011137e-05 	0.01605996293 	4.447942859e-05 	3.061475298e-05
0.287111948 	0.01531597089 	-0.004313903749 	2.23785799e-05 	0.01920675587 	3.96095504e-05 	3.661341493e-05
0.2914829797 	0.0179614513 	-0.005874847958 	2.496531383e-05 	0.02279875125 	2.763296224e-05 	4.346075646e-05
0.2964036899 	0.02113619195 	-0.007547288762 	2.782917539e-05 	0.02688185442 	1.003903002e-05 	5.124428596e-05
0.3019811527 	0.02504213343 	-0.009344466966 	2.917170847e-05 	0.03166637109 	-8.407999392e-06 	6.03649045e-05
0.3082566829 	0.02978603132 	-0.01161226375 	2.617970508e-05 	0.03737186972 	-1.948652768e-05 	7.124117067e-05
0.3153299793 	0.03570462763 	-0.01437914257 	2.662880803e-05 	0.0442231197 	-1.122368643e-05 	8.430155733e-05
0.3259983069 	0.04244978649 	-0.01779611845 	1.759034479e-05 	0.05182170819 	5.89325451e-05 	9.878657892e-05
0.3373926531 	0.0476481356 	-0.02129992373 	-2.475039912e-05 	0.05745534586 	0.0002055007063 	0.0001095258581
0.3495488673 	0.04877833662 	-0.02343915771 	-0.0001060311596 	0.05799092482 	0.0003845022836 	0.0001105468205
0.3625213994 	0.0446252421 	-0.02249981359 	-0.0001956687922 	0.05194332566 	0.0005173036479 	9.90184156e-05
0.3763660986 	0.03592048927 	-0.01827817825 	-0.0002366259439 	0.04066894963 	0.0005399698731 	7.752632134e-05
0.391140701 	0.02511247828 	-0.01244902824 	-0.0002037850848 	0.02753506303 	0.0004407722063 	5.248948311e-05
0.4069054432 	0.01606314927 	-0.007239578085 	-0.0001241170066 	0.01675249499 	0.0002596210092 	3.193491156e-05
0.423723814 	0.01096407459 	-0.004070398562 	-5.308024764e-05 	0.0107229731 	9.060388934e-05 	2.044096702e-05
0.4416634491 	0.009675508825 	-0.002549961472 	-1.388756275e-06 	0.008738117958 	-2.136073799e-05 	1.665728146e-05
0.4607971748 	0.01004757032 	-0.00234566596 	1.525091207e-05 	0.008879665571 	-3.518065674e-05 	1.692711055e-05
0.4812051392 	0.009391998371 	-0.002319639452 	4.638640474e-06 	0.008283342733 	4.467455491e-06 	1.579035348e-05
0.5029838614 	0.008464056102 	-0.001594027959 	-4.760747156e-06 	0.006783771252 	1.549062379e-05 	1.293175346e-05
0.5262183068 	0.008312463277 	-0.0009939062849 	-4.93162695e-06 	0.006192045318 	4.635102934e-06 	1.180375937e-05
0.5510200772 	0.008643067547 	-0.0007954849346 	1.403286411e-06 	0.006537235384 	5.540509633e-06 	1.246178757e-05
0.5775021918 	0.009235266399 	-2.05725589e-05 	9.892294217e-07 	0.006916067225 	1.181770941e-05 	1.318394635e-05
0.6057914839 	0.009790049387 	0.0008480710245 	-1.09782154e-05 	0.007166172868 	1.171591534e-05 	1.366071722e-05
0.636028988 	0.01021570706 	0.0004968689354 	-1.130516271e-05 	0.007845881155 	4.570188248e-06 	1.495643013e-05
0.6662252001 	0.01097462747 	0.0001688193484 	2.013781766e-06 	0.008581135095 	-3.874520442e-06 	1.635802849e-05
0.6943993079 	0.0117309791 	0.0009567606434 	6.77402604e-06 	0.008700640236 	-3.902241465e-06 	1.658583851e-05
0.7207016499 	0.01233961724 	0.00195785434 	5.311258853e-06 	0.008767964825 	-1.935729017e-06 	1.671417789e-05
0.7452665078 	0.01292284224 	0.002714673622 	2.919404972e-06 	0.009041927222 	-7.250081651e-07 	1.723642636e-05
0.768215059 	0.01340919973 	0.003208167834 	1.380146781e-06 	0.009468598685 	-2.429847887e-07 	1.804978075e-05
0.7896577441 	0.01381421977 	0.003545391256 	7.278839958e-07 	0.009977848571 	-1.765008604e-07 	1.902055258e-05
0.8096954208 	0.01421856058 	0.00384329331 	3.30809661e-07 	0.01056278095 	-3.590193459e-07 	2.013559626e-05
0.8284213407 	0.01471683786 	0.004216037248 	-2.250126619e-07 	0.01124455018 	-7.296865177e-07 	2.143523791e-05
0.8459217018 	0.01532177609 	0.004646097495 	-6.553706354e-07 	0.0120790689 	-1.324183469e-06 	2.302606252e-05
0.8622766275 	0.01604769808 	0.005074410899 	-8.596638377e-07 	0.01310850009 	-2.002881922e-06 	2.498844449e-05
0.8775607399 	0.01697848292 	0.005536620627 	-1.026543065e-06 	0.01432372812 	-2.5171272e-06 	2.730500686e-05
0.8918436525 	0.01813660342 	0.006048021187 	-1.097375695e-06 	0.01569922559 	-2.745764883e-06 	2.992708735e-05
0.9051903915 	0.01947654762 	0.006598657818 	-1.032502503e-06 	0.01719327942 	-2.588805792e-06 	3.27751692e-05
0.9176617495 	0.02092518678 	0.007171496043 	-8.079355806e-07 	0.01875307901 	-1.997446069e-06 	3.574858073e-05
0.929314591 	0.02241352079 	0.007748891935 	-4.273148433e-07 	0.0203294634 	-9.909403526e-07 	3.875360752e-05
0.9402021232 	0.02388380624 	0.008314697567 	8.604468852e-08 	0.02187949372 	3.648647656e-07 	4.170839612e-05
0.950374142 	0.02516973991 	0.008809260732 	6.423374073e-07 	0.02324045013 	1.833672133e-06 	4.43027573e-05
0.957108839 	0.02612167492 	0.009178462093 	1.120824028e-06 	0.02426465176 	3.095501407e-06 	4.625517026e-05
0.963072106 	0.02677911443 	0.009440007518 	1.473479135e-06 	0.02500222565 	4.028466979e-06 	4.76611911e-05
0.9683520561 	0.02713661364 	0.009594271833 	1.665893444e-06 	0.02545619898 	4.541490515e-06 	4.852659045e-05
0.9730267922 	0.0270941994 	0.009605544598 	1.641760562e-06 	0.0255306891 	4.48344053e-06 	4.866858931e-05
0.9771655318 	0.02657141816 	0.009444633443 	1.402520786e-06 	0.02514645489 	3.853119446e-06 	4.793613212e-05
0.98082961 	0.02552216116 	0.009094260611 	1.023445898e-06 	0.02425539374 	2.844924504e-06 	4.623752191e-05
0.9840733699 	0.02392622523 	0.00854606953 	6.372943017e-07 	0.02283258156 	1.808514014e-06 	4.352524644e-05
0.9869449531 	0.02175155021 	0.007787004318 	3.985242168e-07 	0.02083964825 	1.155875058e-06 	3.972616164e-05
0.9894870034 	0.01888017745 	0.006772952835 	4.531091626e-07 	0.01815409792 	1.282895321e-06 	3.46067563e-05
0.9917372914 	0.0152793994 	0.005490525591 	8.223237122e-07 	0.01473007472 	2.29032893e-06 	2.807961643e-05
0.9931992005 	0.01120435992 	0.004031894794 	1.343355456e-06 	0.01081871442 	3.626786044e-06 	2.06234766e-05
0.9946612482 	0.006218627807 	0.002097956992 	1.475823018e-06 	0.006038984204 	3.846206889e-06 	1.151198234e-05
0.9961234342 	0.001816071057 	0.0004730975491 	6.92480688e-07 	0.001788533051 	1.854581414e-06 	3.409441092e-06
0.9975857587 	0.0001472023565 	1.334364176e-05 	2.139768254e-08 	0.0001467684693 	1.345280322e-07 	2.797814947e-07
0.9990482216 	1.406233279e-06 	1.097145347e-08 	4.191771705e-12 	1.403496928e-06 	6.032271457e-11 	2.675455226e-09
