0.4709460472 	3.165146673e-06 	-5.034972768e-08 	1.987206831e-12 	3.159058283e-06 	-1.85932787e-10 	6.022043101e-09
0.4709460472 	3.165146673e-06 	-5.034972768e-08 	1.987206831e-12 	3.159058283e-06 	-1.85932787e-10 	6.022043101e-09
0.4719924022 	0.0002603482166 	-3.424650031e-05 	5.473983268e-09 	0.0002593244596 	-3.286422996e-08 	4.943444955e-07
0.4730387601 	0.002776762308 	-0.0008468070273 	1.430952324e-07 	0.002721380772 	-3.730958481e-07 	5.187708121e-06
0.4740851209 	0.008680487639 	-0.003037729899 	3.533888362e-07 	0.008443719286 	-8.839096727e-07 	1.609607577e-05
0.4751314845 	0.01495853836 	-0.005439018237 	4.74077916e-07 	0.01451669236 	-1.12189316e-06 	2.767285034e-05
0.4761778509 	0.01977025618 	-0.007176139147 	4.764850933e-07 	0.01919207173 	-1.111910963e-06 	3.658542288e-05
0.4777887022 	0.02334225142 	-0.008424550602 	4.171431795e-07 	0.02266630294 	-9.98282433e-07 	4.320827318e-05
0.4796086996 	0.02547964613 	-0.009191611286 	3.635865362e-07 	0.02474496371 	-8.259319013e-07 	4.717077835e-05
0.4816649984 	0.02657575756 	-0.009586794423 	2.877643791e-07 	0.0258105809 	-6.027901693e-07 	4.920214087e-05
0.4839898925 	0.02703213181 	-0.00975132411 	2.00628369e-07 	0.02625348206 	-3.539221219e-07 	5.004643358e-05
0.4866170339 	0.02704516309 	-0.009755870559 	1.047212357e-07 	0.02626500972 	-8.571091926e-08 	5.006840852e-05
0.4895852754 	0.02671136106 	-0.00963516133 	3.154562404e-09 	0.02593873874 	1.935380673e-07 	4.944644533e-05
0.492938906 	0.02607395657 	-0.009404750693 	-1.001667215e-07 	0.02531653436 	4.733658399e-07 	4.826035086e-05
0.4967307534 	0.02514458344 	-0.009068809897 	-2.02629703e-07 	0.02440960828 	7.466424206e-07 	4.653149768e-05
0.5010150927 	0.02391444125 	-0.008624099961 	-3.115835767e-07 	0.02320921082 	1.033083948e-06 	4.424320649e-05
0.5058569357 	0.02220542235 	-0.008006324224 	-4.588089889e-07 	0.02154209252 	1.418272502e-06 	4.106521566e-05
0.5131774231 	0.01980003999 	-0.007137572332 	-6.867954693e-07 	0.01919930535 	2.019133962e-06 	3.659921217e-05
0.5210221424 	0.01696785714 	-0.00611588706 	-9.225955113e-07 	0.01644644311 	2.641099506e-06 	3.135149162e-05
0.5294278369 	0.01426230779 	-0.005140693176 	-9.775576384e-07 	0.01382039083 	2.770414246e-06 	2.634550609e-05
0.5384349972 	0.0120054215 	-0.004227336507 	-1.153258028e-06 	0.01165397744 	2.351596969e-06 	2.221572005e-05
0.5480868191 	0.01026116578 	-0.003252470684 	-1.074656872e-06 	0.01003209829 	1.596986211e-06 	1.912396762e-05
0.5584294125 	0.009053473137 	-0.002333716102 	-5.7793041e-07 	0.008940229576 	6.987572152e-07 	1.704256238e-05
0.5695120252 	0.008368313346 	-0.001558906573 	-2.345248906e-07 	0.008334584178 	-1.161754422e-08 	1.588803392e-05
0.5813872839 	0.008086825097 	-0.0008438532649 	4.399681763e-08 	0.008107454308 	-4.139500997e-07 	1.545506126e-05
0.5941114518 	0.008089871097 	-0.0001890621534 	2.282376124e-07 	0.008143224601 	-5.811919988e-07 	1.552324938e-05
0.6077447052 	0.008280487502 	0.0004084520388 	2.942097289e-07 	0.008349833104 	-6.188176968e-07 	1.591710261e-05
0.6223514991 	0.008591780473 	0.0009574398528 	2.593640582e-07 	0.008662760848 	-5.834551979e-07 	1.651362987e-05
0.6380015177 	0.008979506103 	0.001464755796 	8.22011108e-08 	0.009037308648 	-5.133528908e-07 	1.722762207e-05
0.6547677711 	0.009412217736 	0.0019329006 	-4.177778206e-07 	0.009442283288 	-4.845222012e-07 	1.799961629e-05
0.6727297628 	0.009863746664 	0.002363667422 	-1.356008816e-06 	0.009854450979 	-6.607586053e-07 	1.878532247e-05
0.6919718284 	0.01030010024 	0.002733404752 	-2.220079661e-06 	0.01025202533 	-1.173770016e-06 	1.954320968e-05
0.7125844168 	0.01070952911 	0.003073430397 	-2.1085167e-06 	0.01062863872 	-1.802629795e-06 	2.026113948e-05
0.7346644336 	0.01108754629 	0.00337718607 	-1.029474071e-06 	0.0109766294 	-2.107242381e-06 	2.092450643e-05
0.756746148 	0.01142517167 	0.003608434957 	3.072135283e-07 	0.01128193283 	-1.993317149e-06 	2.150649962e-05
0.7773635624 	0.01171678035 	0.003761635676 	1.901501544e-07 	0.01154362993 	-1.773725254e-06 	2.200536704e-05
0.7966134053 	0.01196516112 	0.00381950434 	-5.024984177e-07 	0.01177144534 	-1.484426041e-06 	2.243964652e-05
0.814586177 	0.01222148627 	0.003891779684 	-3.612426628e-07 	0.01199561346 	-1.125125365e-06 	2.286697326e-05
0.8313664872 	0.01252282456 	0.00405900309 	-2.605490281e-07 	0.0122469827 	-8.714510893e-07 	2.334615289e-05
0.8470333997 	0.01287253854 	0.004287744418 	-1.873973852e-07 	0.0125447209 	-6.938849812e-07 	2.391372465e-05
0.8616607424 	0.01328296168 	0.004545375596 	-1.175023702e-07 	0.01290648971 	-5.236414849e-07 	2.460335656e-05
0.8753174814 	0.01377905045 	0.004830808034 	-3.573279986e-08 	0.01335323996 	-3.093048041e-07 	2.545498671e-05
0.8880680093 	0.01438477108 	0.005135665203 	6.311006843e-08 	0.01390950238 	-4.119615738e-08 	2.651537748e-05
0.8999724522 	0.01512134525 	0.005433394655 	1.752907684e-07 	0.01460487346 	2.681207857e-07 	2.784094803e-05
0.9110869503 	0.01602674366 	0.005758869512 	2.905643331e-07 	0.01547319228 	5.957917047e-07 	2.949620504e-05
0.9214639198 	0.01711558278 	0.006150773577 	3.930312508e-07 	0.01652235118 	8.919551231e-07 	3.149619351e-05
0.9311522995 	0.01834753051 	0.00659492542 	4.580583244e-07 	0.01771460214 	1.084367112e-06 	3.37689552e-05
0.9401977815 	0.01964960364 	0.007065143634 	4.704514594e-07 	0.01897942251 	1.130820501e-06 	3.618005437e-05
0.9486430259 	0.02093371929 	0.007529582342 	4.331773542e-07 	0.02023073576 	1.041262933e-06 	3.85654052e-05
0.9565278625 	0.02211002502 	0.007955677094 	3.609078366e-07 	0.02138040569 	8.567013515e-07 	4.075699561e-05
0.9638894781 	0.02302978421 	0.008289420771 	2.779799502e-07 	0.02228221184 	6.423644666e-07 	4.24760888e-05
0.9687607812 	0.02363036345 	0.008507852831 	2.08576979e-07 	0.02287348944 	4.633676094e-07 	4.360322823e-05
0.9730723166 	0.02401255877 	0.008647314136 	1.543707108e-07 	0.02325191512 	3.253854784e-07 	4.432461275e-05
0.9768884077 	0.02423090814 	0.008727546232 	1.10893626e-07 	0.02347071426 	2.167417979e-07 	4.474170473e-05
0.9802659863 	0.02427305893 	0.008744092654 	7.747480017e-08 	0.02351785636 	1.355264644e-07 	4.483157068e-05
0.9832554423 	0.0241105223 	0.008686713002 	5.228475174e-08 	0.02336580845 	7.687422235e-08 	4.454172509e-05
0.9859013753 	0.02368768837 	0.008535439582 	3.273226136e-08 	0.02296090782 	3.382106866e-08 	4.376987196e-05
0.98824326 	0.02290161712 	0.008253261322 	1.5942958e-08 	0.02220349849 	-1.439650034e-09 	4.232603926e-05
0.990316035 	0.02155993745 	0.007771012494 	-5.68593911e-10 	0.02090607496 	-3.580490885e-08 	3.985278941e-05
0.9921506239 	0.0193149546 	0.006967658583 	-1.832119078e-08 	0.01873053504 	-7.385818548e-08 	3.570560568e-05
0.9937743971 	0.01587561028 	0.005741655411 	-3.123404015e-08 	0.01539344942 	-1.046243385e-07 	2.934419299e-05
0.9948291616 	0.01153169659 	0.004171202104 	-3.788378092e-08 	0.01118031578 	-1.155521819e-07 	2.131278929e-05
0.9958839263 	0.006285325147 	0.002160971069 	-3.826454441e-08 	0.006114826565 	-9.925193691e-08 	1.165655896e-05
0.9969386912 	0.001837728429 	0.0005166807529 	-1.90340329e-08 	0.001806728997 	-4.719494075e-08 	3.444127623e-06
0.9979934563 	0.0001659292399 	1.862692422e-05 	-1.243833386e-09 	0.000165348043 	-6.091094323e-09 	3.15199326e-07
0.9990482216 	2.176122469e-06 	2.853993225e-08 	-3.128480289e-12 	2.171910162e-06 	-1.13388891e-10 	4.140264419e-09
