0.4709558481 	0.1138675394 	0.000109633687 	-8.62702929e-09
0.4720092239 	0.4357926799 	0.0001650216537 	-4.272645308e-09
0.4730625996 	0.8475204945 	-5.709405636e-05 	1.603922257e-09
0.4741159754 	1.191930102 	-0.0001245613306 	-2.644086507e-08
0.4751693511 	1.450718208 	9.049623994e-05 	-5.411825865e-08
0.4762227269 	1.665750308 	0.0002373377039 	-7.334215388e-08
0.4778443634 	1.869228615 	0.0003268398396 	-1.076787007e-07
0.4796765386 	2.050075801 	0.0004320537863 	-1.54791736e-07
0.4817465869 	2.206652775 	0.0005658264427 	-2.129522595e-07
0.4840853915 	2.347398746 	0.0007442909536 	-2.854919946e-07
0.4867278453 	2.477454985 	0.00097056188 	-3.759132039e-07
0.4897133715 	2.599721797 	0.001248961461 	-4.882023727e-07
0.4930865115 	2.715172629 	0.001586068723 	-6.210992832e-07
0.4968975894 	2.822542492 	0.001978183573 	-7.460637197e-07
0.5012034633 	2.917741238 	0.002387949328 	-8.045997925e-07
0.506068373 	3.000993949 	0.002819363824 	-8.141578183e-07
0.5134203412 	3.066241878 	0.0032308546 	-7.668366373e-07
0.5212948542 	3.105153148 	0.00349262848 	-6.690493319e-07
0.529729052 	3.124065608 	0.003614110915 	-5.896278999e-07
0.5387627144 	3.131775737 	0.003660540198 	-5.302060235e-07
0.5484384488 	3.133404293 	0.003651498119 	-4.872871605e-07
0.5588018907 	3.131447057 	0.003607969451 	-4.541569723e-07
0.5699019192 	3.127092911 	0.003536873101 	-4.257401295e-07
0.5817908876 	3.12091347 	0.00344210115 	-4.012902173e-07
0.5945248701 	3.113174994 	0.003325727821 	-3.790078027e-07
0.6081639266 	3.103982903 	0.003187998644 	-3.571108756e-07
0.6227723857 	3.093351738 	0.003027899096 	-3.342477122e-07
0.638419148 	3.081240411 	0.002843588065 	-3.094155791e-07
0.6551780116 	3.067570139 	0.002632652714 	-2.818869886e-07
0.6731280194 	3.052232726 	0.002392289907 	-2.511587707e-07
0.6923538328 	3.035092189 	0.002119460836 	-2.16896749e-07
0.7129461301 	3.015980164 	0.001811054738 	-1.788935399e-07
0.7350020349 	2.995052481 	0.00147018458 	-1.378616378e-07
0.7570579485 	2.973298148 	0.00111509471 	-9.656317857e-08
0.7776502527 	2.951814419 	0.0007669126093 	-5.798396027e-08
0.7968760713 	2.930925946 	0.0004342273982 	-2.299096016e-08
0.814826083 	2.910556089 	0.0001188482131 	9.077993839e-09
0.831584949 	2.890595108 	-0.000177971884 	3.942120742e-08
0.8472317127 	2.870900562 	-0.0004551714748 	6.937920748e-08
0.8618401721 	2.851292272 	-0.0007116157572 	1.001825112e-07
0.8754792281 	2.83154206 	-0.0009459352241 	1.328585479e-07
0.8882132094 	2.811357527 	-0.001156434559 	1.682860123e-07
0.9001021759 	2.790357979 	-0.001340711668 	2.078066686e-07
0.9112022019 	2.768039612 	-0.001495088008 	2.524473304e-07
0.9215656407 	2.743724914 	-0.001619510012 	2.881358645e-07
0.9312413717 	2.716477307 	-0.001710122189 	3.37210436e-07
0.9402750304 	2.68446712 	-0.001750499718 	4.053060964e-07
0.9487092242 	2.64386326 	-0.001727243887 	4.652191159e-07
0.9565837329 	2.588656232 	-0.001616729807 	5.281677885e-07
0.9639356968 	2.51792352 	-0.00141629329 	5.618046086e-07
0.9688006083 	2.441468701 	-0.001187717893 	5.384608749e-07
0.9731064834 	2.361095558 	-0.0009693608709 	4.784741382e-07
0.976917562 	2.272199594 	-0.0007650066432 	3.990786182e-07
0.9802907021 	2.175817013 	-0.0005873808198 	3.162843556e-07
0.9832762282 	2.07215069 	-0.000441158167 	2.406743622e-07
0.9859186816 	1.960202149 	-0.0003261613696 	1.771451346e-07
0.9882574856 	1.83747857 	-0.0002414845731 	1.265040782e-07
0.990327533 	1.699530209 	-0.0001864199115 	8.731646365e-08
0.9921597073 	1.53915645 	-0.0001464696713 	5.753906409e-08
0.9937813429 	1.358515578 	-0.0001016962731 	3.67754678e-08
0.9948347186 	1.168883024 	1.86879067e-05 	2.388585218e-08
0.9958880943 	0.9457048668 	0.0001387778302 	1.262789975e-08
0.9969414701 	0.6610815335 	5.021575488e-06 	3.56577539e-09
0.9979948458 	0.3361631893 	-0.0001349185068 	1.865904351e-09
0.9990482216 	0.09629825148 	-6.643116541e-05 	1.643451587e-09
0.9990482216 	0.09629825148 	-6.643116541e-05 	1.643451587e-09
