0.3359950097 	1.129908235e-05 	-3.2673651e-07 	9.189770665e-10 	1.103946874e-05 	-2.142190725e-08 	2.104429568e-08
0.3359950097 	1.129908235e-05 	-3.2673651e-07 	9.189770665e-10 	1.103946874e-05 	-2.142190725e-08 	2.104429568e-08
0.3371488821 	0.001097161647 	-0.0002128177326 	7.288304136e-07 	0.0009335325803 	-2.310730146e-06 	1.77957256e-06
0.3383029084 	0.009897257343 	-0.003088643513 	7.452749164e-06 	0.007412564574 	-1.38101832e-05 	1.413040829e-05
0.339456909 	0.02170740681 	-0.007296452181 	9.183394958e-06 	0.01585690938 	-1.494325494e-05 	3.022767648e-05
0.3406107058 	0.02564537191 	-0.008482253159 	3.282483242e-07 	0.01887105051 	3.173684416e-06 	3.59734672e-05
0.3417641219 	0.02388130145 	-0.00750045761 	-8.475266699e-06 	0.01790626763 	2.203913975e-05 	3.413432289e-05
0.3435386191 	0.01973754255 	-0.006075844051 	-1.185176504e-05 	0.01497044928 	2.871252985e-05 	2.853783715e-05
0.345541121 	0.01539794302 	-0.00467583888 	-1.029728629e-05 	0.01193396163 	1.701282188e-05 	2.274944774e-05
0.3477994817 	0.01251545235 	-0.003487800252 	-8.323111932e-06 	0.01036084742 	-1.589434702e-06 	1.975065484e-05
0.3503442295 	0.01097589617 	-0.002499947246 	-6.054365561e-06 	0.01017108207 	-1.620334729e-05 	1.938890933e-05
0.3532733514 	0.01027925344 	-0.00177788957 	-4.414083085e-06 	0.01081374201 	-2.434626522e-05 	2.06139978e-05
0.356598976 	0.00990081962 	-0.001197275049 	-2.920058084e-06 	0.0118315844 	-2.773860865e-05 	2.255428828e-05
0.3603444458 	0.009617321619 	-0.0007269757802 	-1.805498323e-06 	0.01295647123 	-2.822903783e-05 	2.469863524e-05
0.3645614832 	0.009347970471 	-0.0002992993426 	-1.63410398e-06 	0.01404452826 	-2.603377468e-05 	2.677277434e-05
0.3694015871 	0.009090368566 	0.0001518443827 	-1.844543386e-06 	0.01496803564 	-1.98978269e-05 	2.853323608e-05
0.3748927519 	0.008911690948 	0.0006562326715 	-1.196533403e-06 	0.01555119438 	-1.211488684e-05 	2.964489871e-05
0.3832077724 	0.008839380115 	0.001142959379 	1.491084086e-07 	0.01573019211 	-6.95646305e-06 	2.998611814e-05
0.3922194226 	0.008809060504 	0.001494604319 	1.100281316e-06 	0.01569674769 	-4.471500112e-06 	2.992236379e-05
0.4019645111 	0.00878677513 	0.001696481005 	1.254776856e-06 	0.01563959583 	-2.821407993e-06 	2.981341646e-05
0.41246846 	0.008779630313 	0.001816874238 	8.413412765e-07 	0.01562173654 	-1.526792703e-06 	2.977937169e-05
0.4238250473 	0.008799385375 	0.001915828522 	2.309969703e-07 	0.01565945673 	-3.807610296e-07 	2.985127685e-05
0.4281449265 	0.00881742925 	0.001952152433 	5.000055746e-07 	0.01569147204 	-5.186287868e-06 	2.991230693e-05
0.4360921644 	0.008850755424 	0.002018355772 	3.879141389e-07 	0.01574931688 	-6.43598723e-07 	3.002257528e-05
0.4493258187 	0.008934514659 	0.002131586838 	9.948358818e-07 	0.01588819417 	-1.580996503e-06 	3.028731398e-05
0.4636467224 	0.009049775311 	0.00225698427 	1.598801845e-06 	0.01607275063 	-2.460587906e-06 	3.063912988e-05
0.479142112 	0.009196046002 	0.002394369355 	2.184387546e-06 	0.01630093878 	-3.291775718e-06 	3.107411992e-05
0.495937783 	0.009372421227 	0.002543343671 	2.733678492e-06 	0.01656966811 	-4.076235384e-06 	3.158639272e-05
0.5140945125 	0.009578861644 	0.002704195336 	3.222451999e-06 	0.01687595155 	-4.811491318e-06 	3.217025408e-05
0.5336915725 	0.0098155769 	0.002877794452 	3.624530028e-06 	0.01721565394 	-5.494387585e-06 	3.281782125e-05
0.5548794993 	0.01008388517 	0.003066675469 	3.910022669e-06 	0.01758254073 	-6.110919785e-06 	3.351720945e-05
0.577708027 	0.01038655314 	0.00327473854 	4.035456437e-06 	0.01796727753 	-6.655160898e-06 	3.425062471e-05
0.6022888803 	0.01072445793 	0.003504012053 	3.963143022e-06 	0.01835528662 	-7.087310864e-06 	3.499027789e-05
0.6287248958 	0.01109726852 	0.003754095667 	3.432052197e-06 	0.01872920376 	-6.889250574e-06 	3.570306787e-05
0.6571183725 	0.01149460125 	0.004017757603 	2.775134834e-06 	0.01905912901 	-6.481096265e-06 	3.63319971e-05
0.6855585609 	0.01188816439 	0.004275225488 	2.178389408e-06 	0.01931020461 	-6.13901032e-06 	3.681061698e-05
0.7121365164 	0.01225079313 	0.004507979462 	1.660226715e-06 	0.01946670749 	-5.853877334e-06 	3.710895496e-05
0.7369645634 	0.01257388101 	0.004711154489 	1.214762947e-06 	0.01953264107 	-5.593065574e-06 	3.723464269e-05
0.7601541182 	0.01285620941 	0.004885170614 	8.322920713e-07 	0.01951663164 	-5.351591254e-06 	3.720412427e-05
0.781812674 	0.0130964175 	0.005030336223 	5.059751095e-07 	0.01942738787 	-5.127785274e-06 	3.703400085e-05
0.8020426129 	0.01329374863 	0.005147459711 	2.285895821e-07 	0.01927259218 	-4.918286336e-06 	3.673891724e-05
0.8209384831 	0.01344809013 	0.005237715835 	-5.438133449e-09 	0.01905865411 	-4.719971814e-06 	3.633109181e-05
0.8385893071 	0.01355983227 	0.005302415102 	-1.910867268e-07 	0.01879113452 	-4.330530908e-06 	3.582112511e-05
0.8550774756 	0.01363004201 	0.00534302731 	-3.261519741e-07 	0.01847518154 	-3.960316625e-06 	3.521883094e-05
0.8704799455 	0.01366094881 	0.005361355565 	-4.192917087e-07 	0.01811554671 	-3.618788349e-06 	3.453326698e-05
0.8848682824 	0.01365632358 	0.005359607251 	-4.778327455e-07 	0.01771663317 	-3.302038235e-06 	3.377282691e-05
0.898309154 	0.01362168136 	0.005340360392 	-5.080704976e-07 	0.01728261643 	-3.007873014e-06 	3.294547037e-05
0.9108647908 	0.01356429128 	0.005306424448 	-5.165031149e-07 	0.0168172618 	-2.736394142e-06 	3.205837511e-05
0.922593274 	0.01349226501 	0.005260379462 	-5.108417189e-07 	0.01632408584 	-2.489861624e-06 	3.111824466e-05
0.9335488469 	0.01341194064 	0.005203783097 	-4.999651688e-07 	0.01580762776 	-2.272356209e-06 	3.013373202e-05
0.9437821903 	0.01332490345 	0.005136491407 	-4.930120431e-07 	0.01527385372 	-2.089394049e-06 	2.911621033e-05
0.9533406678 	0.0132331375 	0.005063341868 	-4.927552382e-07 	0.01477115749 	-1.946287608e-06 	2.815793161e-05
0.9596679154 	0.01315469512 	0.004996775075 	-5.012169716e-07 	0.01435607352 	-1.860725541e-06 	2.736666619e-05
0.9652695907 	0.01309309769 	0.004937688843 	-4.988809755e-07 	0.0140061389 	-1.775683628e-06 	2.669959355e-05
0.9702287469 	0.01303445091 	0.004880030854 	-4.722184292e-07 	0.01368857223 	-1.654585132e-06 	2.609422321e-05
0.9746189643 	0.01297491248 	0.004823664132 	-4.019166321e-07 	0.01340149851 	-1.437198086e-06 	2.554698091e-05
0.9785054204 	0.01291041247 	0.004768005298 	-2.673194978e-07 	0.0131402003 	-1.050580319e-06 	2.504887391e-05
0.9819458465 	0.01282930353 	0.0047096048 	-5.279130267e-08 	0.01289256588 	-4.371498055e-07 	2.457681387e-05
0.9849913737 	0.01269514497 	0.004636177882 	2.385559303e-07 	0.01262367667 	3.998252398e-07 	2.40642363e-05
0.9876872839 	0.0124097413 	0.004513276281 	5.661558009e-07 	0.01223812936 	1.334677134e-06 	2.332927598e-05
0.9900736765 	0.01174097365 	0.00426587198 	8.896862001e-07 	0.01150830132 	2.100427099e-06 	2.193802089e-05
0.9921860593 	0.01035690791 	0.003822113723 	9.957735555e-07 	0.01011065749 	2.278694882e-06 	1.92737233e-05
0.9935583211 	0.008129510393 	0.003018648485 	7.072763445e-07 	0.007916538001 	1.706549198e-06 	1.509112172e-05
0.9949306682 	0.004864142455 	0.00174871702 	2.988387674e-07 	0.004735057594 	8.114129007e-07 	9.026335816e-06
0.9963031006 	0.001587622656 	0.0005226675289 	6.836967881e-08 	0.001551033165 	2.205256623e-07 	2.956700299e-06
0.9976756184 	0.0001324392419 	1.976737177e-05 	5.068061984e-09 	0.000131867793 	3.754751148e-08 	2.513766642e-07
0.9990482216 	1.325134663e-06 	2.313193153e-08 	1.858540136e-11 	1.322541389e-06 	9.420067235e-10 	2.521131469e-09
