0.2971421875 	1.17009879e-05 	-3.672603395e-07 	6.277845965e-10 	1.1338106e-05 	-8.461131886e-09 	2.16135813e-08
0.2971421875 	1.17009879e-05 	-3.672603395e-07 	6.277845965e-10 	1.1338106e-05 	-8.461131886e-09 	2.16135813e-08
0.2984004715 	0.001258099138 	-0.000253935988 	5.952938987e-07 	0.001009753396 	-1.295049491e-06 	1.92487062e-06
0.2996588726 	0.01080722326 	-0.003297600397 	3.712902981e-06 	0.007494632296 	-4.135433876e-06 	1.428685218e-05
0.3009171386 	0.021483712 	-0.006938869148 	-5.85343176e-07 	0.01454966202 	7.345297935e-06 	2.773569968e-05
0.3021750194 	0.0224329457 	-0.007055980356 	-1.120569995e-05 	0.01544741386 	2.581598228e-05 	2.944706421e-05
0.3034322672 	0.01896295204 	-0.005616399038 	-1.294819998e-05 	0.01348216882 	2.785853367e-05 	2.570076095e-05
0.3053659544 	0.01528052547 	-0.004410167603 	-8.706122921e-06 	0.01125251905 	1.158670927e-05 	2.145042879e-05
0.3075470768 	0.01267502347 	-0.003353030613 	-6.399214874e-06 	0.01027196838 	-1.103180346e-05 	1.958122668e-05
0.3100052365 	0.01125256117 	-0.002405448539 	-4.869480064e-06 	0.01065187767 	-2.623743394e-05 	2.030543937e-05
0.3127725449 	0.01056356486 	-0.001735142738 	-2.869651373e-06 	0.01170221366 	-3.288219971e-05 	2.230767169e-05
0.3159581696 	0.01012405346 	-0.001245661926 	-1.383848457e-06 	0.01296527762 	-3.415591392e-05 	2.471542265e-05
0.3195728889 	0.009746601379 	-0.0008475218724 	-1.044627435e-06 	0.01416652438 	-3.039230944e-05 	2.700533285e-05
0.3236393977 	0.009408210667 	-0.0004585446888 	-1.387456369e-06 	0.0150968308 	-2.250941571e-05 	2.877875546e-05
0.3282122583 	0.009135681582 	-4.629314711e-05 	-1.073322531e-06 	0.0156375626 	-1.446938558e-05 	2.980954056e-05
0.3334593818 	0.008945575978 	0.0003460160772 	-2.569712568e-08 	0.01578841968 	-9.177326227e-06 	3.009711608e-05
0.3394059475 	0.008787494006 	0.0006617984128 	1.007940539e-06 	0.01569927229 	-6.030941766e-06 	2.992717638e-05
0.3483965305 	0.008626958346 	0.0008832893061 	1.228583787e-06 	0.01552610483 	-3.309026891e-06 	2.959707106e-05
0.3581269251 	0.008495735109 	0.001017899652 	6.911972221e-07 	0.01535806703 	-1.348397507e-06 	2.927674431e-05
0.3666486922 	0.008427658697 	0.001087789791 	2.925696948e-07 	0.01528034856 	-4.086996823e-06 	2.91285913e-05
0.3686062448 	0.008411616399 	0.001103621821 	1.435375694e-07 	0.01526160248 	-2.716188056e-07 	2.909285608e-05
0.379768926 	0.008369443719 	0.001178768545 	9.833983644e-07 	0.01523788016 	-1.632444397e-06 	2.904763473e-05
0.3918314255 	0.008366600079 	0.001260900586 	1.904283443e-06 	0.01528169579 	-2.872774497e-06 	2.91311595e-05
0.4049179264 	0.008399267274 	0.001354247722 	2.90487875e-06 	0.01538514616 	-4.020486184e-06 	2.932836467e-05
0.4190519956 	0.008466515921 	0.001461726226 	3.966534094e-06 	0.01554456507 	-5.096991887e-06 	2.96322614e-05
0.434325357 	0.008566852642 	0.001584847891 	5.062102907e-06 	0.01575498536 	-6.120487346e-06 	3.003338096e-05
0.450827461 	0.008700359904 	0.001724530907 	6.153831914e-06 	0.01601431705 	-7.106650841e-06 	3.052773924e-05
0.4686904931 	0.008866659929 	0.001881273714 	7.192966351e-06 	0.01631883757 	-8.068805761e-06 	3.110823999e-05
0.4879732028 	0.009065912008 	0.002055696369 	7.368481073e-06 	0.01666476751 	-8.165651015e-06 	3.176767861e-05
0.5087551152 	0.009299330289 	0.0022491776 	6.434401264e-06 	0.01704851687 	-7.195171146e-06 	3.249921154e-05
0.5311953169 	0.009568256552 	0.002465176155 	5.49345486e-06 	0.01746230042 	-6.33163858e-06 	3.3287998e-05
0.5553404792 	0.009877531385 	0.00270956935 	4.566403973e-06 	0.01789767785 	-5.59797171e-06 	3.411794839e-05
0.5813069819 	0.01022955276 	0.002986490313 	3.668337757e-06 	0.01833689271 	-4.96739859e-06 	3.495521398e-05
0.6092019685 	0.01062683335 	0.003296432051 	2.82260747e-06 	0.01876017914 	-4.4323964e-06 	3.576211556e-05
0.6391328417 	0.01105991 	0.003629266027 	2.069702132e-06 	0.01913362251 	-3.977066762e-06 	3.647400242e-05
0.6690889292 	0.01149843572 	0.003957848163 	1.450544095e-06 	0.01941854218 	-3.623027986e-06 	3.701713849e-05
0.6970675957 	0.01191143215 	0.004256950127 	9.565735109e-07 	0.01959730965 	-3.349990201e-06 	3.735791899e-05
0.7231945774 	0.01228737813 	0.004519036246 	5.571982546e-07 	0.01967572768 	-3.116446752e-06 	3.750740555e-05
0.7475921406 	0.01262282109 	0.004743700593 	2.308081391e-07 	0.01966605235 	-2.910188878e-06 	3.748896168e-05
0.7703766453 	0.01291462481 	0.004931312202 	-3.546182038e-08 	0.0195797611 	-2.725634002e-06 	3.732446657e-05
0.7916578666 	0.01316091133 	0.005083482648 	-2.51976606e-07 	0.01942612132 	-2.558343027e-06 	3.703158646e-05
0.8115364187 	0.01336066452 	0.005202283194 	-4.255227532e-07 	0.01921249466 	-2.406368994e-06 	3.662435466e-05
0.8301065661 	0.01351344407 	0.005289819467 	-5.603333134e-07 	0.01894497304 	-2.269443813e-06 	3.61143841e-05
0.8474552181 	0.01361966232 	0.005348293454 	-6.598776064e-07 	0.01862882299 	-2.146012385e-06 	3.551171423e-05
0.8636633531 	0.013681113 	0.005380182455 	-7.273020825e-07 	0.01826861005 	-2.03283209e-06 	3.482504824e-05
0.8788061369 	0.01370128629 	0.005388274626 	-7.652701323e-07 	0.01786844697 	-1.925833697e-06 	3.40622262e-05
0.8929535143 	0.01368550275 	0.00537562439 	-7.758043867e-07 	0.01743234051 	-1.821676514e-06 	3.323088607e-05
0.906170736 	0.01364103258 	0.005345495994 	-7.607502908e-07 	0.0169641521 	-1.719403615e-06 	3.233838884e-05
0.9185186828 	0.01357657929 	0.005301069142 	-7.232822848e-07 	0.01646774083 	-1.620824093e-06 	3.139209099e-05
0.930054209 	0.01350018031 	0.005244792319 	-6.702834254e-07 	0.01594814214 	-1.529329369e-06 	3.040159148e-05
0.9408304396 	0.01341624537 	0.00517768109 	-6.139390432e-07 	0.01541227547 	-1.453430304e-06 	2.938008066e-05
0.9508970316 	0.01332929878 	0.005105539102 	-5.711339288e-07 	0.014909856 	-1.408141011e-06 	2.842232951e-05
0.9575611767 	0.01325728072 	0.005040735937 	-5.535803545e-07 	0.01449716494 	-1.410968204e-06 	2.763562565e-05
0.9634614836 	0.01320145049 	0.004983362383 	-5.501506859e-07 	0.01415016228 	-1.440509155e-06 	2.697414213e-05
0.9686853062 	0.01314411647 	0.004926181231 	-5.505868249e-07 	0.01383363476 	-1.483283548e-06 	2.63707527e-05
0.9733100526 	0.0130757956 	0.004867116919 	-5.378067331e-07 	0.01354043203 	-1.497166753e-06 	2.581182681e-05
0.9774043036 	0.01298635228 	0.004803182913 	-4.873410513e-07 	0.01325830503 	-1.411632575e-06 	2.527401435e-05
0.981028816 	0.01285929067 	0.004728697695 	-3.72523316e-07 	0.01296764964 	-1.143320552e-06 	2.471994439e-05
0.9842374086 	0.01265771328 	0.004630702585 	-1.771157584e-07 	0.01263069183 	-6.355264768e-07 	2.407760915e-05
0.9870777503 	0.01229302162 	0.004477793057 	8.230586198e-08 	0.01216089862 	7.024178247e-08 	2.318205272e-05
0.989592059 	0.01155626776 	0.004199085182 	3.683086394e-07 	0.011354942 	7.839570529e-07 	2.16456754e-05
0.9918177227 	0.01015104993 	0.003736051635 	6.991660478e-07 	0.009927176138 	1.239707456e-06 	1.892395683e-05
0.9932636011 	0.007976477996 	0.002955588878 	5.567302308e-07 	0.007777042361 	9.992244348e-07 	1.482520426e-05
0.9947095902 	0.004798146912 	0.001726055158 	1.372979574e-07 	0.004674747353 	3.562347214e-07 	8.911367734e-06
0.99615569 	0.001571449171 	0.0005176934313 	2.76492448e-08 	0.001536064683 	6.945645276e-08 	2.928166214e-06
0.9976019004 	0.0001289313862 	1.924710953e-05 	5.071135099e-09 	0.0001283962313 	2.990494701e-08 	2.447589027e-07
0.9990482216 	1.22577285e-06 	2.104500822e-08 	2.189067219e-11 	1.223379991e-06 	9.783846721e-10 	2.332102284e-09
0.9990482216 	1.22577285e-06 	2.104500822e-08 	2.189067219e-11 	1.223379991e-06 	9.783846721e-10 	2.332102284e-09
