0.2472849305 	0.2639909476 	0.07879897585 	-0.0005465156687
0.2487094669 	0.9945825421 	0.2924144961 	-0.001916456302
0.2501340182 	1.770479841 	0.5162400682 	-0.003059915894
0.2515582136 	2.23223956 	0.6469408516 	-0.003369520619
0.2529816857 	2.466205714 	0.7089509315 	-0.003229812245
0.2544040707 	2.587744509 	0.7370694176 	-0.002960487068
0.2565908305 	2.649917007 	0.7465941189 	-0.00266851714
0.2590557457 	2.675396756 	0.744435623 	-0.002422763931
0.2618311143 	2.687063593 	0.7374383397 	-0.00219038627
0.2649514479 	2.693818021 	0.7279278371 	-0.001948407733
0.2685402304 	2.698280342 	0.7164478255 	-0.001688374142
0.2726074998 	2.701162659 	0.703133052 	-0.001416619308
0.2771758575 	2.702700261 	0.6880748027 	-0.00114014457
0.2823040561 	2.70310416 	0.6713594048 	-0.0008627978389
0.28818069 	2.702648973 	0.6529957174 	-0.0005831159505
0.2948278042 	2.701260492 	0.6312135948 	-0.0003075512853
0.3039520189 	2.699438044 	0.6067728068 	-0.0001541583431
0.3048289965 	2.699120531 	0.6044157496 	-2.474503871e-05
0.3153909723 	2.694602057 	0.5756728739 	-0.0002822008322
0.3267808322 	2.689443568 	0.5468150048 	-0.0004937731604
0.3390183242 	2.683687511 	0.5179185506 	-0.0006566212643
0.3522090375 	2.677294556 	0.4890727626 	-0.000770935868
0.3664845753 	2.670172616 	0.460353609 	-0.0008379962757
0.3818620373 	2.662215961 	0.4319052514 	-0.0008593163291
0.3984348019 	2.653286967 	0.4038509099 	-0.0008058382882
0.4162929946 	2.643227633 	0.3762520331 	-0.0005661484444
0.4355739439 	2.63188471 	0.3491621772 	-0.000378519133
0.4563323823 	2.619122875 	0.3226739787 	-0.0002384255111
0.4786466123 	2.604829187 	0.2968434361 	-0.0001393441982
0.5026835755 	2.588872193 	0.2716879762 	-7.369539537e-05
0.5284859607 	2.57110238 	0.2472458121 	-3.393391939e-05
0.5561749938 	2.551262805 	0.2235341766 	-1.25927244e-05
0.5858631148 	2.528955509 	0.2005223851 	-3.059276014e-06
0.6176648077 	2.50412837 	0.1785309022 	-7.496475615e-09
0.6494508416 	2.477768982 	0.1585064083 	3.845858765e-07
0.6791106475 	2.451122037 	0.1410332054 	3.527009912e-07
0.7067905922 	2.424564482 	0.1258426677 	6.393450614e-07
0.7326288344 	2.398036688 	0.1124964053 	1.299929028e-06
0.7567541468 	2.37150668 	0.1006706385 	2.183365628e-06
0.7792862258 	2.344936454 	0.0901135087 	3.120055696e-06
0.8003336001 	2.318270993 	0.08062668081 	3.976895609e-06
0.8199971472 	2.291447199 	0.07205181038 	4.668802021e-06
0.8383693647 	2.264395737 	0.06426189399 	5.150632025e-06
0.8555361083 	2.237032854 	0.05715277211 	5.407448305e-06
0.8715768547 	2.209245642 	0.05063846712 	5.444472211e-06
0.8865654396 	2.180871534 	0.04464682735 	5.278986394e-06
0.9005706783 	2.151666581 	0.03911620113 	4.934768006e-06
0.913656745 	2.121252133 	0.03399346817 	4.438702157e-06
0.9258835601 	2.08902588 	0.02923236876 	3.817741676e-06
0.9373071183 	2.054025782 	0.02478943133 	3.087195497e-06
0.9479797699 	2.017693368 	0.02091000008 	2.338974302e-06
0.9550458569 	1.983631638 	0.01787213943 	1.663455397e-06
0.9613025204 	1.950103474 	0.01538765078 	1.072357533e-06
0.9668422226 	1.913395352 	0.01315429945 	5.065707916e-07
0.9717469214 	1.872411688 	0.01113893473 	-2.079049629e-08
0.9760892456 	1.825801876 	0.009312700114 	-4.958565626e-07
0.9799335525 	1.771666222 	0.007652442354 	-9.008311713e-07
0.9833368611 	1.70704849 	0.006139789966 	-1.213326853e-06
0.9863496834 	1.627101458 	0.004760433658 	-1.407944221e-06
0.9890167622 	1.523779776 	0.003513403518 	-1.459943659e-06
0.9913777266 	1.394179349 	0.002483254861 	-1.337204898e-06
0.9929115363 	1.244416341 	0.0017662955 	-1.095667446e-06
0.9944454907 	1.049583085 	0.001247618591 	-8.49510339e-07
0.9959795897 	0.7718202472 	0.000594409693 	-5.386880135e-07
0.9975138333 	0.4142758901 	-0.000239251125 	-2.852659474e-07
0.9990482216 	0.1221417476 	-0.0003701141186 	-1.270084865e-07
0.9990482216 	0.1221417476 	-0.0003701141186 	-1.270084865e-07
