3.197437928e-34 	1.437287682 	-9.761326128e-14 	-3.547983687e-20
0.001920179623 	1.437316693 	-0.000220608766 	1.215369287e-07
0.003840345101 	1.437424466 	-0.0004115788148 	2.238871473e-07
0.005760496377 	1.437625126 	-0.0006059403695 	3.247583956e-07
0.007680633441 	1.43790993 	-0.0008043214982 	4.248360795e-07
0.009600756325 	1.438337577 	-0.001032242433 	5.372543373e-07
0.01255669343 	1.439041621 	-0.00132419403 	6.735265835e-07
0.01589636313 	1.440108981 	-0.001672171489 	8.28359057e-07
0.01966957619 	1.441615351 	-0.002064944944 	9.926361512e-07
0.02394927615 	1.443701904 	-0.002508305459 	1.164475395e-06
0.02878858959 	1.446546007 	-0.003007593097 	1.341275688e-06
0.03425611113 	1.450371733 	-0.003568319239 	1.518988414e-06
0.04043338076 	1.455471542 	-0.004197328352 	1.69266751e-06
0.04744143031 	1.462218162 	-0.00490142787 	1.854004125e-06
0.05536094352 	1.471069535 	-0.005685746341 	1.994248101e-06
0.06432130776 	1.483820566 	-0.00664157379 	2.128560454e-06
0.0778967341 	1.502960913 	-0.007833440127 	2.16296342e-06
0.0924770317 	1.528513847 	-0.009136793753 	2.106688861e-06
0.1081284109 	1.560022157 	-0.0104489425 	1.922675001e-06
0.12493365 	1.598238441 	-0.01174552517 	1.604679805e-06
0.1429796724 	1.643975052 	-0.01299690866 	1.152749559e-06
0.1623579926 	1.6981036 	-0.01415165363 	5.727385724e-07
0.179915767 	1.751587333 	-0.01498240056 	5.115263573e-06
0.1831652053 	1.761491232 	-0.0151365098 	1.217523443e-07
0.2055035143 	1.8349938 	-0.01590106958 	9.361857335e-07
0.2294813006 	1.919614014 	-0.01635634421 	1.761384566e-06
0.2552137277 	2.016402103 	-0.01636282928 	2.494288449e-06
0.2828241328 	2.126179019 	-0.01577516512 	3.00585017e-06
0.3124514441 	2.248889397 	-0.01443954209 	3.128622476e-06
0.3442271852 	2.381010841 	-0.01209154244 	2.650369376e-06
0.3783059509 	2.502351421 	-0.00902672458 	2.228355742e-06
0.4148445556 	2.575834062 	-0.006614863282 	2.63322175e-06
0.454012114 	2.597027308 	-0.005299256321 	2.970067813e-06
0.4959899515 	2.593225106 	-0.004362853688 	2.807993062e-06
0.5379865561 	2.579592566 	-0.003536476832 	2.561878186e-06
0.577207568 	2.561215795 	-0.002819849812 	2.268191212e-06
0.6138321997 	2.540028776 	-0.002194802375 	1.97845767e-06
0.6480299089 	2.516698615 	-0.001638832221 	1.701385455e-06
0.6799601987 	2.491380627 	-0.001137142881 	1.440111129e-06
0.7097727691 	2.463989819 	-0.0006793129127 	1.191591992e-06
0.7376075325 	2.434337078 	-0.0002631471112 	9.587453593e-07
0.7635955286 	2.401916664 	0.0001210431827 	7.540767723e-07
0.787859151 	2.36531799 	0.0004937645877 	5.809037746e-07
0.8105127434 	2.322127037 	0.0008813780937 	4.427571748e-07
0.831663108 	2.269580223 	0.001309172847 	3.281430917e-07
0.8514099765 	2.205235116 	0.001781542292 	2.065463605e-07
0.8698464725 	2.12765445 	0.002277029701 	4.765956162e-08
0.8870595453 	2.037106721 	0.002746403667 	-1.756527298e-07
0.9031303776 	1.935735983 	0.003119482926 	-4.65371871e-07
0.9181347659 	1.827031103 	0.003326460867 	-7.867176294e-07
0.9321434779 	1.722716737 	0.003318670995 	-1.05508607e-06
0.9414132658 	1.636397105 	0.003145090004 	-1.211502332e-06
0.9496178443 	1.564065537 	0.002880440215 	-1.275396341e-06
0.9568796188 	1.498463485 	0.0025501628 	-1.269457927e-06
0.9633069287 	1.438767062 	0.002183901418 	-1.204099121e-06
0.9689956638 	1.383483074 	0.00180730746 	-1.092654646e-06
0.9740306954 	1.330431447 	0.001441255375 	-9.498288101e-07
0.9784871417 	1.27655189 	0.001100577498 	-7.898166059e-07
0.982431489 	1.21740062 	0.0007930673298 	-6.246886494e-07
0.9859225838 	1.14603919 	0.000524405021 	-4.613709834e-07
0.98901251 	1.057705417 	0.0003114098606 	-3.172359726e-07
0.9910196523 	0.9532270366 	0.0002245597421 	-2.14689643e-07
0.9930267946 	0.8098083552 	0.0002890995452 	-1.342603584e-07
0.9950339369 	0.5906212674 	0.0001617345637 	-4.955542988e-08
0.9970410793 	0.3057084348 	-0.0001128151058 	-4.472962922e-09
0.9990482216 	0.08709689424 	-0.0001129940443 	-1.652080704e-09
0.9990482216 	0.08709689424 	-0.0001129940443 	-1.652080704e-09
