1.640171017e-35 	1.321830216 	-8.981997568e-14 	-2.12825086e-18
0.001912604907 	1.32186137 	-0.0002707578021 	2.059386917e-07
0.003825194192 	1.321981406 	-0.0005052914767 	3.792674196e-07
0.005737767794 	1.322208399 	-0.0007438208089 	5.497022344e-07
0.007650325701 	1.322530967 	-0.0009873406893 	7.187147502e-07
0.00956286795 	1.323015596 	-0.001267144141 	9.084537017e-07
0.01250713205 	1.323813373 	-0.001625568747 	1.137994311e-06
0.01583360909 	1.325022413 	-0.002052805601 	1.398375532e-06
0.01959191156 	1.326728862 	-0.002535159003 	1.674064164e-06
0.02385649769 	1.329093086 	-0.003079857801 	1.961904542e-06
0.02867914987 	1.332316157 	-0.003693487369 	2.257224519e-06
0.03412783817 	1.336651877 	-0.004382849161 	2.552988478e-06
0.04028381842 	1.342432618 	-0.005156574095 	2.840674851e-06
0.04727081711 	1.350082579 	-0.00602332167 	3.106280989e-06
0.05516671354 	1.360122153 	-0.006989627514 	3.334714884e-06
0.0641017149 	1.374591901 	-0.008168552482 	3.551481713e-06
0.07764239172 	1.396324282 	-0.009640657625 	3.593089928e-06
0.09218964228 	1.425362291 	-0.01125345543 	3.478542668e-06
0.1078092542 	1.461208972 	-0.01288101474 	3.144297888e-06
0.1245847907 	1.504751192 	-0.01449447423 	2.577391484e-06
0.1426038343 	1.556957662 	-0.01605188729 	1.768924828e-06
0.1619584402 	1.61885476 	-0.01748468555 	7.295094892e-07
0.17459936 	1.663004391 	-0.01823144136 	1.585784847e-05
0.1827456333 	1.69147257 	-0.01871497856 	5.703969149e-07
0.2050679472 	1.775919791 	-0.01966821715 	2.124741162e-06
0.229034003 	1.873489663 	-0.02021327255 	3.720964017e-06
0.2547591248 	1.985481765 	-0.02017424443 	5.190023148e-06
0.2823668212 	2.112828107 	-0.01936246238 	6.306708314e-06
0.3119969157 	2.255006721 	-0.0175567157 	6.739234196e-06
0.3437800877 	2.404827685 	-0.01452868732 	6.617435394e-06
0.3778714604 	2.528541733 	-0.01111388409 	7.023921323e-06
0.4144274988 	2.590707259 	-0.008815263926 	7.901267531e-06
0.4536170638 	2.604697528 	-0.007476684912 	8.130160394e-06
0.4956212291 	2.599842564 	-0.006312831101 	7.800386554e-06
0.5376461177 	2.586452995 	-0.005260909811 	7.293354957e-06
0.5768947117 	2.568354272 	-0.004331764775 	6.697073185e-06
0.6135457513 	2.547406374 	-0.003516255641 	6.080034488e-06
0.6477684763 	2.52432035 	-0.002789003253 	5.47092888e-06
0.6797223209 	2.499259912 	-0.002131761493 	4.88156581e-06
0.7095570023 	2.472114685 	-0.001529987831 	4.315173068e-06
0.7374124644 	2.442655946 	-0.0009787782345 	3.759077957e-06
0.7634198193 	2.410536312 	-0.0004726048158 	3.232326937e-06
0.7877015329 	2.374730648 	4.875603503e-06 	2.767023489e-06
0.8103720244 	2.333016458 	0.0004790580582 	2.368121913e-06
0.8315381713 	2.282494951 	0.000981740952 	2.00908458e-06
0.851299777 	2.220295208 	0.001528341859 	1.660265106e-06
0.8697500334 	2.144200146 	0.002107503992 	1.304223532e-06
0.8869759541 	2.053474098 	0.002682926236 	8.973069551e-07
0.9030587819 	1.949311126 	0.003190732739 	4.023458424e-07
0.9180743698 	1.834662446 	0.003552090193 	-1.732335517e-07
0.9320935383 	1.72207584 	0.00368241633 	-7.177281692e-07
0.9413702454 	1.62732453 	0.003599534491 	-1.110623911e-06
0.9495809481 	1.547191324 	0.00338380069 	-1.361241384e-06
0.9568481429 	1.474296147 	0.00307050901 	-1.502451946e-06
0.9632802503 	1.408228285 	0.002692586534 	-1.539904298e-06
0.9689732317 	1.347809946 	0.002280787133 	-1.487170715e-06
0.9740120216 	1.291102908 	0.001862168743 	-1.363108592e-06
0.9784717943 	1.235247649 	0.001457958067 	-1.188943061e-06
0.9824190858 	1.176015345 	0.001081690723 	-9.850399977e-07
0.9859127864 	1.106753132 	0.0007425475951 	-7.647417684e-07
0.9890050191 	1.022664917 	0.0004651691721 	-5.54249043e-07
0.9910136596 	0.9236269353 	0.0003308392008 	-3.923933093e-07
0.9930223001 	0.786330684 	0.0003568243308 	-2.554464274e-07
0.9950309406 	0.5738660359 	0.000187874608 	-1.029935436e-07
0.9970395811 	0.2966193866 	-0.0001097983262 	-1.420426944e-08
0.9990482216 	0.08432477453 	-0.0001121541553 	-3.193753122e-09
0.9990482216 	0.08432477453 	-0.0001121541553 	-3.193753122e-09
