0.3176601022 	1.170526597e-05 	-3.524096463e-07 	1.030544589e-09 	1.139446464e-05 	-2.154842386e-08 	2.172101653e-08
0.3188608126 	0.001191431128 	-0.0002360692247 	8.299050058e-07 	0.0009876723078 	-2.389301162e-06 	1.882777928e-06
0.3200616632 	0.01049517175 	-0.003246981533 	7.133548791e-06 	0.007590136647 	-1.213802351e-05 	1.446891002e-05
0.3212624417 	0.0219699098 	-0.00725105113 	6.401524917e-06 	0.01550713286 	-7.694009844e-06 	2.956090522e-05
0.3224629377 	0.02451576232 	-0.007931616413 	-4.620162284e-06 	0.01748849 	1.346035706e-05 	3.333792261e-05
0.3236629424 	0.02169542882 	-0.006646099709 	-1.180993467e-05 	0.01584633986 	2.734370715e-05 	3.020752804e-05
0.3255088723 	0.01746225774 	-0.005237472771 	-1.069135077e-05 	0.01298476648 	2.334475465e-05 	2.475257384e-05
0.327591533 	0.01385503653 	-0.003992138673 	-8.213453749e-06 	0.01080334253 	4.069653268e-06 	2.059417349e-05
0.3299395659 	0.01174649802 	-0.002926471599 	-7.179111222e-06 	0.01020033497 	-1.440537734e-05 	1.94446735e-05
0.3325842128 	0.0107193328 	-0.002093376165 	-4.786851795e-06 	0.0106939144 	-2.545068826e-05 	2.038557307e-05
0.3356287836 	0.01021099175 	-0.001483354747 	-3.102680761e-06 	0.01170896036 	-3.023598032e-05 	2.232053279e-05
0.3390846671 	0.009855107915 	-0.001001668927 	-1.70517436e-06 	0.01289028321 	-3.105480457e-05 	2.457246246e-05
0.3429748198 	0.009535724604 	-0.000592132627 	-1.427614591e-06 	0.01402480658 	-2.810517581e-05 	2.673517933e-05
0.3473522547 	0.009237246555 	-0.0001767408286 	-1.748313042e-06 	0.01495903383 	-2.130528405e-05 	2.851607612e-05
0.3523763078 	0.009004891577 	0.0002664881558 	-1.438817653e-06 	0.01554242164 	-1.342725245e-05 	2.962817544e-05
0.3580735657 	0.008865760387 	0.0007005030613 	-2.644486879e-07 	0.01572782128 	-8.265547426e-06 	2.998159868e-05
0.3666947432 	0.008764984703 	0.001062499666 	8.850693579e-07 	0.01567736931 	-5.012009976e-06 	2.98854232e-05
0.3760330498 	0.008674711974 	0.001296090188 	1.148399436e-06 	0.01556424042 	-2.885219786e-06 	2.966976809e-05
0.3861248366 	0.00861265224 	0.001423961032 	7.055133062e-07 	0.01548000501 	-1.335055919e-06 	2.9509192e-05
0.3969939915 	0.008583990995 	0.001515902797 	3.327790639e-09 	0.01545812836 	-5.524142992e-09 	2.946748902e-05
0.3970449088 	0.008584021802 	0.001516299995 	5.525032373e-09 	0.01545830593 	-7.328489453e-08 	2.946782752e-05
0.40862673 	0.00859072792 	0.00160591104 	7.074883955e-07 	0.01549551601 	-1.16617984e-06 	2.953876028e-05
0.4212554461 	0.008632243178 	0.001705732713 	1.460256843e-06 	0.01558988555 	-2.246804681e-06 	2.971865484e-05
0.4349065359 	0.008707530867 	0.001818131149 	2.239795497e-06 	0.01573719439 	-3.252454577e-06 	2.999946644e-05
0.4496703284 	0.008815230768 	0.001944055214 	3.031546972e-06 	0.01593281858 	-4.197613397e-06 	3.037238051e-05
0.465635286 	0.008955230385 	0.002083900661 	3.809028603e-06 	0.01617474049 	-5.096617036e-06 	3.08335509e-05
0.4829304922 	0.009126779737 	0.002237610916 	4.541658767e-06 	0.01645938079 	-5.952856064e-06 	3.137615444e-05
0.5016158678 	0.009329968677 	0.002405572502 	5.192118367e-06 	0.01678352283 	-6.763178025e-06 	3.199405925e-05
0.5217709233 	0.009565359103 	0.002588847539 	5.718948519e-06 	0.01714315553 	-7.532030807e-06 	3.267961913e-05
0.5435505126 	0.009834321517 	0.002790394616 	5.498775365e-06 	0.01753142374 	-7.455572214e-06 	3.341976626e-05
0.5670029 	0.01014053083 	0.003014997283 	4.730435799e-06 	0.01793933627 	-6.784684937e-06 	3.419736091e-05
0.592242101 	0.01048548698 	0.003265521762 	3.963676826e-06 	0.01835092514 	-6.208789585e-06 	3.498196369e-05
0.6193729967 	0.01087004275 	0.003541941786 	3.20812538e-06 	0.01874785238 	-5.717639371e-06 	3.573861733e-05
0.6485002409 	0.01128411806 	0.003835881317 	2.495176644e-06 	0.01909847858 	-5.286494338e-06 	3.640700832e-05
0.6776651358 	0.01169842255 	0.004124524694 	1.86942097e-06 	0.01936618905 	-4.934043281e-06 	3.691733889e-05
0.7049135212 	0.01208408776 	0.0043865281 	1.342084377e-06 	0.01953430114 	-4.645887073e-06 	3.723780726e-05
0.7303637708 	0.01243128001 	0.004615923312 	8.9939148e-07 	0.01960750103 	-4.386572252e-06 	3.737734659e-05
0.7541322613 	0.01273785753 	0.004812789436 	5.279157527e-07 	0.0195958955 	-4.149932644e-06 	3.735522321e-05
0.7763305871 	0.01300171958 	0.004977424242 	2.183947882e-07 	0.01950933355 	-3.933885081e-06 	3.719021209e-05
0.7970645851 	0.01322162776 	0.005110919603 	-3.824311909e-08 	0.01935615874 	-3.735247331e-06 	3.689821833e-05
0.8164316561 	0.01339706592 	0.005214778711 	-2.485585201e-07 	0.01914318419 	-3.551881e-06 	3.649222964e-05
0.8345233061 	0.01352804353 	0.005290607096 	-4.167876274e-07 	0.01887619983 	-3.382493209e-06 	3.598328324e-05
0.8514240754 	0.01361531506 	0.005340150662 	-5.463623273e-07 	0.01856041737 	-3.224543374e-06 	3.53813141e-05
0.8672128418 	0.01366088833 	0.005365473951 	-6.406554689e-07 	0.01820053078 	-3.073858209e-06 	3.469527024e-05
0.8819628947 	0.01366837887 	0.005369015735 	-7.02856073e-07 	0.01780085246 	-2.925698879e-06 	3.393337228e-05
0.8957424737 	0.01364319891 	0.005353554591 	-7.356600268e-07 	0.01736553205 	-2.776894326e-06 	3.310353058e-05
0.9086152595 	0.01359264698 	0.005322114137 	-7.419798372e-07 	0.01689842946 	-2.627590798e-06 	3.221310323e-05
0.9206406786 	0.01352518532 	0.005277573555 	-7.270347221e-07 	0.01640326783 	-2.480994229e-06 	3.126918754e-05
0.9318742292 	0.01344802047 	0.005221919731 	-7.003536217e-07 	0.01588487427 	-2.342426273e-06 	3.028098534e-05
0.942367767 	0.01336407625 	0.005155533826 	-6.752358618e-07 	0.01534968912 	-2.22420537e-06 	2.926077368e-05
0.952169758 	0.01327624552 	0.005083579226 	-6.629545229e-07 	0.01484670092 	-2.146505327e-06 	2.830193838e-05
0.9586584556 	0.01320206009 	0.005018316797 	-6.693253766e-07 	0.01443221209 	-2.12483471e-06 	2.751180748e-05
0.9644032374 	0.01314367952 	0.004960211104 	-6.727942941e-07 	0.01408278564 	-2.103699967e-06 	2.684570353e-05
0.9694892196 	0.01308514588 	0.004902578333 	-6.579776577e-07 	0.01376416701 	-2.049764693e-06 	2.623832787e-05
0.9739918181 	0.01301970031 	0.00484426963 	-6.082006572e-07 	0.01347160216 	-1.921065265e-06 	2.568061796e-05
0.9779778424 	0.01294033412 	0.00478350932 	-4.943988742e-07 	0.01319648871 	-1.626177847e-06 	2.515617525e-05
0.9815064743 	0.01283324299 	0.004715812747 	-2.903883732e-07 	0.01292312868 	-1.075620233e-06 	2.463507507e-05
0.9846301336 	0.01266221288 	0.004628743855 	1.099337332e-08 	0.012615748 	-2.367253644e-07 	2.404912205e-05
0.9873952463 	0.01233456996 	0.004489663896 	3.730751035e-07 	0.01218437625 	7.840074693e-07 	2.32268076e-05
0.9898429272 	0.01163078924 	0.004225697796 	7.47052887e-07 	0.0114147204 	1.700145247e-06 	2.175962965e-05
0.9920095855 	0.01023911484 	0.003774543777 	9.497471605e-07 	0.01000456141 	2.054921671e-06 	1.907147468e-05
0.9934171184 	0.008042658518 	0.00298452508 	6.866208079e-07 	0.007836728516 	1.554094157e-06 	1.493898266e-05
0.9948247484 	0.004824940376 	0.001735201337 	2.532923372e-07 	0.004698804125 	6.704361557e-07 	8.957226628e-06
0.9962324756 	0.001577561573 	0.0005196373057 	5.547773458e-08 	0.001541588162 	1.665288966e-07 	2.938695499e-06
0.9976403 	0.000130540037 	1.949863537e-05 	5.878178481e-09 	0.0001299866935 	3.931920028e-08 	2.477907657e-07
0.9990482216 	1.274134031e-06 	2.208986843e-08 	2.37289098e-11 	1.271643146e-06 	1.128830149e-09 	2.42410527e-09
0.9990482216 	1.274134031e-06 	2.208986843e-08 	2.37289098e-11 	1.271643146e-06 	1.128830149e-09 	2.42410527e-09
