0.4709558481 	0.1170298319 	0.0001157881665 	-8.580328443e-09
0.4720092239 	0.4478240507 	0.0001681400771 	-4.405965842e-09
0.4730625996 	0.8698951808 	-5.722323211e-05 	-6.632493464e-10
0.4741159754 	1.221474489 	-0.0001031416933 	-3.193088747e-08
0.4751693511 	1.485079452 	0.0001327850751 	-6.183108188e-08
0.4762227269 	1.704280592 	0.0002946272603 	-8.364215462e-08
0.4778443634 	1.912203609 	0.0004106497482 	-1.22162259e-07
0.4796765386 	2.097717787 	0.0005521959673 	-1.752003376e-07
0.4817465869 	2.259098321 	0.000731039527 	-2.418019028e-07
0.4840853915 	2.404834926 	0.0009658882957 	-3.264047675e-07
0.4867278453 	2.539880115 	0.001261922062 	-4.321843228e-07
0.4897133715 	2.666555123 	0.001624642397 	-5.582073314e-07
0.4930865115 	2.784555268 	0.002054512666 	-6.859543627e-07
0.4968975894 	2.890261382 	0.002520914144 	-7.675324871e-07
0.5012034633 	2.977192366 	0.002978574639 	-8.036128308e-07
0.506068373 	3.046273126 	0.003420501449 	-7.880054865e-07
0.5134203412 	3.095721275 	0.003760302625 	-6.832298295e-07
0.5212948542 	3.121922588 	0.00393603542 	-5.724663831e-07
0.529729052 	3.132913379 	0.004005231802 	-5.045208297e-07
0.5387627144 	3.136186439 	0.004007917149 	-4.537838706e-07
0.5484384488 	3.135247825 	0.003970837377 	-4.195202434e-07
0.5588018907 	3.131668547 	0.003904801487 	-3.920030353e-07
0.5699019192 	3.126171006 	0.003814973462 	-3.692924625e-07
0.5817908876 	3.119087382 	0.003704172869 	-3.494193982e-07
0.5945248701 	3.110557069 	0.003572961362 	-3.304498532e-07
0.6081639266 	3.100616909 	0.003420350702 	-3.107864939e-07
0.6227723857 	3.089245075 	0.003244397632 	-2.890948554e-07
0.638419148 	3.076383166 	0.003042587743 	-2.643988157e-07
0.6551780116 	3.061946645 	0.002812123955 	-2.362914751e-07
0.6731280194 	3.04582795 	0.002550115906 	-2.05074393e-07
0.6923538328 	3.027894661 	0.002253714206 	-1.722525425e-07
0.7129461301 	3.007984917 	0.001919709358 	-1.381534963e-07
0.7350020349 	2.98628401 	0.001550675752 	-9.914222515e-08
0.7570579485 	2.963843861 	0.001166427028 	-5.607818765e-08
0.7776502527 	2.941800985 	0.0007917184738 	-1.745069167e-08
0.7968760713 	2.920466993 	0.0004368876171 	1.185717384e-08
0.814826083 	2.899742197 	0.0001027786386 	3.456547734e-08
0.831584949 	2.879509563 	-0.0002111295018 	5.508377277e-08
0.8472317127 	2.859636015 	-0.0005052073575 	7.578024754e-08
0.8618401721 	2.839964545 	-0.000779322065 	9.782537945e-08
0.8754792281 	2.820301992 	-0.001032760269 	1.219037932e-07
0.8882132094 	2.800402765 	-0.001264233276 	1.484860439e-07
0.9001021759 	2.779946284 	-0.001471863169 	1.78107301e-07
0.9112022019 	2.758504213 	-0.001652721173 	2.116789326e-07
0.9215656407 	2.735492152 	-0.001802573909 	2.468306569e-07
0.9312413717 	2.710096321 	-0.001922040935 	2.787020642e-07
0.9402750304 	2.68111187 	-0.002002765014 	3.247602487e-07
0.9487092242 	2.646027269 	-0.002022758956 	3.880082105e-07
0.9565837329 	2.599511885 	-0.001964375651 	4.625974444e-07
0.9639356968 	2.538762585 	-0.001807598647 	5.323199436e-07
0.9688006083 	2.470363088 	-0.001582930965 	5.573808436e-07
0.9731064834 	2.394904578 	-0.001334579294 	5.318982229e-07
0.976917562 	2.307993309 	-0.001079054853 	4.703442243e-07
0.9802907021 	2.211047151 	-0.0008415991786 	3.887879115e-07
0.9832762282 	2.10506778 	-0.0006368333093 	3.031603508e-07
0.9859186816 	1.989856142 	-0.0004705101126 	2.248910039e-07
0.9882574856 	1.863520688 	-0.0003439525155 	1.595043646e-07
0.990327533 	1.721972316 	-0.000256228924 	1.07974906e-07
0.9921597073 	1.558170031 	-0.000191607316 	6.903630582e-08
0.9937813429 	1.374501489 	-0.0001299045681 	4.251539185e-08
0.9948347186 	1.182314972 	6.906964048e-07 	2.683607692e-08
0.9958880943 	0.9565364915 	0.00012933107 	1.424804622e-08
0.9969414701 	0.6687832413 	2.453939492e-06 	3.968537896e-09
0.9979948458 	0.3401674374 	-0.0001361728143 	1.66856381e-09
0.9990482216 	0.0974547461 	-6.760938547e-05 	1.578090133e-09
0.9990482216 	0.0974547461 	-6.760938547e-05 	1.578090133e-09
