1.218267812e-35 	1.174190155 	-7.980869948e-14 	2.75145836e-18
0.00190503019 	1.174222399 	-0.0003613598134 	4.472499108e-07
0.003810043283 	1.174355121 	-0.000674670543 	8.237071983e-07
0.005715039211 	1.174612956 	-0.0009929275227 	1.192486777e-06
0.007620017961 	1.174980006 	-0.001317998455 	1.558108783e-06
0.009524979574 	1.175531878 	-0.00169156692 	1.968302793e-06
0.01245757067 	1.176440183 	-0.002170146382 	2.463363777e-06
0.01577085506 	1.177815819 	-0.002740686854 	3.02383502e-06
0.01951424692 	1.17975745 	-0.003385072248 	3.615759572e-06
0.02376371923 	1.182448119 	-0.004113190575 	4.232429282e-06
0.02856971015 	1.186116919 	-0.004933977825 	4.863088215e-06
0.03399956521 	1.191052931 	-0.00585671933 	5.492115907e-06
0.04013425608 	1.197636224 	-0.006893494064 	6.100742167e-06
0.04710020392 	1.206353005 	-0.008056633954 	6.658908327e-06
0.05497248355 	1.217799604 	-0.009355733096 	7.133253937e-06
0.06388212204 	1.234313066 	-0.01094458355 	7.578449419e-06
0.07738804933 	1.259147459 	-0.01293524523 	7.631711373e-06
0.09190225286 	1.292391426 	-0.01512674929 	7.343216889e-06
0.1074900975 	1.333529081 	-0.01735253952 	6.573402604e-06
0.1242359314 	1.383645086 	-0.01957712184 	5.288287205e-06
0.1422279963 	1.443944258 	-0.0217404929 	3.46461705e-06
0.1615588878 	1.515694713 	-0.02374824396 	1.112745665e-06
0.1701363888 	1.550575604 	-0.02447383968 	2.454127773e-05
0.1823260612 	1.600165186 	-0.02551566888 	2.046843361e-06
0.2046323802 	1.698863033 	-0.02692316436 	5.880186618e-06
0.2285867053 	1.813502913 	-0.02777263403 	9.951288893e-06
0.254304522 	1.945674061 	-0.02782920908 	1.393314569e-05
0.2819095097 	2.096200365 	-0.02682887444 	1.73712514e-05
0.3115423872 	2.262922517 	-0.02445734965 	1.982749612e-05
0.3433329903 	2.430066492 	-0.02086879174 	2.203549549e-05
0.37743697 	2.550876037 	-0.01736810405 	2.453759553e-05
0.414010442 	2.601330098 	-0.01503214976 	2.603159061e-05
0.4532220137 	2.611570673 	-0.01332820061 	2.614133539e-05
0.4952525067 	2.607156616 	-0.01166127719 	2.545120316e-05
0.5373056793 	2.594603277 	-0.01010814939 	2.422585958e-05
0.5765818555 	2.577131341 	-0.008714179968 	2.272486861e-05
0.6132593029 	2.556685672 	-0.007472729933 	2.110642172e-05
0.6475070436 	2.534062887 	-0.006355119254 	1.946030045e-05
0.679484443 	2.509465788 	-0.00533811037 	1.783501924e-05
0.7093412355 	2.482785745 	-0.004402617724 	1.625831531e-05
0.7372173963 	2.453751627 	-0.003533933548 	1.472858795e-05
0.7632441099 	2.422007353 	-0.002729702309 	1.32460785e-05
0.7875439148 	2.38685061 	-0.001979401804 	1.183800997e-05
0.8102313055 	2.346537249 	-0.001257866975 	1.052486624e-05
0.8314132346 	2.298139487 	-0.0005312269531 	9.311434669e-06
0.8511895776 	2.238348708 	0.0002266057151 	8.169200257e-06
0.8696535944 	2.164373672 	0.001013256064 	7.057502378e-06
0.8868923629 	2.074598482 	0.001807396557 	5.934388204e-06
0.9029871861 	1.969037426 	0.00256231516 	4.732772772e-06
0.9180139737 	1.84949802 	0.003204224494 	3.407256476e-06
0.9320435986 	1.728703322 	0.003607861466 	2.099794433e-06
0.941327225 	1.624625034 	0.003736843992 	1.039490243e-06
0.9495440518 	1.535149232 	0.003673730637 	2.173885615e-07
0.9568166671 	1.452884704 	0.003468457578 	-4.325852495e-07
0.963253572 	1.378018996 	0.003153738432 	-8.999973238e-07
0.9689507996 	1.309871234 	0.002763940402 	-1.191042228e-06
0.9739933478 	1.246909037 	0.002332410946 	-1.323804095e-06
0.9784564469 	1.186611765 	0.001888258609 	-1.324512344e-06
0.9824066826 	1.125086051 	0.001453298241 	-1.223886751e-06
0.985902989 	1.056130299 	0.001042768667 	-1.047383003e-06
0.9889975281 	0.9753071327 	0.0006914460331 	-8.308272967e-07
0.9910076668 	0.8817740872 	0.0004968222019 	-6.370366509e-07
0.9930178055 	0.7517734933 	0.0004685396401 	-4.465479411e-07
0.9950279442 	0.5483281378 	0.0002353220934 	-1.999810304e-07
0.9970380829 	0.2823768665 	-0.0001022030923 	-3.588211643e-08
0.9990482216 	0.07988056308 	-0.0001107459222 	-5.681812171e-09
0.9990482216 	0.07988056308 	-0.0001107459222 	-5.681812171e-09
