0.26666667 	0.0002409929 	-5.3298814e-06 	2.2003268e-07 	0.00024730089 	-3.7537093e-06 	5.1978448e-07
0.27777778 	0.026751223 	-0.0084964061 	1.795499e-05 	0.036794775 	-2.264859e-05 	0.0038726787
0.28888889 	0.041510136 	-0.014492734 	-1.2489314e-05 	0.055772658 	8.4903473e-05 	0.013220021
0.3 	0.047894284 	-0.017252641 	-2.0496945e-06 	0.062152784 	9.0389425e-06 	0.045966961
0.31111111 	0.047683322 	-0.017086357 	-5.3682255e-05 	0.059567117 	0.00020104626 	0.024839623
0.32222222 	0.044792586 	-0.015917948 	-6.0911768e-06 	0.053904648 	2.0757752e-05 	0.044927878
0.33333333 	0.041191387 	-0.014415042 	-1.3433196e-06 	0.04797151 	4.4548936e-06 	0.040773327
0.34444444 	0.037806208 	-0.012858751 	3.7583936e-06 	0.042566158 	-1.3057161e-05 	0.035662532
0.35555556 	0.034940962 	-0.011554205 	-5.6637189e-06 	0.038151975 	1.8628094e-05 	0.028189755
0.36666667 	0.032638541 	-0.010567936 	-2.1818398e-05 	0.034699753 	7.2826259e-05 	0.015193368
0.37777778 	0.030481591 	-0.0097161138 	-3.4458957e-05 	0.031591854 	0.00011960003 	0.0016623696
0.38888889 	0.028132155 	-0.0088260715 	-9.8649381e-06 	0.028434175 	3.6196712e-05 	0.013918454
0.4 	0.026097926 	-0.0081114718 	8.9160729e-06 	0.025765022 	-3.2634963e-05 	0.018661121
0.41111111 	0.024211676 	-0.0074825152 	-7.7419532e-06 	0.023332878 	2.9880076e-05 	0.0097525224
0.42222222 	0.022326372 	-0.0068422268 	-8.3150246e-06 	0.020984901 	3.2541646e-05 	0.0075179807
0.43333333 	0.020494013 	-0.0062263475 	1.1263808e-05 	0.018755995 	-3.6220141e-05 	0.012504341
0.44444444 	0.018789125 	-0.005581986 	-8.7613838e-06 	0.016691219 	3.2673276e-05 	0.0037751192
0.45555556 	0.017215223 	-0.0049578562 	3.9028032e-06 	0.014812844 	-1.0957209e-05 	0.0097527959
0.46666667 	0.015764248 	-0.0043298931 	1.7530668e-07 	0.013077039 	-4.2656737e-07 	0.0079703222
0.47777778 	0.014701658 	-0.0037487379 	-7.4099443e-07 	0.011725423 	2.2260293e-06 	0.0070432884
0.48888889 	0.013765735 	-0.0032056244 	4.34897e-06 	0.010509003 	-8.9914874e-06 	0.0064012305
0.5 	0.013221877 	-0.0027306703 	-1.2121982e-06 	0.0096213832 	3.2533228e-06 	0.0051423133
0.51111111 	0.01282372 	-0.0023007897 	4.371259e-06 	0.0088853073 	-6.8792854e-06 	0.0055153129
0.52222222 	0.01274406 	-0.0019156822 	4.0682262e-07 	0.0083909114 	-6.4023863e-07 	0.0053363866
0.53333333 	0.012775013 	-0.0015616359 	2.2819529e-06 	0.008028242 	-2.0174593e-06 	0.0051564034
0.54444444 	0.013020305 	-0.0012257956 	3.7828911e-06 	0.0078667674 	-3.3444287e-06 	0.0050319819
0.55555556 	0.013312917 	-0.00090365011 	-9.379925e-07 	0.0077565839 	1.783433e-06 	0.0040046033
0.56666667 	0.013711566 	-0.00059425496 	8.3916704e-06 	0.007815907 	-1.8911043e-06 	0.0050213095
0.57777778 	0.014130261 	-0.00028125585 	-3.4811445e-06 	0.0079222874 	5.132068e-06 	0.00045373212
0.58888889 	0.014594737 	6.6225913e-06 	6.6933226e-06 	0.008087521 	1.7232074e-06 	0.0051465256
0.6 	0.015076098 	0.0003015493 	1.7397617e-06 	0.0083137531 	4.4790462e-07 	0.0051214048
0.61111111 	0.015545897 	0.00058484815 	-4.027949e-07 	0.0085917269 	5.0797493e-07 	0.0047410714
0.62222222 	0.016018819 	0.00086079209 	9.1792045e-06 	0.0089386316 	6.7767466e-06 	0.005372504
0.63333333 	0.016484289 	0.0011374196 	-1.281665e-06 	0.0092934182 	1.4180298e-06 	0.0033912929
0.64444444 	0.016944941 	0.0014018887 	2.3269443e-06 	0.0097073273 	2.8628962e-06 	0.0056838401
0.65555556 	0.017393305 	0.0016636408 	5.2848861e-06 	0.010166332 	6.502124e-06 	0.005759939
0.66666667 	0.017823055 	0.0019235942 	-3.2603098e-06 	0.01061393 	2.9741712e-06 	0.00012442335
0.67777778 	0.018290592 	0.0021856834 	5.2170749e-06 	0.011138811 	8.1691068e-06 	0.0061830452
0.68888889 	0.018741126 	0.0024464829 	6.5871889e-07 	0.01167422 	1.0314487e-06 	0.0063035671
0.7 	0.019191891 	0.0027090682 	5.421041e-08 	0.012209022 	9.5173676e-08 	0.0066848618
0.71111111 	0.019657457 	0.0029786476 	4.276403e-06 	0.012801993 	7.5078015e-06 	0.0068437484
0.72222222 	0.020113301 	0.0032493237 	-2.3886344e-06 	0.013376596 	1.4088813e-06 	0.0016064716
0.73333333 	0.020622204 	0.0035411093 	6.8291258e-06 	0.01402905 	1.258205e-05 	0.0074761014
0.74444444 	0.021118001 	0.003834724 	-2.252779e-06 	0.014667399 	9.683339e-07 	0.0018629081
0.75555556 	0.021675063 	0.0041554664 	5.2327928e-06 	0.015382779 	9.9561099e-06 	0.0082171438
0.76666667 	0.022235308 	0.0044823659 	-1.8009891e-06 	0.016102262 	4.7573707e-07 	0.0032333248
0.77777778 	0.02286177 	0.0048379421 	5.0635678e-06 	0.016900819 	1.0052903e-05 	0.0090812608
0.78888889 	0.02350114 	0.0051995624 	-2.2029308e-06 	0.017708078 	2.2590612e-07 	0.0021029845
0.8 	0.024226233 	0.0055943572 	6.5122236e-06 	0.018622583 	1.36601e-05 	0.010078926
0.81111111 	0.024966381 	0.0059918694 	-2.0453536e-06 	0.019536858 	-9.1829502e-08 	0.0026694714
0.82222222 	0.025805954 	0.006423758 	2.3817413e-06 	0.020580848 	5.2971436e-06 	0.011216054
0.83333333 	0.02668276 	0.0068663588 	1.6605601e-07 	0.021646932 	3.8961269e-07 	0.012162751
0.84444444 	0.027625043 	0.0073218831 	-1.337786e-06 	0.022778264 	-3.4249919e-07 	0.004687109
0.85555556 	0.028667696 	0.0078141016 	3.8304838e-06 	0.0240335 	9.3930657e-06 	0.013555509
0.86666667 	0.029767372 	0.0083209486 	-3.6429816e-08 	0.025332521 	-1.0035683e-08 	0.014400335
0.87777778 	0.030935302 	0.0088405153 	-1.2680133e-06 	0.026683838 	-1.7402436e-07 	0.00014317802
0.88888889 	0.032241387 	0.0094140878 	-1.7773818e-07 	0.028221137 	1.0166762e-07 	0.012297088
0.9 	0.033638194 	0.010015553 	2.5679529e-06 	0.029842161 	6.845409e-06 	0.017687526
0.91111111 	0.035141973 	0.010650611 	3.9981887e-06 	0.031572685 	1.0904101e-05 	0.019112981
0.92222222 	0.036759091 	0.011321049 	1.6764423e-06 	0.033433698 	4.7068659e-06 	0.020613687
0.93333333 	0.038465358 	0.012014526 	9.1742892e-07 	0.035411034 	2.6326525e-06 	0.022163759
0.94444444 	0.040150569 	0.012699902 	1.296819e-06 	0.037409791 	4.3386392e-06 	0.02369498
0.95555556 	0.041497966 	0.013177318 	6.4935832e-07 	0.039142924 	1.863078e-06 	0.018022511
0.96666667 	0.041950879 	0.013357341 	5.2515769e-08 	0.040111584 	1.7647634e-07 	0.025125822
0.97777778 	0.039786976 	0.012548922 	-9.4147034e-08 	0.038588161 	6.0664543e-07 	0.011410662
0.98888889 	0.030641382 	0.0095060535 	-8.8761592e-07 	0.030252264 	-1.8751889e-06 	0.014158441
