0 	1.2401359 	-8.422376e-14 	-3.0613092e-20
0.010869565 	1.243797 	-0.0016865747 	5.465071e-07
0.02173913 	1.2517961 	-0.0033269376 	1.5403141e-07
0.032608696 	1.2634819 	-0.0049526051 	6.1692274e-08
0.043478261 	1.2787979 	-0.0065492155 	5.9651241e-07
0.054347826 	1.2975042 	-0.0081230853 	4.5056537e-06
0.065217391 	1.320949 	-0.009722503 	5.0617731e-06
0.076086957 	1.3444288 	-0.011068088 	7.4199769e-06
0.086956522 	1.3715398 	-0.012398908 	1.7833377e-07
0.097826087 	1.4019357 	-0.013699276 	5.8400815e-07
0.10869565 	1.4356935 	-0.01493567 	1.388359e-05
0.11956522 	1.4703613 	-0.01601367 	6.5513128e-06
0.13043478 	1.5076837 	-0.017022674 	4.0643651e-06
0.14130435 	1.5486768 	-0.017947642 	2.2969781e-05
0.15217391 	1.5882809 	-0.018697304 	7.2587098e-07
0.16304348 	1.6340004 	-0.019371138 	2.4820859e-05
0.17391304 	1.6776095 	-0.019881878 	5.4147516e-06
0.18478261 	1.726261 	-0.020271847 	2.2168908e-05
0.19565217 	1.7730459 	-0.020522311 	3.2174757e-06
0.20652174 	1.8247321 	-0.020613017 	2.2051431e-05
0.2173913 	1.8734928 	-0.020587831 	5.4448572e-06
0.22826087 	1.9278757 	-0.020372818 	2.4557333e-05
0.23913043 	1.9775913 	-0.020069871 	4.2767144e-06
0.25 	2.0316352 	-0.019572605 	1.2177972e-05
0.26086957 	2.0833639 	-0.018999056 	6.578068e-06
0.27173913 	2.1344552 	-0.018333898 	4.1207469e-06
0.2826087 	2.1862008 	-0.017565924 	1.6370325e-05
0.29347826 	2.2333249 	-0.016781775 	1.4103343e-05
0.30434783 	2.2794165 	-0.016006455 	3.3655262e-06
0.31521739 	2.3228545 	-0.015237503 	9.1527254e-06
0.32608696 	2.3619453 	-0.014510114 	2.8965284e-05
0.33695652 	2.3986748 	-0.013853536 	3.9115753e-06
0.34782609 	2.4315049 	-0.013256075 	6.6962561e-06
0.35869565 	2.4600378 	-0.012700479 	2.7311856e-05
0.36956522 	2.486864 	-0.012185214 	5.8939702e-07
0.38043478 	2.5092958 	-0.011748229 	7.9424254e-06
0.39130435 	2.5283055 	-0.011309241 	1.8206513e-05
0.40217391 	2.5454549 	-0.010896166 	1.1137144e-05
0.41304348 	2.5602196 	-0.010523573 	9.9458781e-06
0.42391304 	2.5718919 	-0.010140892 	5.6980248e-06
0.43478261 	2.5808135 	-0.0097780728 	2.5881311e-05
0.44565217 	2.5897352 	-0.0094152532 	4.0628935e-07
0.45652174 	2.5952502 	-0.0090864966 	4.9864847e-06
0.4673913 	2.5988024 	-0.0087468832 	1.5597694e-05
0.47826087 	2.6013813 	-0.0084158655 	2.0223178e-05
0.48913043 	2.6037434 	-0.0080885664 	1.0031818e-06
0.5 	2.6037194 	-0.0077781495 	2.0812312e-06
0.51086957 	2.6022944 	-0.0074608712 	1.820742e-05
0.52173913 	2.6005789 	-0.0071481725 	1.6673861e-05
0.5326087 	2.5986015 	-0.0068429872 	1.6640565e-06
0.54347826 	2.5950167 	-0.0065408643 	1.0800011e-06
0.55434783 	2.5904045 	-0.0062370568 	2.079165e-05
0.56521739 	2.5857923 	-0.0059332492 	9.7627931e-06
0.57608696 	2.5806867 	-0.0056536145 	4.938235e-06
0.58695652 	2.5743822 	-0.0053478632 	9.1516962e-06
0.59782609 	2.5677052 	-0.0050531398 	1.6183112e-05
0.60869565 	2.5610116 	-0.0047594697 	2.1885928e-07
0.61956522 	2.5532016 	-0.0044777426 	3.1810722e-06
0.63043478 	2.5447064 	-0.0041864773 	1.8274574e-05
0.64130435 	2.5362111 	-0.003895212 	2.7599718e-06
0.65217391 	2.5268489 	-0.0036130854 	1.3136653e-06
0.66304348 	2.5164498 	-0.0033186571 	1.7095894e-05
0.67391304 	2.5060506 	-0.0030242288 	2.3590948e-06
0.68478261 	2.4945546 	-0.002734312 	2.6987365e-06
0.69565217 	2.4819758 	-0.0024302645 	1.3761166e-05
0.70652174 	2.4693393 	-0.0021288812 	6.179788e-07
0.7173913 	2.4548719 	-0.0018188322 	7.0316316e-06
0.72826087 	2.439707 	-0.0014993387 	7.8053862e-06
0.73913043 	2.4238689 	-0.0011847724 	8.5527731e-07
0.75 	2.4057024 	-0.00084393442 	1.4302801e-05
0.76086957 	2.3873721 	-0.00050651643 	4.9420872e-07
0.77173913 	2.3662558 	-0.00015363451 	8.7167531e-06
0.7826087 	2.3443021 	0.00020839116 	3.1444595e-06
0.79347826 	2.3199346 	0.00057638025 	5.3373425e-06
0.80434783 	2.2936382 	0.0009597853 	4.936355e-06
0.81521739 	2.2649971 	0.0013447555 	4.1988183e-06
0.82608696 	2.233691 	0.0017430505 	4.4395059e-06
0.83695652 	2.1994637 	0.0021367841 	5.1740278e-06
0.84782609 	2.1625202 	0.0025360624 	1.7060115e-06
0.85869565 	2.1212855 	0.002914982 	7.655887e-06
0.86956522 	2.0778795 	0.0032780975 	9.3360503e-07
0.88043478 	2.0286156 	0.0036096705 	5.0465606e-06
0.89130435 	1.9763404 	0.0038871754 	1.951517e-06
0.90217391 	1.9200384 	0.0041029628 	1.6095136e-07
0.91304348 	1.857934 	0.0042033142 	4.8320806e-07
0.92391304 	1.7937923 	0.004189254 	-2.3590353e-06
0.93478261 	1.7249385 	0.0040376307 	-2.455107e-06
0.94565217 	1.6445764 	0.003679326 	-5.7168485e-06
0.95652174 	1.5609682 	0.0031458106 	-3.5065708e-07
0.9673913 	1.4643184 	0.0024047834 	-3.1187501e-06
0.97826087 	1.3416707 	0.0015039095 	-2.5111427e-07
0.98913043 	1.1191364 	0.00052956131 	-7.3422612e-08
