0.17894737 	0.0070358421 	-0.0012021294 	-1.1647713e-05 	0.0048740422 	2.4961683e-05 	0.0016705973
0.18947368 	0.0080013816 	0.000120137 	7.433813e-07 	0.01433677 	2.9359227e-06 	0.0044481312
0.2 	0.0077665016 	-0.00042061451 	-9.5679138e-07 	0.014010913 	-2.0566066e-06 	0.0030263279
0.21052632 	0.0076624839 	-0.00074194318 	-1.9819439e-06 	0.013410027 	-6.9411304e-06 	0.0019529908
0.22105263 	0.0075763431 	-0.00089189627 	-4.0362219e-07 	0.013050802 	-2.4292016e-06 	0.0010114579
0.23157895 	0.0075234063 	-0.00097368855 	-1.0688783e-06 	0.012857761 	-7.9352007e-06 	0.00015730884
0.24210526 	0.0074940477 	-0.0010138652 	-5.070101e-07 	0.012779303 	-7.2600376e-06 	0.00072150858
0.25263158 	0.0074853583 	-0.0010315698 	-3.6903462e-07 	0.012775737 	-7.8235505e-06 	0.001528277
0.26315789 	0.0074977517 	-0.001041006 	-1.6799898e-07 	0.012828807 	-4.4810625e-06 	0.0023210348
0.27368421 	0.0075328689 	-0.0010485496 	2.4611652e-06 	0.012913642 	-2.1978907e-06 	0.0022779621
0.28421053 	0.0075950286 	-0.0010539961 	8.926824e-06 	0.01301164 	-6.5346955e-06 	0.00092067187
0.29473684 	0.0076342428 	-0.0010384976 	4.4549836e-10 	0.01323102 	-1.6205022e-07 	0.004635891
0.30526316 	0.007707348 	-0.0010274135 	3.9990832e-06 	0.013407609 	-2.3662284e-06 	0.0041191003
0.31578947 	0.0078148964 	-0.0010162119 	1.7783365e-05 	0.013545382 	-8.3607144e-06 	0.00046128242
0.32631579 	0.0078600664 	-0.00098397091 	2.1241651e-06 	0.013861546 	-7.8116513e-07 	0.0057210034
0.33684211 	0.0079770013 	-0.00095796939 	9.9578668e-06 	0.014042328 	-3.6620215e-06 	0.0023688496
0.34736842 	0.0080609485 	-0.00091666571 	4.9233753e-06 	0.014319132 	-1.4033173e-06 	0.0036036856
0.35789474 	0.0081557321 	-0.00087526002 	2.2948428e-06 	0.014590754 	-6.5410259e-07 	0.0040107618
0.36842105 	0.0082659807 	-0.00081836122 	4.6302684e-06 	0.014845125 	-1.0350834e-06 	0.0026269821
0.37894737 	0.0083590464 	-0.00076114128 	2.7128132e-07 	0.015149524 	-6.3532286e-07 	0.0037654913
0.38947368 	0.0084698541 	-0.00068748807 	1.3272226e-06 	0.01542476 	-2.4619817e-07 	0.0027365636
0.4 	0.0085747505 	-0.00061237198 	6.4939982e-07 	0.015723742 	-1.0217664e-06 	0.0027549013
0.41052632 	0.0086845864 	-0.00052258485 	6.5423519e-07 	0.016016592 	-1.0293744e-06 	0.0022252462
0.42105263 	0.0087944347 	-0.00042900619 	6.7741056e-07 	0.016315538 	-7.6249259e-07 	0.0017903916
0.43157895 	0.0089067246 	-0.00032105451 	2.4321048e-06 	0.016613897 	-2.7375745e-06 	0.001306284
0.44210526 	0.0090185271 	-0.00021154275 	1.0525364e-07 	0.016914231 	-2.0244271e-08 	0.00082460008
0.45263158 	0.0091331708 	-8.2882365e-05 	4.8993022e-06 	0.017213305 	-4.2520366e-06 	0.00043090241
0.46315789 	0.0092481862 	4.5743067e-05 	1.5929409e-06 	0.01751207 	-1.3824913e-06 	7.1035008e-05
0.47368421 	0.0093668286 	0.00018892788 	3.2648764e-06 	0.017810906 	-2.3066295e-06 	0.00049663729
0.48421053 	0.0094869827 	0.00034178311 	4.8371264e-06 	0.018108529 	-3.4174213e-06 	0.00089132529
0.49473684 	0.0096144373 	0.00049085416 	2.2963773e-06 	0.018393787 	-1.3549807e-06 	0.00010025309
0.50526316 	0.0097390315 	0.00067429781 	5.2622123e-06 	0.018686614 	-3.301152e-06 	0.0016867139
0.51578947 	0.0098686706 	0.00085876827 	3.7014189e-06 	0.018971353 	-2.322017e-06 	0.002018966
0.52631579 	0.010010588 	0.0010394058 	2.1088293e-06 	0.019236907 	-1.518595e-06 	0.0010955412
0.53684211 	0.010151264 	0.0012527785 	6.2544469e-06 	0.019505833 	-3.9823196e-06 	0.0027413666
0.54736842 	0.010297151 	0.0014697734 	3.4480391e-06 	0.019766129 	-2.1954289e-06 	0.0030065027
0.55789474 	0.010460635 	0.0016783922 	2.9648748e-06 	0.019999135 	-2.8053749e-06 	0.00087749137
0.56842105 	0.010617933 	0.0019049893 	5.1347177e-06 	0.020236734 	-3.9874533e-06 	0.0036697561
0.57894737 	0.010783847 	0.0021410393 	4.636299e-06 	0.020455571 	-3.6003977e-06 	0.0038634661
0.58947368 	0.010963923 	0.0023691531 	2.521492e-06 	0.020647425 	-3.4104898e-06 	0.00084326212
0.6 	0.011149745 	0.002591201 	2.0775887e-06 	0.02084616 	-2.6530317e-06 	0.0044717202
0.61052632 	0.011358209 	0.0028153647 	5.4715255e-06 	0.020984184 	-6.9870086e-06 	0.0045926339
0.62105263 	0.011572024 	0.0030336996 	1.0860794e-06 	0.02110512 	-1.3971636e-06 	0.0026424035
0.63157895 	0.011771699 	0.0032601712 	1.6625417e-07 	0.021280657 	-3.3364006e-07 	0.005110934
0.64210526 	0.012019424 	0.0034564967 	4.563668e-06 	0.02134911 	-9.1584018e-06 	0.0051634222
0.65263158 	0.012274617 	0.0036429758 	9.630213e-07 	0.021393079 	-3.2672852e-07 	0.0031799387
0.66315789 	0.01248266 	0.0038672103 	1.6476945e-07 	0.021541326 	-4.8457892e-07 	0.0055496847
0.67368421 	0.012743724 	0.0040301968 	2.681436e-06 	0.021576189 	-7.8859727e-06 	0.0055410254
0.68421053 	0.013032801 	0.0041566375 	1.792518e-06 	0.021538939 	6.3336972e-07 	0.0018649443
0.69473684 	0.013272778 	0.0043255155 	7.4596854e-07 	0.021613422 	-3.7924774e-06 	0.005807855
0.70526316 	0.013542382 	0.0044513381 	7.8228987e-07 	0.021616073 	-3.9771337e-06 	0.0057450756
0.71578947 	0.013834055 	0.0045397006 	1.8618975e-06 	0.021553905 	1.2888483e-06 	0.0022087746
0.72631579 	0.014086494 	0.0046603394 	1.2456025e-06 	0.021579465 	-9.8424146e-06 	0.005858121
0.73684211 	0.014355989 	0.0047565149 	1.2281773e-06 	0.02154976 	1.0004479e-06 	0.0033598705
0.74736842 	0.014612868 	0.0048491208 	3.7446628e-07 	0.021538081 	-4.077936e-06 	0.0058493209
0.75789474 	0.014863903 	0.0049432634 	1.8048035e-07 	0.021524984 	-1.9654301e-06 	0.005699059
0.76842105 	0.015116137 	0.0050212162 	4.5626173e-08 	0.02148995 	-7.5849273e-07 	0.0057252785
0.77894737 	0.015353305 	0.0051062222 	2.7081049e-07 	0.021468534 	-4.5019728e-06 	0.0055416801
0.78947368 	0.015592115 	0.0051790399 	2.0160466e-07 	0.021426677 	1.7249136e-07 	0.0049151431
0.8 	0.015814528 	0.0052554635 	1.5861024e-07 	0.021394923 	-5.2013434e-06 	0.0052870109
0.81052632 	0.01603723 	0.0053216431 	1.7593097e-10 	0.021344469 	-1.7099196e-07 	0.0051815285
0.82105263 	0.016244194 	0.0053892457 	4.2585572e-09 	0.021295575 	-4.1390042e-06 	0.0049487451
0.83157895 	0.016448482 	0.0054467947 	-7.424296e-08 	0.021228803 	-2.7530313e-06 	0.0047908847
0.84210526 	0.01663994 	0.0055052554 	-3.3658926e-08 	0.02116165 	-1.2481194e-06 	0.0045409553
0.85263158 	0.016824494 	0.0055527636 	-3.7860021e-07 	0.021072482 	-7.3533753e-06 	0.0043404831
0.86315789 	0.017002845 	0.0055978714 	3.271702e-07 	0.020970946 	2.9489814e-07 	0.0012858809
0.87368421 	0.017165822 	0.0056397823 	-3.3655556e-07 	0.020868633 	-4.7560638e-06 	0.0038435221
0.88421053 	0.017324677 	0.0056752091 	-5.3454465e-07 	0.020743271 	-6.3939791e-06 	0.0035923589
0.89473684 	0.017476449 	0.0057079699 	2.3814419e-08 	0.020605757 	2.4062658e-08 	0.00287734
0.90526316 	0.017616522 	0.0057394963 	-1.7107154e-07 	0.020455473 	-1.9055288e-06 	0.0030409105
0.91578947 	0.017751368 	0.0057678503 	-5.9126499e-07 	0.020284948 	-6.556273e-06 	0.0027603463
0.92631579 	0.017879378 	0.0057952338 	-7.713981e-07 	0.020100104 	-8.3480435e-06 	0.0024726952
0.93684211 	0.017999296 	0.0058124354 	-9.2858542e-07 	0.019904907 	-5.6027513e-06 	0.0021805319
0.94736842 	0.018122888 	0.0058065766 	-6.5079479e-07 	0.019702264 	-4.7003075e-06 	0.0018880851
0.95789474 	0.018304511 	0.0058515652 	1.5541651e-08 	0.019533406 	-6.4952435e-07 	0.0015963537
0.96842105 	0.01861597 	0.0059606177 	3.3862851e-07 	0.01950025 	-9.0726997e-07 	0.0013126256
0.97894737 	0.019065806 	0.0061055506 	8.5643814e-09 	0.019606014 	-2.7695654e-07 	0.0010307419
0.98947368 	0.018042818 	0.0058093625 	-7.7869452e-06 	0.018241126 	-2.5815998e-05 	0.00067907667
