0.47777778 	1.8504151 	9.8031701e-05 	-3.3150133e-08
0.48888889 	2.3725994 	0.00029880055 	-5.4458434e-08
0.5 	2.608341 	0.00055839288 	-1.0057531e-07
0.51111111 	2.7625019 	0.0008464268 	-1.2539238e-07
0.52222222 	2.8743519 	0.0011559895 	-3.8231187e-07
0.53333333 	2.9594943 	0.0014612966 	-7.4960552e-08
0.54444444 	3.0245854 	0.0017595737 	-7.0039466e-08
0.55555556 	3.0733522 	0.002029072 	-2.5796917e-07
0.56666667 	3.1076362 	0.0022440966 	-2.878037e-07
0.57777778 	3.128708 	0.0023762308 	-1.8133266e-07
0.58888889 	3.1393073 	0.0024230491 	-1.328517e-08
0.6 	3.1423608 	0.0023971766 	-7.2036111e-08
0.61111111 	3.1413446 	0.0023294928 	-2.8657722e-07
0.62222222 	3.1381604 	0.0022394066 	-4.1075535e-07
0.63333333 	3.1337135 	0.0021387121 	-1.1055083e-07
0.64444444 	3.1280784 	0.0020222419 	-8.3225483e-08
0.65555556 	3.1215031 	0.0018928364 	-3.2800809e-07
0.66666667 	3.1148034 	0.0017670944 	-6.0597934e-08
0.67777778 	3.1073022 	0.0016305131 	-1.3968349e-07
0.68888889 	3.0994103 	0.0014921882 	-1.4973204e-07
0.7 	3.0913488 	0.0013549344 	-4.6433292e-08
0.71111111 	3.0824223 	0.0012102588 	-1.5769923e-07
0.72222222 	3.0737202 	0.0010726957 	-1.5465455e-08
0.73333333 	3.0640902 	0.00093114422 	-1.1500678e-07
0.74444444 	3.0543447 	0.0007910364 	-8.5748617e-09
0.75555556 	3.0439499 	0.0006558865 	-6.4354186e-08
0.76666667 	3.0329152 	0.00051601617 	-1.198772e-07
0.77777778 	3.0212831 	0.00038739468 	-1.2185794e-08
0.78888889 	3.008832 	0.00025568073 	4.1081229e-09
0.8 	2.9955503 	0.00013606015 	3.1119734e-08
0.81111111 	2.9812617 	2.1013727e-05 	6.0273622e-08
0.82222222 	2.9658817 	-8.8071172e-05 	3.5151658e-09
0.83333333 	2.9489089 	-0.00018005405 	1.2689566e-07
0.84444444 	2.9302249 	-0.00026404759 	1.3309305e-07
0.85555556 	2.9095667 	-0.00033633115 	1.3169537e-08
0.86666667 	2.8861408 	-0.00038870974 	5.8550531e-08
0.87777778 	2.8594751 	-0.00042297825 	1.7839292e-07
0.88888889 	2.8289314 	-0.00043949319 	2.7693494e-07
0.9 	2.7934152 	-0.00043681048 	3.1808729e-07
0.91111111 	2.7516053 	-0.00041461511 	3.1323328e-07
0.92222222 	2.7017774 	-0.00037425527 	2.5691696e-07
0.93333333 	2.641661 	-0.00031871468 	1.3513491e-07
0.94444444 	2.5681751 	-0.0002520168 	9.0929597e-08
0.95555556 	2.4744036 	-0.0001838583 	1.1816584e-07
0.96666667 	2.3502959 	-0.00011394176 	3.5154633e-09
0.97777778 	2.1685147 	-5.8612213e-05 	2.9518072e-08
0.98888889 	1.8250398 	-1.7973444e-05 	7.7927753e-09
