0.47777778 	0.038680671 	-0.012512409 	3.5516861e-07 	0.038644402 	-8.5718398e-07 	0.00060944111
0.48888889 	0.040755464 	-0.013015834 	1.3172648e-07 	0.040760785 	-4.800236e-08 	0.018115911
0.5 	0.037424879 	-0.012007501 	5.1557832e-08 	0.037427546 	4.1369963e-07 	0.016903036
0.51111111 	0.033404854 	-0.010836043 	-5.2481425e-08 	0.033402322 	7.1672988e-07 	0.018069907
0.52222222 	0.029081526 	-0.0094237035 	-2.2151293e-07 	0.029051333 	1.8340782e-06 	0.0074392428
0.53333333 	0.024867069 	-0.0080441218 	-1.2837951e-08 	0.024854722 	8.525261e-08 	0.01987398
0.54444444 	0.020889725 	-0.0066647328 	-1.4121915e-07 	0.020865132 	6.0795727e-07 	0.015096686
0.55555556 	0.017392319 	-0.0052748519 	-4.4222982e-07 	0.017357834 	1.5141195e-06 	0.0094654245
0.56666667 	0.014544011 	-0.0039604631 	-5.3841382e-07 	0.014512082 	1.4996028e-06 	0.0073899516
0.57777778 	0.012415398 	-0.0027969804 	-3.7179098e-07 	0.01239708 	8.3810824e-07 	0.0074635065
0.58888889 	0.010991065 	-0.0018209984 	-7.9998836e-08 	0.010995206 	1.2480868e-07 	0.0089125835
0.6 	0.010221959 	-0.0010393136 	-4.6986946e-08 	0.010248888 	7.33058e-08 	0.0086701365
0.61111111 	0.0099551792 	-0.00037477644 	-3.5411409e-07 	0.0099960125 	1.9651464e-07 	0.0045506798
0.62222222 	0.009952286 	0.00020670789 	-4.589658e-07 	0.010003148 	-3.3440106e-07 	0.00020639034
0.63333333 	0.010105035 	0.00070541686 	-6.6562043e-08 	0.010185738 	-2.6097705e-07 	0.006038588
0.64444444 	0.010374602 	0.0011481739 	-3.1443234e-08 	0.010473873 	-1.2328291e-07 	0.0079196751
0.65555556 	0.010718404 	0.0015470532 	6.8030544e-08 	0.010810009 	-8.9447776e-07 	0.0009509489
0.66666667 	0.011068552 	0.0018992882 	8.1437391e-08 	0.011182477 	-2.748383e-07 	0.0073323163
0.67777778 	0.011454805 	0.0022232626 	1.3677152e-07 	0.011568508 	-4.6158224e-07 	0.0059082603
0.68888889 	0.011854874 	0.0025248014 	3.3827427e-07 	0.011962469 	-6.9526377e-07 	0.003666277
0.7 	0.012249985 	0.0028010879 	7.8650461e-08 	0.012370296 	-1.6165231e-07 	0.0092343243
0.71111111 	0.012680058 	0.0030707648 	5.7767007e-07 	0.012775011 	-8.3618363e-07 	0.0017411429
0.72222222 	0.013085462 	0.0033171136 	3.1936854e-08 	0.013198489 	-4.622894e-08 	0.010944821
0.73333333 	0.013530411 	0.0035605738 	7.016688e-07 	0.013609 	-7.1998489e-07 	0.0015581034
0.74444444 	0.013968453 	0.0037966961 	2.4733687e-08 	0.014063793 	-2.5379325e-08 	0.01178123
0.75555556 	0.014438328 	0.0040266686 	7.8992922e-07 	0.01449395 	-5.2656931e-07 	0.00148099
0.76666667 	0.014927335 	0.0042639316 	3.6944262e-07 	0.01499883 	5.9104249e-07 	0.012857842
0.77777778 	0.015453331 	0.0044998863 	9.113567e-07 	0.015477876 	-3.0096533e-07 	0.00066377956
0.78888889 	0.016008891 	0.0047476774 	1.0728865e-07 	0.016046464 	-3.9230913e-10 	0.012127132
0.8 	0.016614617 	0.0050032149 	5.8063839e-07 	0.016619084 	-2.1231486e-09 	0.0059978666
0.81111111 	0.0172703 	0.0052735034 	5.7801698e-07 	0.017257471 	1.8220812e-07 	0.0062169214
0.82222222 	0.017979069 	0.005561375 	5.67734e-08 	0.017969861 	1.2726861e-07 	0.015225405
0.83333333 	0.018777273 	0.0058690457 	7.3885626e-07 	0.018723217 	4.6002016e-07 	0.004524548
0.84444444 	0.019651539 	0.0062019317 	6.4075292e-07 	0.0195831 	5.8524197e-07 	0.0060034818
0.85555556 	0.02061515 	0.0065633006 	6.2437959e-08 	0.0205531 	7.3865532e-08 	0.016066274
0.86666667 	0.021693078 	0.0069529115 	1.7951128e-07 	0.021611792 	2.1236595e-07 	0.014942643
0.87777778 	0.022886169 	0.0073706838 	5.4341463e-07 	0.022775337 	7.7630757e-07 	0.0083980979
0.88888889 	0.024195267 	0.0078181251 	7.6328625e-07 	0.02406077 	1.2583025e-06 	0.0032171905
0.9 	0.025626755 	0.0082954804 	8.2923397e-07 	0.025476584 	1.5279976e-06 	0.00015870522
0.91111111 	0.027178779 	0.0088004396 	7.4846898e-07 	0.027023348 	1.5056097e-06 	0.00016095373
0.92222222 	0.028838643 	0.0093278868 	5.4539997e-07 	0.028690958 	1.1759772e-06 	0.0043324762
0.93333333 	0.030581382 	0.0098701819 	2.5796043e-07 	0.030457002 	5.873817e-07 	0.013930942
0.94444444 	0.032364794 	0.010415599 	8.0263916e-07 	0.032274428 	2.7335693e-06 	0.026514583
0.95555556 	0.03409399 	0.010942071 	2.2731436e-07 	0.033972873 	5.6196244e-07 	0.0078204439
0.96666667 	0.035629913 	0.011333068 	2.9504623e-09 	0.03556748 	7.350724e-09 	0.028656212
0.97777778 	0.036681925 	0.011643152 	6.236781e-08 	0.036613503 	1.4910144e-07 	0.018108692
0.98888889 	0.035431428 	0.011291664 	2.6223866e-08 	0.035394111 	5.7204421e-08 	0.020560414
