0.47826087 	1.9740993 	0.00023021685 	-1.739388e-08
0.48913043 	2.490122 	0.00071886425 	-1.0408706e-07
0.5 	2.737922 	0.0013390122 	-1.7518361e-08
0.51086957 	2.9002662 	0.0020147586 	1.0613209e-06
0.52173913 	3.0127634 	0.0027015985 	-9.0054233e-07
0.5326087 	3.0881422 	0.0032934881 	4.1078462e-07
0.54347826 	3.127813 	0.0036481936 	1.1047222e-06
0.55434783 	3.1427368 	0.0037602648 	-2.3123416e-07
0.56521739 	3.1450818 	0.0037331685 	-7.9017915e-07
0.57608696 	3.1421613 	0.0036451385 	-1.5930117e-06
0.58695652 	3.1369455 	0.0035268641 	-1.1838523e-06
0.59782609 	3.1305367 	0.0033895281 	-7.2374421e-08
0.60869565 	3.1233345 	0.0032377373 	-3.5106066e-07
0.61956522 	3.1158361 	0.0030836739 	-8.5691608e-08
0.63043478 	3.1079271 	0.0029217605 	-2.7629742e-06
0.64130435 	3.0996291 	0.002751984 	-1.3303924e-07
0.65217391 	3.0911052 	0.0025792903 	-1.094877e-07
0.66304348 	3.0824191 	0.0024047378 	-2.3711271e-06
0.67391304 	3.073276 	0.0022208239 	-2.1786854e-07
0.68478261 	3.0642319 	0.0020420829 	-1.7693435e-06
0.69565217 	3.0547373 	0.0018548192 	-9.539556e-08
0.70652174 	3.0452002 	0.001669392 	-4.4192935e-07
0.7173913 	3.0353011 	0.0014789405 	-5.1929539e-08
0.72826087 	3.025443 	0.0012923425 	-3.4408467e-07
0.73913043 	3.0151354 	0.0011007764 	-4.4354534e-08
0.75 	3.0047472 	0.00091160506 	-5.9051131e-07
0.76086957 	2.9939817 	0.00072100827 	-2.8400548e-08
0.77173913 	2.982806 	0.00052822534 	-2.6515153e-09
0.7826087 	2.9713367 	0.00033840924 	-3.4537271e-09
0.79347826 	2.9594639 	0.00015042261 	6.2343163e-09
0.80434783 	2.9470505 	-3.6384316e-05 	-1.6984227e-06
0.81521739 	2.9342545 	-0.00021587621 	6.1175751e-08
0.82608696 	2.9205566 	-0.00039582072 	-4.6720037e-07
0.83695652 	2.9061401 	-0.00056546607 	-5.3875597e-07
0.84782609 	2.8907903 	-0.00072371522 	1.5285324e-07
0.85869565 	2.8739931 	-0.00087454571 	6.0074888e-08
0.86956522 	2.8555318 	-0.0010077886 	-9.0295297e-07
0.88043478 	2.8349478 	-0.0011200121 	-4.3302666e-07
0.89130435 	2.8115003 	-0.0012059878 	3.6777209e-08
0.90217391 	2.7840195 	-0.0012573636 	1.5216806e-07
0.91304348 	2.7510956 	-0.0012676847 	1.8604411e-07
0.92391304 	2.7105792 	-0.0012281976 	8.3420522e-08
0.93478261 	2.6591361 	-0.0011301043 	5.5191425e-07
0.94565217 	2.592388 	-0.00097245225 	4.7955156e-07
0.95652174 	2.5031996 	-0.0007641989 	4.2841477e-07
0.9673913 	2.3784513 	-0.00052125577 	9.3904922e-09
0.97826087 	2.190568 	-0.00028700512 	3.3460035e-07
0.98913043 	1.8348677 	-9.7551629e-05 	1.1336147e-07
