0.34020619 	0.043232761 	-0.012606227 	1.7485951e-06 	0.034251092 	-3.8248265e-06 	0.025263812
0.35051546 	0.0098143567 	-0.0016676385 	-1.1717296e-05 	0.0091356185 	3.8038127e-06 	0.00092215195
0.36082474 	0.0081948199 	0.00030388881 	-2.8865227e-06 	0.010793942 	-1.6502899e-05 	0.0016652045
0.37113402 	0.0082036412 	0.00084427279 	-1.4792019e-10 	0.01291386 	-1.7055983e-09 	0.0043211451
0.3814433 	0.0081998463 	0.001158622 	1.3642694e-07 	0.014025487 	-1.2687619e-06 	0.0028804901
0.39175258 	0.0083079621 	0.0012980283 	9.415498e-07 	0.014343175 	-3.7406093e-06 	0.00074028061
0.40206186 	0.0084175685 	0.0014064612 	1.0593113e-06 	0.014577869 	-3.0689004e-06 	0.00015869574
0.41237113 	0.0085268982 	0.0015061379 	6.5457741e-07 	0.014803975 	-1.6006442e-06 	0.00016043675
0.42268041 	0.0086395104 	0.0016073241 	1.8234861e-07 	0.015032085 	-4.000136e-07 	0.0004089077
0.43298969 	0.0087575752 	0.0017121477 	6.4825921e-07 	0.015262811 	-1.2877996e-06 	0.00037629122
0.44329897 	0.0088826975 	0.0018203378 	1.2108263e-06 	0.015502506 	-2.1686145e-06 	0.0011090011
0.45360825 	0.009013994 	0.00193044 	6.4710449e-07 	0.015746924 	-1.082118e-06 	0.0018466913
0.46391753 	0.0091499037 	0.0020389633 	1.3331625e-06 	0.015986623 	-2.7389751e-06 	0.00032363334
0.4742268 	0.0092900808 	0.0021510793 	4.5632477e-07 	0.01624707 	-7.3219085e-07 	0.0032363791
0.48453608 	0.0094355102 	0.002261824 	3.6108804e-07 	0.016500656 	-5.7627709e-07 	0.0039734442
0.49484536 	0.0095824759 	0.0023678999 	1.9521781e-06 	0.016743663 	-3.7815254e-06 	0.0011755977
0.50515464 	0.0097315895 	0.0024803639 	7.9743211e-07 	0.017010072 	-1.2801562e-06 	0.0052961274
0.51546392 	0.0098851174 	0.0025850403 	2.5104848e-06 	0.017250298 	-4.7821452e-06 	0.0013423884
0.5257732 	0.010037123 	0.0026980995 	2.5065336e-07 	0.017518872 	-4.0467866e-07 	0.0065681482
0.53608247 	0.010196344 	0.0028028591 	2.5698834e-06 	0.017757611 	-4.8492199e-06 	0.0022406639
0.54639175 	0.010351981 	0.0029167298 	4.2878901e-08 	0.018023876 	-6.9545254e-08 	0.0077951043
0.55670103 	0.010517677 	0.0030221751 	3.2521478e-06 	0.018255558 	-6.1293695e-06 	0.0016686119
0.56701031 	0.010677873 	0.0031392226 	1.944808e-07 	0.018522627 	-3.1011132e-07 	0.0089859363
0.57731959 	0.010851286 	0.0032469734 	4.0415925e-06 	0.01874463 	-7.6973343e-06 	0.00038931122
0.58762887 	0.011016934 	0.0033668429 	6.1441755e-07 	0.019008392 	-1.1701767e-06 	0.0087188545
0.59793814 	0.011194773 	0.0034815703 	2.6429266e-06 	0.019234678 	-5.1626025e-06 	0.0039020904
0.60824742 	0.011371219 	0.0036002552 	2.3526736e-06 	0.019473113 	-4.5956323e-06 	0.0051494536
0.6185567 	0.011548739 	0.0037219748 	8.5720661e-07 	0.019714256 	-1.7481051e-06 	0.0088960847
0.62886598 	0.011739585 	0.0038404908 	3.7906113e-06 	0.019918461 	-7.7302098e-06 	0.00015717903
0.63917526 	0.011918912 	0.0039660885 	9.0210117e-07 	0.020161635 	-1.8396587e-06 	0.0088684888
0.64948454 	0.012106991 	0.0040873905 	1.4101078e-06 	0.020365486 	-3.0525433e-06 	0.0065895314
0.65979381 	0.012299652 	0.0042098745 	2.6078322e-06 	0.020559386 	-5.6453278e-06 	0.0024289213
0.67010309 	0.012491776 	0.0043415436 	7.6331124e-08 	0.020792994 	-1.6523848e-07 	0.011637709
0.68041237 	0.012684819 	0.0044603689 	1.6658695e-06 	0.020955469 	-3.8863177e-06 	0.0047040355
0.69072165 	0.012883215 	0.0045874584 	1.5897114e-06 	0.021141846 	-3.7086481e-06 	0.0052465994
0.70103093 	0.01308597 	0.0047194416 	1.8892575e-07 	0.02134395 	-4.7997811e-07 	0.011384177
0.71134021 	0.013282738 	0.0048370448 	2.1408167e-06 	0.021467862 	-5.4388835e-06 	0.0008542922
0.72164948 	0.013489174 	0.0049710406 	3.9022815e-07 	0.02166151 	-9.913999e-07 	0.010808091
0.73195876 	0.013690643 	0.0050921313 	1.0608679e-06 	0.02178622 	-2.9464621e-06 	0.00577214
0.74226804 	0.013894442 	0.0052168953 	9.6830591e-07 	0.021921723 	-2.6893798e-06 	0.006740302
0.75257732 	0.014098945 	0.0053414514 	4.5480784e-07 	0.022053924 	-1.3884827e-06 	0.0097097722
0.7628866 	0.014299502 	0.0054582608 	1.1377281e-06 	0.0221391 	-3.4733697e-06 	0.0038720277
0.77319588 	0.014503366 	0.0055817581 	1.8962012e-07 	0.022263977 	-6.4580457e-07 	0.012230377
0.78350515 	0.014698984 	0.0056911592 	1.012856e-06 	0.022308819 	-3.4495656e-06 	0.0026608366
0.79381443 	0.014898365 	0.005809464 	1.425721e-07 	0.022408838 	-5.5650229e-07 	0.01287689
0.80412371 	0.015090286 	0.0059144001 	7.2015367e-07 	0.022419695 	-2.810979e-06 	0.003579585
0.81443299 	0.015289509 	0.0060162687 	1.0105286e-07 	0.022461964 	-1.0148292e-06 	0.011181331
0.82474227 	0.015496207 	0.0060891358 	1.9138087e-07 	0.02242043 	-1.9219535e-06 	0.0071204211
0.83505155 	0.015716312 	0.0061260818 	-9.8983377e-08 	0.02234431 	-1.8415343e-06 	0.0066697409
0.84536082 	0.01594671 	0.0061346551 	-2.5494752e-08 	0.022248464 	-4.7431661e-07 	0.013802108
0.8556701 	0.016169732 	0.0061198098 	-1.8599933e-07 	0.022066913 	-2.4111039e-06 	0.0013516502
0.86597938 	0.01638578 	0.0061127529 	-7.4010707e-08 	0.021935595 	-8.3737195e-07 	0.010042827
0.87628866 	0.016594381 	0.0060856791 	-2.457835e-08 	0.021765675 	-2.7808437e-07 	0.013952048
0.88659794 	0.016794795 	0.0060394886 	-1.5776811e-07 	0.021536886 	-1.3555599e-06 	0.0045162106
0.89690722 	0.016988 	0.0059955263 	-2.2859416e-07 	0.02131795 	-1.2880788e-06 	0.0036848912
0.90721649 	0.017174869 	0.0059529182 	-1.3727183e-07 	0.021101982 	-5.1632269e-07 	0.010256909
0.91752577 	0.017357649 	0.0059088242 	-2.5148131e-08 	0.020865933 	-1.1325039e-07 	0.015130468
0.92783505 	0.0175375 	0.0058648595 	-2.7236232e-07 	0.02060328 	-1.3237067e-06 	0.014875196
0.93814433 	0.017717496 	0.0058281669 	-1.3889039e-07 	0.020330349 	-7.9694426e-07 	0.014598557
0.94845361 	0.017895395 	0.0058087348 	-3.9274522e-07 	0.020049479 	-1.6984898e-06 	0.014301189
0.95876289 	0.018061112 	0.0057219241 	-5.8899245e-07 	0.019709994 	-1.2248939e-06 	0.0051084458
0.96907216 	0.0182507 	0.0057291311 	-2.6376969e-07 	0.019424135 	-7.3125674e-07 	0.0082910516
0.97938144 	0.018528994 	0.0058351832 	6.7120548e-08 	0.019207547 	-1.3401901e-07 	0.0090552221
0.98969072 	0.018767011 	0.0061437996 	1.7221204e-06 	0.018957394 	4.3304959e-06 	0.005758764
