4.0776948e-36 	0.049709999 	-3.3760501e-15 	-1.2271048e-21 	2.2928413e-28 	8.3338713e-35 	3.0291416e-41
0.010869565 	0.049512207 	-0.0025349738 	3.7501501e-06 	0.052388851 	-0.00015543116 	0.020370601
0.02173913 	0.049306341 	-0.0037674959 	3.1249359e-06 	0.052165771 	-0.0001234153 	0.022765148
0.032608696 	0.049328389 	-0.0049975143 	7.1164553e-07 	0.052163464 	-2.8116575e-05 	0.025125992
0.043478261 	0.049571425 	-0.0062290058 	1.5427508e-06 	0.052375649 	-5.8540518e-05 	0.027478815
0.054347826 	0.050010103 	-0.0074553373 	8.9552946e-07 	0.052746207 	-3.9410935e-06 	0.014997773
0.065217391 	0.050659343 	-0.0087318355 	1.8575104e-06 	0.053318541 	-7.3138229e-06 	0.0059744635
0.076086957 	0.05132197 	-0.0097875739 	1.5816759e-06 	0.05393842 	-5.6133329e-06 	0.015517835
0.086956522 	0.052109842 	-0.010887794 	7.2992344e-07 	0.054694003 	-1.6377068e-05 	0.037076458
0.097826087 	0.052981212 	-0.011958407 	4.5198953e-07 	0.055470932 	-1.4738563e-06 	0.034890181
0.10869565 	0.053879032 	-0.01297576 	4.1603168e-06 	0.056197324 	-1.2717727e-05 	0.0026877415
0.11956522 	0.054705931 	-0.013903042 	8.5771684e-07 	0.056979778 	-2.4906728e-06 	0.036916588
0.13043478 	0.055514214 	-0.014774231 	1.6996612e-06 	0.057646982 	-4.9355448e-06 	0.032005501
0.14130435 	0.056221166 	-0.015559235 	4.5420183e-06 	0.058167091 	-1.2626414e-05 	0.011777642
0.15217391 	0.056835451 	-0.016275429 	2.2272486e-08 	0.0587137 	-6.1915567e-08 	0.050919908
0.16304348 	0.057252473 	-0.016867452 	6.3696008e-06 	0.058859604 	-1.7006846e-05 	0.002674721
0.17391304 	0.057581151 	-0.017407748 	3.3828507e-07 	0.059125276 	-8.6670626e-07 	0.052065474
0.18478261 	0.057590057 	-0.017781895 	6.2102664e-06 	0.058853544 	-1.5911068e-05 	0.0069755947
0.19565217 	0.057549474 	-0.018128835 	3.3111198e-07 	0.058726748 	-8.092083e-07 	0.05111414
0.20652174 	0.057050513 	-0.018259383 	5.9380026e-06 	0.05793512 	-1.4511952e-05 	0.0036536966
0.2173913 	0.056578179 	-0.018398088 	2.0048124e-06 	0.057376655 	-8.3125908e-06 	0.049530303
0.22826087 	0.055491607 	-0.018261277 	4.5587984e-06 	0.056011866 	-1.047371e-05 	0.0067369702
0.23913043 	0.054457229 	-0.018142505 	8.6544408e-07 	0.054863123 	-1.9883331e-06 	0.03700251
0.25 	0.052867499 	-0.017777748 	1.8318341e-06 	0.053072027 	-3.8070089e-06 	0.022163638
0.26086957 	0.051100348 	-0.017329554 	1.9285155e-06 	0.051135814 	-4.007937e-06 	0.018180092
0.27173913 	0.049183444 	-0.0168099 	2.384774e-06 	0.049111254 	-7.7876623e-06 	0.037458761
0.2826087 	0.046573267 	-0.015972848 	1.6311199e-06 	0.046302782 	-2.5188078e-06 	0.0016187057
0.29347826 	0.044194542 	-0.015229922 	1.4657747e-07 	0.043863794 	-2.2634784e-07 	0.027986306
0.30434783 	0.041266582 	-0.014214999 	-1.1127187e-07 	0.040845324 	5.2378627e-07 	0.023122029
0.31521739 	0.038061977 	-0.013054169 	-3.7260217e-07 	0.037547427 	1.7539374e-06 	0.0050948121
0.32608696 	0.035049304 	-0.011964705 	1.3629155e-05 	0.034524287 	-3.6943335e-05 	0.022624488
0.33695652 	0.031737627 	-0.010689744 	-6.2775627e-07 	0.031194918 	1.6274851e-06 	0.015371236
0.34782609 	0.028383942 	-0.0093644377 	-1.4292606e-06 	0.027838535 	3.7054195e-06 	0.0044878444
0.35869565 	0.025306844 	-0.0081478499 	1.685553e-05 	0.024805991 	-4.2871338e-05 	0.015059273
0.36956522 	0.022425286 	-0.0069740527 	-3.621113e-07 	0.021962262 	8.455028e-07 	0.012185214
0.38043478 	0.01975865 	-0.0058591962 	-1.7111571e-06 	0.019332231 	3.9954237e-06 	0.0015966227
0.39130435 	0.017354863 	-0.0048539403 	5.2153509e-06 	0.016996463 	-1.239377e-05 	0.0094251202
0.40217391 	0.015451381 	-0.0040062175 	7.2257573e-06 	0.015139489 	-1.7171304e-05 	0.009240695
0.41304348 	0.013962999 	-0.00328773 	-9.2061206e-07 	0.013677934 	1.8017066e-06 	0.0017166794
0.42391304 	0.012661842 	-0.0026486719 	-2.6742802e-07 	0.012420656 	5.2337662e-07 	0.0049458164
0.43478261 	0.011717163 	-0.0021097159 	1.8054446e-05 	0.011506255 	-3.5458935e-05 	0.0063916242
0.44565217 	0.010975747 	-0.0016237043 	-8.8883624e-08 	0.010783722 	5.64743e-08 	0.0049189494
0.45652174 	0.010554454 	-0.001225096 	-3.2345372e-07 	0.010367739 	2.0551393e-07 	0.0010831618
0.4673913 	0.010190254 	-0.00085980195 	2.1303161e-06 	0.010022714 	-2.447019e-06 	0.0054048741
0.47826087 	0.010024766 	-0.0005309109 	8.8849936e-06 	0.0098617694 	-1.0205879e-05 	0.005327332
0.48913043 	0.0099390315 	-0.00021516417 	-3.0168341e-08 	0.0097746126 	-1.5012739e-07 	0.00335472
0.5 	0.0099859957 	7.5739729e-05 	-5.4117981e-08 	0.0098170134 	-2.6930852e-07 	0.0018110174
0.51086957 	0.010065963 	0.0003573929 	3.9745967e-06 	0.0099008646 	-1.0114947e-06 	0.0052114555
0.52173913 	0.010216964 	0.00063073829 	5.840502e-06 	0.01004721 	-1.4863488e-06 	0.0051504826
0.5326087 	0.010416408 	0.00089979407 	2.52173e-08 	0.010236206 	-2.1579649e-07 	0.0026898057
0.54347826 	0.010675587 	0.0011688244 	2.4610835e-08 	0.01048854 	-2.1060667e-07 	0.0029029206
0.55434783 	0.010969388 	0.0014394363 	6.2567309e-06 	0.010779176 	2.4865745e-06 	0.0053780804
0.56521739 	0.011285861 	0.0017074183 	2.3850427e-06 	0.011087271 	9.4787302e-07 	0.0053279318
0.57608696 	0.011646163 	0.0019725761 	1.2574354e-07 	0.011429784 	-2.5011658e-07 	0.00072998515
0.58695652 	0.012034309 	0.0022475941 	5.8497786e-07 	0.011818351 	4.9356574e-07 	0.0057675906
0.59782609 	0.012460541 	0.0025225152 	6.6486483e-06 	0.012234853 	5.609691e-06 	0.0057256901
0.60869565 	0.01290132 	0.0027978319 	9.453425e-08 	0.012661477 	-1.1665649e-08 	0.0034721502
0.61956522 	0.013383694 	0.0030817399 	7.6410731e-08 	0.013135375 	-9.4291831e-09 	0.00428945
0.63043478 	0.013904876 	0.0033748108 	8.0743843e-06 	0.013650065 	9.745264e-06 	0.0062423967
0.64130435 	0.014440396 	0.0036690586 	4.7451595e-08 	0.014173456 	4.1207199e-08 	0.0053527544
0.65217391 	0.015029883 	0.0039753737 	1.5910283e-07 	0.014749072 	1.3816568e-07 	0.0036989964
0.66304348 	0.01566509 	0.004296492 	7.6694964e-06 	0.015379869 	1.1743634e-05 	0.0068745252
0.67391304 	0.016320515 	0.0046199374 	6.8822419e-08 	0.016022435 	1.0449466e-07 	0.0057615087
0.68478261 	0.017040964 	0.0049602829 	1.3818881e-07 	0.016731214 	2.0981525e-07 	0.0052095499
0.69565217 	0.017817798 	0.0053170962 	8.0323053e-06 	0.017502668 	1.4699206e-05 	0.0076289166
0.70652174 	0.018623174 	0.0056770582 	2.5103221e-07 	0.01829055 	4.9869932e-07 	0.0037855828
0.7173913 	0.01950376 	0.0060609679 	1.359362e-06 	0.019171534 	2.8716093e-06 	0.0085250906
0.72826087 	0.020437806 	0.0064536449 	3.6961544e-06 	0.020097735 	7.8080096e-06 	0.0085055494
0.73913043 	0.021417752 	0.0068513653 	3.8962976e-07 	0.021058913 	9.3439437e-07 	0.0023151833
0.75 	0.022478354 	0.0072731538 	8.1467904e-06 	0.022129793 	1.9501585e-05 	0.0095065471
0.76086957 	0.023561797 	0.0076888432 	2.3530442e-07 	0.023201058 	6.8001045e-07 	0.0045874509
0.77173913 	0.024718694 	0.0081207577 	3.2436808e-06 	0.024371343 	8.6547644e-06 	0.010572531
0.7826087 	0.025896373 	0.0085490688 	7.0480609e-09 	0.025552547 	2.5818173e-08 	0.010327206
0.79347826 	0.027107483 	0.0089741618 	4.8216177e-07 	0.026775435 	1.4216992e-06 	0.011644415
0.80434783 	0.028323633 	0.0093897748 	1.3306268e-06 	0.028005234 	3.9234779e-06 	0.011635484
0.81521739 	0.029525271 	0.0097871011 	3.4685959e-09 	0.029227379 	2.3668999e-08 	0.012261376
0.82608696 	0.030689622 	0.010159507 	8.5669036e-07 	0.030417885 	2.836995e-06 	0.012644256
0.83695652 	0.03177795 	0.010492608 	4.9260314e-07 	0.031540135 	1.9773624e-06 	0.013515757
0.84782609 	0.032769114 	0.010780552 	-7.6766802e-08 	0.032564722 	-1.0924096e-07 	0.01113336
0.85869565 	0.033599396 	0.011001684 	5.2353766e-07 	0.033446996 	4.4868276e-06 	0.014172665
0.86956522 	0.034259399 	0.011150766 	-6.5613787e-07 	0.034130563 	-1.3122701e-06 	0.001191402
0.88043478 	0.03470113 	0.011221564 	-1.1088458e-06 	0.034655642 	-1.7790644e-08 	0.014573264
0.89130435 	0.034886169 	0.01119267 	-6.0789239e-07 	0.034898569 	-1.0216715e-06 	0.014696055
0.90217391 	0.03476172 	0.011047755 	-8.0203533e-07 	0.034808853 	-1.9819283e-06 	0.0041020133
0.91304348 	0.03430664 	0.010794014 	-2.9081048e-06 	0.034427569 	-6.3397506e-06 	0.014537747
0.92391304 	0.033511255 	0.010424998 	-5.8180857e-06 	0.033673119 	-1.3824121e-05 	0.014120061
0.93478261 	0.032356904 	0.0099106367 	-1.6645817e-06 	0.0325456 	-4.173471e-06 	0.013559695
0.94565217 	0.030705056 	0.009257291 	-6.7089254e-06 	0.030900576 	-1.8523576e-05 	0.013018351
0.95652174 	0.028708328 	0.0085391312 	-6.1919549e-07 	0.028865086 	-2.0412919e-06 	0.0028981599
0.9673913 	0.026187208 	0.0077391221 	-1.2486858e-06 	0.026315861 	-4.2177811e-06 	0.011240155
0.97826087 	0.02299415 	0.0068716725 	-2.0741443e-07 	0.023041724 	-9.9073249e-07 	0.0023792234
0.98913043 	0.017517112 	0.0054982127 	-2.1318194e-08 	0.017509655 	-2.2334432e-07 	0.0017846065
