0.46067416 	0.037052004 	-0.012334165 	-4.9361142e-07 	0.039692381 	2.3430182e-06 	0.00052405691
0.47191011 	0.038317149 	-0.012276393 	2.5902353e-06 	0.040466783 	-7.4867568e-06 	0.0022202215
0.48314607 	0.035237335 	-0.011015687 	4.0678913e-06 	0.036755505 	-1.2338221e-05 	0.0034934857
0.49438202 	0.031811388 	-0.0097837134 	7.8989984e-06 	0.032790603 	-2.545931e-05 	0.0043795968
0.50561798 	0.028289316 	-0.0084818084 	3.1441035e-06 	0.028804651 	-9.7983942e-06 	0.0046330789
0.51685393 	0.024769157 	-0.0072057772 	1.6604378e-05 	0.02488511 	-5.1519252e-05 	0.0049209698
0.52808989 	0.021406318 	-0.005980057 	1.4108584e-05 	0.021189234 	-4.2629063e-05 	0.0049571427
0.53932584 	0.018329479 	-0.004795617 	9.2710491e-06 	0.017845485 	-2.6084037e-05 	0.0047857986
0.5505618 	0.015678196 	-0.0036572209 	8.2710205e-06 	0.014986453 	-2.0889582e-05 	0.0044784186
0.56179775 	0.013560857 	-0.002605327 	1.0409194e-05 	0.012697305 	-2.29396e-05 	0.0041263468
0.57303371 	0.012025537 	-0.0016714298 	1.4393949e-05 	0.010990357 	-2.6632363e-05 	0.0038291053
0.58426966 	0.011051377 	-0.00086293971 	7.9357903e-06 	0.0098094445 	-1.0980042e-05 	0.0036678225
0.59550562 	0.010578268 	-0.00014504519 	3.476591e-08 	0.0090760867 	-1.9378618e-07 	0.003116248
0.60674157 	0.010548078 	0.00051028416 	1.3171235e-07 	0.0087154552 	-7.442991e-07 	0.0023280689
0.61797753 	0.010797397 	0.001118603 	8.082765e-06 	0.0086247797 	-3.0085618e-06 	0.0038977066
0.62921348 	0.011181418 	0.0016894391 	2.8100703e-06 	0.0086672609 	-1.3777775e-07 	0.0040866267
0.64044944 	0.011668465 	0.0022102885 	4.2807185e-07 	0.0088063669 	-1.7823748e-06 	0.0018359464
0.65168539 	0.012177847 	0.0026717769 	8.0021689e-06 	0.0090510791 	2.0301036e-06 	0.0043602244
0.66292135 	0.012707504 	0.0030912525 	3.2282376e-07 	0.0093352502 	-1.2648853e-06 	0.0029709903
0.6741573 	0.013219961 	0.0034336276 	2.6072955e-06 	0.0096973726 	1.9322196e-06 	0.004608207
0.68539326 	0.013737418 	0.0037556671 	6.9017859e-07 	0.010085447 	1.0117773e-06 	0.0048463902
0.69662921 	0.014239551 	0.0040074692 	7.9533856e-07 	0.010529238 	1.165938e-06 	0.0048165646
0.70786517 	0.014746153 	0.0042521035 	1.115989e-06 	0.010988485 	2.1924537e-06 	0.0050444575
0.71910112 	0.01525239 	0.004475048 	7.8112613e-07 	0.011468765 	1.5345876e-06 	0.0049813332
0.73033708 	0.015771072 	0.0046928338 	9.2267924e-07 	0.011977053 	2.0595306e-06 	0.005201062
0.74157303 	0.016304268 	0.0049180633 	1.0946944e-06 	0.012503105 	2.443489e-06 	0.0051044039
0.75280899 	0.016859073 	0.0051502493 	9.8644372e-07 	0.013063227 	2.4522765e-06 	0.0053016125
0.76404494 	0.017438708 	0.0053892343 	7.5414441e-07 	0.013661743 	1.8747857e-06 	0.0051733094
0.7752809 	0.018035246 	0.0056124922 	1.9194636e-06 	0.014310731 	5.76065e-06 	0.0053394144
0.78651685 	0.018660393 	0.0058480618 	1.5044167e-07 	0.014994604 	-4.9096448e-07 	0.003787035
0.79775281 	0.019326576 	0.00607886 	3.5930659e-06 	0.015760068 	1.3330332e-05 	0.00532001
0.80898876 	0.02002638 	0.0063139447 	2.7230687e-07 	0.016556166 	-6.1399407e-07 	0.0031251461
0.82022472 	0.020790109 	0.006566352 	1.3442395e-06 	0.017451714 	5.5115047e-06 	0.0052444088
0.83146067 	0.021622032 	0.0068357424 	3.1866705e-06 	0.018408067 	1.2799669e-05 	0.0053470013
0.84269663 	0.022514357 	0.0071228139 	1.1715261e-07 	0.019427567 	-1.7954453e-07 	0.004172243
0.85393258 	0.023496854 	0.0074392194 	4.2054577e-07 	0.020553573 	1.6555959e-06 	0.0051755642
0.86516854 	0.024576165 	0.0077838228 	3.5171899e-06 	0.021772781 	1.3608265e-05 	0.0052214404
0.87640449 	0.0257392 	0.008153254 	4.8022902e-06 	0.023080321 	1.8389471e-05 	0.0052408079
0.88764045 	0.026991238 	0.0085485837 	3.0750132e-06 	0.024481914 	1.1724768e-05 	0.0052265736
0.8988764 	0.028332175 	0.0089692706 	2.0677046e-06 	0.025978351 	7.8815567e-06 	0.0051725215
0.91011236 	0.029754974 	0.0094130881 	1.9636286e-06 	0.027564131 	7.494687e-06 	0.0050738044
0.92134831 	0.031245412 	0.0098765927 	2.8529547e-06 	0.029227257 	1.089051e-05 	0.0049272371
0.93258427 	0.03278247 	0.010356008 	4.7517378e-06 	0.030949654 	1.8055912e-05 	0.0047313308
0.94382022 	0.034336921 	0.01084814 	3.1556401e-06 	0.032706174 	1.1815123e-05 	0.0044859776
0.95505618 	0.035861036 	0.011359509 	1.2738677e-07 	0.034446715 	1.2172881e-07 	0.0018536194
0.96629213 	0.037158552 	0.01173065 	8.5628337e-07 	0.036010649 	4.6350699e-06 	0.0039348771
0.97752809 	0.038003414 	0.012032995 	-1.7230347e-07 	0.037173117 	7.4624691e-07 	0.0035555505
0.98876404 	0.035881441 	0.011421427 	-8.100904e-06 	0.035475979 	-2.527932e-05 	0.0029031539
