0.12903226 	2.1233636 	1.387548 	-4.9873597e-05
0.13978495 	2.0611025 	1.1436178 	-0.0054886365
0.15053763 	2.1410973 	1.0720997 	-0.0002324254
0.16129032 	2.1803995 	0.96780418 	-0.00031479768
0.17204301 	2.2229443 	0.89402822 	-0.00056809899
0.1827957 	2.2591435 	0.82153745 	-0.00015360552
0.19354839 	2.296954 	0.76285555 	-0.00025774812
0.20430108 	2.3274911 	0.71079998 	-5.8427939e-05
0.21505376 	2.3543227 	0.66350998 	-0.00063342309
0.22580645 	2.3766764 	0.62228291 	-0.0010863238
0.23655914 	2.3951832 	0.58368306 	-0.00023630752
0.24731183 	2.4133056 	0.54681289 	-0.00056014928
0.25806452 	2.4294377 	0.52258449 	-0.00026265335
0.2688172 	2.4407781 	0.49031842 	-0.00042575169
0.27956989 	2.4525568 	0.46590955 	-0.00025499493
0.29032258 	2.4616552 	0.44565101 	-7.4759293e-05
0.30107527 	2.4703199 	0.41899159 	-0.00011826495
0.31182796 	2.4761143 	0.40453971 	-0.00031093334
0.32258065 	2.483089 	0.38124291 	1.5127566e-05
0.33333333 	2.4862475 	0.36817004 	-0.00052482158
0.34408602 	2.4912606 	0.34922502 	7.0018389e-05
0.35483871 	2.4928073 	0.33680913 	-0.0007029567
0.3655914 	2.495361 	0.3214575 	4.9630136e-05
0.37634409 	2.4961566 	0.30939611 	-0.00063124997
0.38709677 	2.4966 	0.29663815 	-0.00020925842
0.39784946 	2.4967126 	0.28503777 	-0.00044927596
0.40860215 	2.4959902 	0.27393586 	-0.00064349944
0.41935484 	2.4949319 	0.26283468 	-0.0001000689
0.43010753 	2.4931492 	0.25299554 	-0.00079313806
0.44086022 	2.4913665 	0.24315639 	-9.4883211e-05
0.4516129 	2.4884653 	0.2338643 	-0.00023556331
0.46236559 	2.4856821 	0.22532066 	-0.00043277817
0.47311828 	2.4830853 	0.21583222 	6.7822291e-05
0.48387097 	2.4785995 	0.20872004 	-0.0002407409
0.49462366 	2.4748758 	0.20129227 	-0.00022260719
0.50537634 	2.4713718 	0.19258719 	0.00010896499
0.51612903 	2.4657639 	0.18661763 	-0.00015931434
0.52688172 	2.4610854 	0.1801157 	-0.0001589731
0.53763441 	2.456654 	0.17235634 	0.00012235038
0.5483871 	2.4501677 	0.16688386 	-2.3637328e-05
0.55913978 	2.4445968 	0.16122223 	-0.00019438686
0.56989247 	2.4391961 	0.1548479 	8.2882419e-05
0.58064516 	2.4324726 	0.14910562 	5.4292881e-05
0.59139785 	2.4255351 	0.14410172 	-0.0002207432
0.60215054 	2.4191346 	0.13874256 	4.080291e-05
0.61290323 	2.4122602 	0.13307142 	0.00010137837
0.62365591 	2.4038877 	0.12845512 	-0.00010979986
0.6344086 	2.3964137 	0.12361095 	2.3480994e-05
0.64516129 	2.3888646 	0.11828833 	0.00010644768
0.65591398 	2.3795263 	0.11401344 	-9.0292269e-05
0.66666667 	2.3712286 	0.10947739 	3.409823e-05
0.67741935 	2.3624587 	0.10471741 	7.4757873e-05
0.68817204 	2.3524629 	0.1006978 	-0.00012150658
0.69892473 	2.3435215 	0.096263401 	6.9842099e-05
0.70967742 	2.3328849 	0.092149283 	1.2541534e-05
0.72043011 	2.3225184 	0.088323746 	-1.806202e-05
0.7311828 	2.3124997 	0.083998991 	7.5851121e-05
0.74193548 	2.3005585 	0.080377422 	-9.8190336e-05
0.75268817 	2.2898179 	0.076377599 	6.8319608e-05
0.76344086 	2.2769632 	0.072777792 	-4.590498e-05
0.77419355 	2.2649527 	0.069100997 	3.3946892e-05
0.78494624 	2.2514135 	0.065485704 	-2.2080805e-05
0.79569892 	2.2381504 	0.061994673 	2.0319927e-05
0.80645161 	2.2235154 	0.058459901 	-2.5510116e-05
0.8172043 	2.2089886 	0.055042815 	2.4026953e-05
0.82795699 	2.1927635 	0.051658797 	-5.0678009e-05
0.83870968 	2.1769196 	0.048223952 	4.1762566e-05
0.84946237 	2.1584898 	0.04504197 	-5.2589387e-05
0.86021505 	2.1398505 	0.041692436 	5.5575094e-06
0.87096774 	2.1198452 	0.038533425 	7.1150265e-06
0.88172043 	2.0977884 	0.035300352 	-6.2143822e-05
0.89247312 	2.074268 	0.0320649 	-3.5908926e-06
0.90322581 	2.0488149 	0.028898123 	1.665129e-05
0.91397849 	2.019242 	0.025791069 	-1.4610653e-05
0.92473118 	1.9860001 	0.022604461 	-4.429677e-05
0.93548387 	1.9484563 	0.019485995 	-4.1132999e-05
0.94623656 	1.9028927 	0.016315138 	-3.6898569e-05
0.95698925 	1.8451256 	0.012999521 	7.2223354e-06
0.96774194 	1.7657727 	0.0097248232 	-1.3943812e-06
0.97849462 	1.641928 	0.0063277718 	-3.4055065e-06
0.98924731 	1.3795702 	0.0027181962 	-1.3792015e-05
