4.8700 0.4913 0.5087 1.2119 0.0010 15.3020 1.3500 -0.3920 
4.8700 0.5013 0.4987 1.2917 0.0027 12.3624 1.2056 -0.3072 
4.8700 0.5113 0.4887 1.3671 0.0044 7.2455 0.9598 -0.2034 
4.8700 0.5212 0.4788 1.4100 0.0060 3.5119 0.7667 -0.0911 
4.8700 0.5312 0.4688 1.4260 0.0073 2.1954 0.6732 0.0136 
4.8700 0.5411 0.4589 1.4319 0.0078 1.5687 0.6177 0.1027 
4.8700 0.5511 0.4489 1.4320 0.0083 1.3461 0.6116 0.1676 
4.8700 0.5611 0.4389 1.4293 0.0091 1.3440 0.6366 0.2146 
4.8700 0.5710 0.4290 1.4250 0.0091 1.3791 0.6723 0.2498 
4.8700 0.5810 0.4190 1.4199 0.0083 1.4167 0.7110 0.2785 
4.8700 0.5910 0.4090 1.4145 0.0078 1.4776 0.7439 0.3036 
4.8700 0.6009 0.3991 1.4098 0.0074 1.5406 0.7712 0.3276 
4.8700 0.6109 0.3891 1.4050 0.0063 1.5956 0.7983 0.3512 
4.8700 0.6209 0.3791 1.3998 0.0048 1.6656 0.8280 0.3740 
4.8700 0.6308 0.3692 1.3958 0.0045 1.7450 0.8585 0.3949 
4.8700 0.6408 0.3592 1.3930 0.0057 1.8034 0.8841 0.4128 
4.8700 0.6507 0.3493 1.3900 0.0066 1.8318 0.9003 0.4278 
4.8700 0.6607 0.3393 1.3858 0.0065 1.8708 0.9123 0.4411 
4.8700 0.6707 0.3293 1.3809 0.0058 1.9172 0.9281 0.4536 
4.8700 0.6806 0.3194 1.3758 0.0051 1.9582 0.9507 0.4664 
4.8700 0.6906 0.3094 1.3712 0.0053 2.0152 0.9722 0.4796 
4.8700 0.7006 0.2994 1.3680 0.0056 2.0842 0.9889 0.4937 
4.8700 0.7105 0.2895 1.3647 0.0050 2.1411 1.0112 0.5087 
4.8700 0.7205 0.2795 1.3605 0.0045 2.1814 1.0287 0.5243 
4.8700 0.7305 0.2695 1.3570 0.0043 2.2253 1.0384 0.5399 
4.8700 0.7404 0.2596 1.3535 0.0043 2.2899 1.0480 0.5550 
4.8700 0.7504 0.2496 1.3498 0.0034 2.3670 1.0565 0.5691 
4.8700 0.7603 0.2397 1.3459 0.0023 2.4279 1.0688 0.5823 
4.8700 0.7703 0.2297 1.3410 0.0025 2.4737 1.0743 0.5942 
4.8700 0.7803 0.2197 1.3354 0.0031 2.5375 1.0813 0.6049 
4.8700 0.7902 0.2098 1.3291 0.0034 2.6192 1.0970 0.6142 
4.8700 0.8002 0.1998 1.3234 0.0032 2.6826 1.1029 0.6219 
4.8700 0.8102 0.1898 1.3186 0.0034 2.7377 1.1008 0.6281 
4.8700 0.8201 0.1799 1.3130 0.0035 2.8210 1.1039 0.6335 
4.8700 0.8301 0.1699 1.3072 0.0021 2.9540 1.1045 0.6386 
4.8700 0.8401 0.1599 1.3012 -0.0009 3.0675 1.1054 0.6438 
4.8700 0.8500 0.1500 1.2953 -0.0025 3.0899 1.1134 0.6489 
4.8700 0.8600 0.1400 1.2891 -0.0024 3.1477 1.1126 0.6543 
4.8700 0.8699 0.1301 1.2814 -0.0019 3.2640 1.1051 0.6613 
4.8700 0.8799 0.1201 1.2729 -0.0010 3.3961 1.1037 0.6716 
4.8700 0.8899 0.1101 1.2634 -0.0005 3.6010 1.1125 0.6875 
4.8700 0.8998 0.1002 1.2530 0.0008 3.8336 1.1253 0.7107 
4.8700 0.9098 0.0902 1.2407 0.0024 4.1919 1.1528 0.7424 
4.8700 0.9198 0.0802 1.2257 0.0024 4.6374 1.1867 0.7832 
4.8700 0.9297 0.0703 1.2083 0.0024 5.1634 1.2224 0.8325 
4.8700 0.9397 0.0603 1.1859 0.0024 5.8914 1.2895 0.8870 
4.8700 0.9496 0.0504 1.1591 0.0026 6.5963 1.3629 0.9390 
4.8700 0.9596 0.0404 1.1221 0.0018 7.8078 1.4561 0.9788 
4.8700 0.9696 0.0304 1.0712 0.0012 9.0839 1.5325 0.9985 
4.8700 0.9795 0.0205 1.0048 0.0023 10.3497 1.4772 0.9988 
4.8700 0.9895 0.0105 0.9550 0.0050 14.0772 1.6169 0.9871 
