0.4534793519 	2.605854647e-07 	-1.875521776e-09 	2.224056367e-13 	2.605381487e-07 	-1.220035418e-11 	4.966581242e-10
0.4545349715 	2.139951025e-05 	-1.394827731e-06 	9.112443478e-11 	2.169067796e-05 	-4.08989022e-10 	4.134846081e-08
0.4555906243 	0.0002428332864 	-4.961764784e-05 	1.680064849e-09 	0.0002540893375 	-2.806924065e-10 	4.843648978e-07
0.4566462771 	0.001037433716 	-0.0003594744867 	5.564432606e-09 	0.001119790731 	1.365182961e-08 	2.134632362e-06
0.4577018969 	0.002404750227 	-0.001048791669 	6.398446197e-09 	0.002644186132 	5.201728603e-08 	5.040553682e-06
0.4587574508 	0.003990959796 	-0.001908766681 	-2.295940564e-12 	0.004421513079 	1.021208926e-07 	8.428632824e-06
0.4603822371 	0.005402074702 	-0.002634750211 	-8.553092232e-09 	0.005984441631 	1.35217335e-07 	1.140800904e-05
0.4622175431 	0.006358495734 	-0.003098725744 	-1.403064949e-08 	0.007025099759 	1.416025929e-07 	1.339179267e-05
0.4642903799 	0.006919817211 	-0.003367718229 	-1.550430146e-08 	0.007620537131 	1.248711019e-07 	1.452686179e-05
0.4666426815 	0.007226481915 	-0.00351385304 	-1.312648569e-08 	0.007928766613 	9.215179542e-08 	1.511443285e-05
0.4693021407 	0.00737071628 	-0.003571664836 	-7.762108384e-09 	0.008051681852 	5.107794655e-08 	1.534874346e-05
0.4723056461 	0.007410052843 	-0.003566751838 	-1.351529458e-09 	0.008053873198 	9.023603381e-09 	1.535292077e-05
0.4730447499 	0.007402884682 	-0.003557911945 	6.283003746e-07 	0.008036505174 	-1.299542157e-06 	1.531981249e-05
0.4756893738 	0.007377089099 	-0.003526194072 	-1.358215842e-09 	0.007974272608 	2.100681589e-08 	1.520117993e-05
0.4795279125 	0.007289129721 	-0.003460774915 	-2.255283401e-10 	0.00783258647 	4.195797131e-08 	1.493108677e-05
0.4838641516 	0.007155568968 	-0.00337231735 	4.669709077e-09 	0.007638400944 	5.465232758e-08 	1.456091518e-05
0.4887697617 	0.006961906293 	-0.00326855538 	1.338636793e-08 	0.007375076959 	5.831935971e-08 	1.405894648e-05
0.4962020164 	0.006679956621 	-0.003120049919 	2.796824835e-08 	0.007008536124 	5.576696366e-08 	1.336021778e-05
0.5041837956 	0.006320953269 	-0.002925586781 	4.530640814e-08 	0.006557189044 	4.154224151e-08 	1.249982479e-05
0.5127499606 	0.005906731764 	-0.002714968517 	6.326551961e-08 	0.006053091396 	2.198276525e-08 	1.153887457e-05
0.5219457739 	0.005437590416 	-0.002480328826 	7.827242696e-08 	0.005496457195 	3.767028735e-09 	1.047777508e-05
0.5318185128 	0.004915490455 	-0.002217596916 	8.146593768e-08 	0.00489111667 	-3.949742944e-09 	9.323827789e-06
0.5424177356 	0.004348672217 	-0.001926327983 	6.112678752e-08 	0.004248960257 	2.259975722e-09 	8.099699187e-06
0.5537955805 	0.003757871 	-0.001606254343 	1.529220857e-08 	0.003595083268 	1.181773843e-08 	6.853227911e-06
0.5660070967 	0.003178145454 	-0.001263241711 	-3.515299307e-08 	0.002966130112 	6.57615827e-09 	5.654268386e-06
0.5791106073 	0.002650997617 	-0.0009150694029 	-6.08987154e-08 	0.002398824862 	-2.976889461e-08 	4.572826906e-06
0.5931681036 	0.002221652254 	-0.0005827532768 	-5.118153984e-08 	0.001927707777 	-1.123269088e-07 	3.674746801e-06
0.6082461593 	0.001934196216 	-0.0002849342853 	-2.721383457e-08 	0.001582116294 	-2.447147798e-07 	3.015953383e-06
0.6244207255 	0.001807068812 	-2.510172192e-05 	-1.733296293e-08 	0.001369300872 	-4.258200158e-07 	2.61026804e-06
0.641762148 	0.001814240811 	0.0002082420366 	-6.243896969e-08 	0.001278780808 	-5.88501145e-07 	2.437711639e-06
0.6603550546 	0.001900837908 	0.0003866362537 	-1.56217445e-07 	0.001311467934 	-5.722007052e-07 	2.500022386e-06
0.6802847741 	0.002056175969 	0.0005440434958 	-1.618023696e-07 	0.001421614267 	-4.519610687e-07 	2.70999191e-06
0.7016438663 	0.002277989632 	0.0007491372797 	-1.148575638e-07 	0.001550907984 	-4.193558576e-07 	2.956461669e-06
0.7245320632 	0.00251703064 	0.0009277466132 	-5.869097691e-08 	0.00174239684 	-4.704036542e-07 	3.321492651e-06
0.747428821 	0.00277352792 	0.001046066209 	-2.219177114e-08 	0.002025160921 	-4.49536216e-07 	3.860519579e-06
0.7688123516 	0.003083736932 	0.001187589798 	-6.366251986e-09 	0.00235511279 	-3.603843963e-07 	4.489499548e-06
0.7887815006 	0.003446872118 	0.001381091653 	2.9528035e-08 	0.002713955061 	-2.900040074e-07 	5.17355265e-06
0.8074292531 	0.003844809753 	0.00159155663 	4.374402337e-08 	0.003112435878 	-2.154385577e-07 	5.93316784e-06
0.824842804 	0.004268710919 	0.001800808547 	5.198494625e-08 	0.003550558568 	-1.450520313e-07 	6.768351457e-06
0.8411037828 	0.004713987891 	0.002014560639 	6.424340443e-08 	0.004011396088 	-1.01461688e-07 	7.646835854e-06
0.8562883075 	0.005161979294 	0.002227831772 	6.442461947e-08 	0.004472169027 	-8.101181241e-08 	8.525197141e-06
0.8704676062 	0.005590281613 	0.002431091385 	5.851660339e-08 	0.004912505713 	-7.286378943e-08 	9.364601249e-06
0.8837081452 	0.005984017699 	0.002618491971 	5.078326295e-08 	0.00532061671 	-6.859901913e-08 	1.014257424e-05
0.8960719989 	0.006336328954 	0.002787578692 	4.323284133e-08 	0.005691892033 	-6.419091795e-08 	1.085032819e-05
0.9076171404 	0.00664559226 	0.002937948826 	3.676517922e-08 	0.006025774418 	-5.788499351e-08 	1.148680082e-05
0.9183977073 	0.006913302702 	0.003070401393 	3.169654537e-08 	0.006324028241 	-4.921247672e-08 	1.20553555e-05
0.9284642592 	0.007142512183 	0.003186337279 	2.800089903e-08 	0.006589592294 	-3.846834925e-08 	1.256159439e-05
0.9378640164 	0.007336466 	0.003287194822 	2.541768484e-08 	0.006825457162 	-2.644230505e-08 	1.301121839e-05
0.9466410813 	0.007496785745 	0.003373608522 	2.347884812e-08 	0.007032828542 	-1.437460726e-08 	1.340652587e-05
0.954836645 	0.007620679792 	0.003444057991 	2.160682689e-08 	0.007208058763 	-3.772086729e-09 	1.374056338e-05
0.9624891797 	0.007694287726 	0.003490656041 	2.145631578e-08 	0.007331683824 	3.768091819e-09 	1.39762271e-05
0.967553421 	0.007717229218 	0.003511879015 	2.118103993e-08 	0.007398573375 	8.451132151e-09 	1.410373718e-05
0.9720360117 	0.007701188354 	0.003514394296 	1.80948854e-08 	0.007423133885 	1.108562254e-08 	1.415055634e-05
0.9760037277 	0.007642106819 	0.003496758641 	1.439123972e-08 	0.007403297109 	1.187823388e-08 	1.411274193e-05
0.9795156849 	0.007527003075 	0.003452355877 	1.099549967e-08 	0.007325833752 	1.065414278e-08 	1.396507524e-05
0.9826242168 	0.007335707875 	0.003372096979 	7.865817073e-09 	0.007170683172 	7.60654715e-09 	1.366931511e-05
0.9853756515 	0.007036677434 	0.003241306878 	4.524901039e-09 	0.006906173916 	3.360969512e-09 	1.316508696e-05
0.9878109997 	0.00658009961 	0.003036746054 	1.403211771e-09 	0.006481957156 	-1.073882925e-09 	1.235641191e-05
0.9899665651 	0.005888662096 	0.002722828633 	-9.335852256e-10 	0.005819908402 	-4.467932496e-09 	1.109436297e-05
0.9918744833 	0.004850895288 	0.002246251364 	-2.065424451e-09 	0.004807674631 	-5.730576581e-09 	9.16476407e-06
0.9935632004 	0.003441219234 	0.001543110312 	-2.585923009e-09 	0.003418208996 	-4.996567371e-09 	6.516056388e-06
0.9946601717 	0.001961779721 	0.0007780055931 	-2.232796026e-09 	0.001952002674 	-3.526614448e-09 	3.721059628e-06
0.9957571594 	0.0007968685888 	0.000244233978 	-9.770054249e-10 	0.0007939006267 	-1.796276508e-09 	1.513395248e-06
0.9968541637 	0.0001764432116 	3.048687847e-05 	-1.857275108e-10 	0.0001759748866 	-5.085705356e-10 	3.354570436e-07
0.9979511844 	1.490386585e-05 	7.886048093e-07 	-7.141721327e-12 	1.487349878e-05 	-5.629092379e-11 	2.835302254e-08
0.9990482216 	1.884614322e-07 	1.055800972e-09 	-1.386673547e-14 	1.88101337e-07 	-1.052728276e-12 	3.585734284e-10
