0.3524915403 	3.819577306e-07 	-4.159039615e-09 	4.01226422e-12 	3.785480694e-07 	-1.835270377e-10 	7.216178322e-10
0.3536068642 	3.436520683e-05 	-3.185322801e-06 	5.44113653e-09 	3.225661781e-05 	-3.094692719e-08 	6.14900788e-08
0.3547223496 	0.0004169686105 	-0.0001013232614 	1.75966076e-07 	0.0003510310141 	-3.502699716e-07 	6.691626768e-07
0.3558378442 	0.001712693316 	-0.0005864824799 	7.464494503e-07 	0.001333265827 	-9.772705604e-07 	2.541575228e-06
0.3569531967 	0.003558599926 	-0.001376439265 	1.083427914e-06 	0.002671427652 	-9.058574507e-07 	5.09248359e-06
0.3580682569 	0.005112628484 	-0.002082417282 	7.036468482e-07 	0.003774468582 	7.045650771e-07 	7.195186177e-06
0.35978394 	0.005767151017 	-0.00238591606 	-9.251924154e-07 	0.004241061952 	3.939781528e-06 	8.084642822e-06
0.361720438 	0.005328333035 	-0.002170466896 	-3.36695582e-06 	0.003953735255 	7.569917697e-06 	7.536918281e-06
0.3639049575 	0.00434473148 	-0.001728716561 	-4.642793983e-06 	0.003273691715 	9.124702829e-06 	6.240566284e-06
0.3663674413 	0.003344841611 	-0.001299483447 	-4.535217377e-06 	0.002583780249 	7.037226092e-06 	4.925403278e-06
0.36920096 	0.002601663958 	-0.0009244797061 	-3.436711619e-06 	0.00214220557 	2.41959303e-06 	4.083639212e-06
0.3724184949 	0.002177472646 	-0.0006348185445 	-2.155525728e-06 	0.002011694927 	-1.814176308e-06 	3.834849653e-06
0.3760438857 	0.001978467593 	-0.0004311634115 	-1.481130265e-06 	0.002108728308 	-4.280972625e-06 	4.019822246e-06
0.3801277765 	0.00187750079 	-0.0002691232911 	-1.131232934e-06 	0.002312744626 	-5.047159046e-06 	4.408734051e-06
0.3848143963 	0.001810608869 	-0.0001326210381 	-8.812489874e-07 	0.002534897186 	-4.853377398e-06 	4.832218576e-06
0.3901331779 	0.001749240159 	-2.251526108e-06 	-7.264425454e-07 	0.00274492094 	-3.895246429e-06 	5.232582223e-06
0.3981914987 	0.001688878208 	0.0001279898574 	-3.958504135e-07 	0.002872555905 	-2.115479539e-06 	5.475889941e-06
0.4069277984 	0.001640844643 	0.0002299547886 	-2.110201082e-08 	0.002880370275 	-1.051395956e-06 	5.490786301e-06
0.4163791821 	0.001605485139 	0.0002900306715 	1.830115734e-07 	0.002843636482 	-7.151524185e-07 	5.420761483e-06
0.4265723647 	0.001578184673 	0.0003220122076 	2.29145153e-07 	0.002809130903 	-4.952204242e-07 	5.354984259e-06
0.4375983103 	0.001556998184 	0.0003399241884 	1.729659355e-07 	0.002784594549 	-3.103904903e-07 	5.308211149e-06
0.4495688352 	0.001540785137 	0.0003545052467 	8.356428148e-08 	0.002769810116 	-1.392649005e-07 	5.28002791e-06
0.4609124074 	0.00153037935 	0.0003680372878 	1.575968842e-08 	0.002763799111 	-4.360595092e-07 	5.268569263e-06
0.4625033521 	0.001528897491 	0.0003699312312 	1.141193385e-08 	0.002762882424 	-1.897914018e-08 	5.266821803e-06
0.4764361663 	0.00152051266 	0.0003868531088 	1.030259266e-07 	0.002762105433 	-1.662552363e-07 	5.265340643e-06
0.4915177733 	0.001515046569 	0.0004053507355 	1.915351658e-07 	0.002766674751 	-3.027757914e-07 	5.274051032e-06
0.5078705597 	0.001511875029 	0.0004252984648 	2.750225963e-07 	0.002775433234 	-4.297907314e-07 	5.290747135e-06
0.5255559403 	0.001510387085 	0.0004466195468 	3.506721828e-07 	0.002786999618 	-5.46915536e-07 	5.312795878e-06
0.5446528007 	0.001510038628 	0.0004692707021 	4.154635638e-07 	0.002800000995 	-6.533623455e-07 	5.337580116e-06
0.5653073198 	0.001510358903 	0.0004933902723 	4.661870875e-07 	0.002812798165 	-7.476152747e-07 	5.361975079e-06
0.5875706324 	0.001511023106 	0.0005193360549 	4.986131338e-07 	0.002823253867 	-8.267045762e-07 	5.381906553e-06
0.6115522574 	0.001511768385 	0.0005472745159 	5.090461518e-07 	0.002828989471 	-8.873196185e-07 	5.392840209e-06
0.6373531822 	0.001512248131 	0.0005771514875 	4.954345849e-07 	0.002826898787 	-9.236433008e-07 	5.388854785e-06
0.6650736862 	0.001512420353 	0.0006085879617 	4.594051679e-07 	0.002813395005 	-9.280575105e-07 	5.363112821e-06
0.6928473989 	0.001512890877 	0.0006399895324 	4.079420502e-07 	0.002787259247 	-8.975793673e-07 	5.313290803e-06
0.7188076063 	0.001515161618 	0.0006699709486 	3.524489251e-07 	0.002751275918 	-8.37556643e-07 	5.244696577e-06
0.7430616173 	0.001521385942 	0.000698951638 	3.012223525e-07 	0.002709253039 	-7.525714579e-07 	5.16458929e-06
0.7657166274 	0.001533958727 	0.0007280124452 	2.584368585e-07 	0.002665125621 	-6.473682777e-07 	5.080470167e-06
0.7868765632 	0.001555322241 	0.0007580729294 	2.266015523e-07 	0.002623744818 	-5.277949625e-07 	5.001586855e-06
0.8066407466 	0.001587985042 	0.0007901232263 	2.06631749e-07 	0.002590458181 	-4.001634359e-07 	4.938133274e-06
0.825101173 	0.0016345657 	0.0008253969595 	1.978895854e-07 	0.002570546855 	-2.702182136e-07 	4.900176751e-06
0.8423446134 	0.001697778646 	0.0008653606193 	1.98726319e-07 	0.002568800735 	-1.431332692e-07 	4.896848163e-06
0.8584514973 	0.001780399368 	0.0009116120609 	2.065980839e-07 	0.002589130622 	-2.358696733e-08 	4.935602577e-06
0.8734970175 	0.001885091003 	0.0009656896529 	2.176529127e-07 	0.002634223277 	8.370877298e-08 	5.02156171e-06
0.8875511498 	0.002013788065 	0.00102869672 	2.26457797e-07 	0.002705342794 	1.723691265e-07 	5.157135276e-06
0.900679109 	0.002166495366 	0.001100761521 	2.262425413e-07 	0.002802003408 	2.326793575e-07 	5.341397272e-06
0.9129417823 	0.002339717297 	0.001180436268 	2.10036203e-07 	0.002921029987 	2.520567023e-07 	5.568295013e-06
0.9243960038 	0.002525181541 	0.001264190424 	1.731143953e-07 	0.003055091925 	2.200544316e-07 	5.823854328e-06
0.9350948531 	0.002709992872 	0.001346382752 	1.172395078e-07 	0.003191774412 	1.368616567e-07 	6.084409136e-06
0.9450879208 	0.002879626051 	0.001420311866 	5.553346797e-08 	0.003314511282 	2.086053641e-08 	6.318379724e-06
0.954421548 	0.003014226522 	0.001475563091 	-1.962250273e-08 	0.003402120167 	-8.134266447e-08 	6.485386608e-06
0.9605997311 	0.003109785058 	0.001505507639 	-6.353361032e-08 	0.003449457705 	-1.241428999e-07 	6.575625112e-06
0.9660692856 	0.003184636312 	0.001523780312 	-2.133201273e-08 	0.003473384375 	-9.106863807e-08 	6.621235997e-06
0.9709113578 	0.003248928351 	0.001543659021 	6.670649441e-08 	0.003485971314 	6.444403529e-09 	6.645230199e-06
0.9751978312 	0.003303596046 	0.001567134468 	1.559368877e-07 	0.003490705117 	1.555823527e-07 	6.654254145e-06
0.9789923751 	0.003345187134 	0.001584660396 	2.21720203e-07 	0.003485077136 	3.418289609e-07 	6.643525649e-06
0.9823513805 	0.003359226625 	0.001583659521 	2.874942649e-07 	0.003456481408 	5.408568533e-07 	6.589014243e-06
0.9853247881 	0.003311342625 	0.001554207859 	3.548151349e-07 	0.003373638656 	7.03281799e-07 	6.431092932e-06
0.987956823 	0.003136496096 	0.001468401846 	3.743441544e-07 	0.003172540413 	7.608144167e-07 	6.047743789e-06
0.9902866465 	0.002731499771 	0.0012758149 	3.191840286e-07 	0.00274935879 	6.621977989e-07 	5.241041999e-06
0.9923489342 	0.002042992762 	0.0009458165385 	2.084103111e-07 	0.002049995632 	4.423510569e-07 	3.907861441e-06
0.993688642 	0.001222967884 	0.0005294305378 	9.194645715e-08 	0.001224794349 	2.20450444e-07 	2.334798443e-06
0.9950284246 	0.0005116153012 	0.0001796540232 	2.157306584e-08 	0.0005116514352 	8.084672514e-08 	9.753498417e-07
0.9963682821 	0.0001122728865 	2.416378406e-05 	2.703086029e-09 	0.000112153626 	2.071616245e-08 	2.137959827e-07
0.9977082144 	8.739651098e-06 	6.163741277e-07 	1.497054164e-10 	8.724843682e-06 	2.667328341e-09 	1.6631977e-08
0.9990482216 	9.015388739e-08 	6.767548847e-10 	4.19876474e-13 	8.998226373e-08 	5.278856878e-11 	1.715312039e-10
