0.0005114764181 	0.001194228807 	-2.304752738e-06 	-1.006276777e-07 	0.0002649353756 	1.156732831e-05 	5.050404609e-07
0.001537170139 	0.001219210401 	2.004071809e-06 	-4.905496164e-07 	0.000824042506 	1.035282709e-05 	1.570854047e-06
0.003073980856 	0.001267340709 	-7.335399305e-05 	-1.17637125e-06 	0.0008453608979 	4.334571338e-06 	1.611492827e-06
0.004610430406 	0.001306374773 	-0.0001331339727 	-1.253530464e-06 	0.0008786187132 	2.604630517e-06 	1.674891467e-06
0.006146517782 	0.001367040259 	-0.0001832833212 	-1.213489877e-06 	0.0009003071328 	1.904862222e-06 	1.716235623e-06
0.007682242713 	0.001449231508 	-0.0002250226391 	-1.097013056e-06 	0.0009065453875 	1.522421484e-06 	1.72812747e-06
0.01004573246 	0.001553441376 	-0.0002610593679 	-9.743844141e-07 	0.0008991979637 	1.176610484e-06 	1.714121238e-06
0.0127150511 	0.001655845786 	-0.0002785495199 	-8.539216705e-07 	0.0008836175272 	9.622179591e-07 	1.684420596e-06
0.01572963853 	0.001734844356 	-0.0002773958408 	-7.624965145e-07 	0.0008641918756 	8.259977179e-07 	1.647389905e-06
0.01913400214 	0.001751115168 	-0.0002381855624 	-3.715369007e-07 	0.0008604277325 	7.164993768e-07 	1.640214402e-06
0.02305777274 	0.001799191168 	-0.0002316086595 	-3.440852646e-07 	0.0008556299407 	6.378571744e-07 	1.631068477e-06
0.02752101893 	0.001844743905 	-0.0002452303838 	-2.117327709e-07 	0.0008609816444 	6.903733927e-07 	1.641270312e-06
0.02768029774 	0.001844500565 	-0.0002447502128 	-1.037055621e-07 	0.0008617104056 	5.20892678e-07 	1.642659533e-06
0.03256076431 	0.001831646559 	-0.0002219569079 	-1.822469595e-07 	0.0009010821037 	1.105725324e-06 	1.717712933e-06
0.03825110791 	0.001853935781 	-0.0002345225587 	-2.718693635e-07 	0.0009167152957 	1.486352848e-06 	1.747514141e-06
0.04479564145 	0.001864139926 	-0.0002393042405 	-4.456225619e-07 	0.0009223888222 	1.890670051e-06 	1.75832946e-06
0.05224504555 	0.001850140434 	-0.0002436309637 	-7.325223798e-07 	0.0009223720994 	2.336359256e-06 	1.758297581e-06
0.06357615196 	0.00181511668 	-0.0002587693757 	-1.189604872e-06 	0.0009315684806 	2.921617417e-06 	1.77582844e-06
0.07592163705 	0.001776436749 	-0.0002774360363 	-1.77539168e-06 	0.000947791289 	3.411092701e-06 	1.806753622e-06
0.08935044688 	0.001743946737 	-0.0002967534758 	-2.251232745e-06 	0.0009692409399 	3.599951461e-06 	1.847642618e-06
0.1039195049 	0.00171920698 	-0.0003171741255 	-1.782481045e-06 	0.0009937797618 	2.504438863e-06 	1.894420433e-06
0.1197802718 	0.001701427061 	-0.0003388516977 	-1.253694727e-06 	0.001022501453 	1.607390718e-06 	1.949171959e-06
0.1371201864 	0.001690792911 	-0.000362059836 	-6.991956962e-07 	0.001057531794 	8.635765481e-07 	2.015949525e-06
0.1560089508 	0.001687100202 	-0.0003868285688 	-1.355460664e-07 	0.001100427799 	2.374290016e-07 	2.097721232e-06
0.1589197417 	0.001687890455 	-0.0003905972221 	1.763446953e-07 	0.001108075427 	-4.858832722e-07 	2.112299738e-06
0.1873653297 	0.001676410203 	-0.0004127403112 	5.674562157e-07 	0.001218547966 	3.798405827e-07 	2.3228911e-06
0.2212560515 	0.001673979102 	-0.0004361838665 	1.150025496e-06 	0.001354838911 	1.176675875e-06 	2.582699522e-06
0.2559011805 	0.00167982638 	-0.0004556123476 	1.368908291e-06 	0.00150014682 	2.003295403e-06 	2.859696783e-06
0.2912500262 	0.001690307068 	-0.0004684535455 	9.660821229e-07 	0.001655450634 	1.84290563e-06 	3.155749017e-06
0.3273210983 	0.00170313855 	-0.0004711686994 	6.091784322e-07 	0.001824067998 	1.406743654e-06 	3.477180578e-06
0.3642915699 	0.001711530862 	-0.0004565417749 	2.323989605e-07 	0.002007669241 	7.954656869e-07 	3.827175577e-06
0.4021828052 	0.001715095397 	-0.0004179658284 	-2.214383445e-08 	0.002207913472 	1.293655139e-07 	4.208896735e-06
0.4025989586 	0.001714984582 	-0.0004168015697 	4.544494167e-08 	0.002209518152 	8.615087034e-08 	4.211955701e-06
0.439146334 	0.001705220078 	-0.0002956014541 	4.607195912e-07 	0.002340807001 	5.27562246e-07 	4.462228737e-06
0.478129472 	0.001699747103 	-0.0001233670705 	5.905128215e-07 	0.002398116958 	8.977632071e-07 	4.571477444e-06
0.5193171261 	0.001714358592 	3.657660722e-05 	5.562297848e-07 	0.002425634018 	9.621291039e-07 	4.623932608e-06
0.5600296399 	0.0017401034 	0.0001668287133 	4.609574597e-07 	0.002437971728 	7.669796939e-07 	4.647451714e-06
0.5977120125 	0.001767093528 	0.0002683481731 	3.610543987e-07 	0.002437846439 	5.352436435e-07 	4.647212878e-06
0.6326835878 	0.00179016653 	0.0003485588761 	2.872256541e-07 	0.002426960687 	3.357145495e-07 	4.626461607e-06
0.665206269 	0.001807614097 	0.0004142469155 	2.405120916e-07 	0.002407141406 	1.845401485e-07 	4.588680551e-06
0.6954985866 	0.001819665169 	0.0004705988548 	2.150070601e-07 	0.002380628808 	8.27691652e-08 	4.53814017e-06
0.7237468126 	0.001827631596 	0.0005216229265 	2.095968778e-07 	0.002350079738 	2.986861853e-08 	4.479905152e-06
0.7501097256 	0.00183378393 	0.0005707657251 	2.220292872e-07 	0.002318611268 	2.226971561e-08 	4.419917501e-06
0.7747273684 	0.001841366402 	0.0006210899701 	2.463186294e-07 	0.002290116191 	5.711692569e-08 	4.365597964e-06
0.7977238094 	0.001854710034 	0.0006752065307 	2.753619513e-07 	0.002269440122 	1.292379942e-07 	4.32618363e-06
0.8192111394 	0.00187928919 	0.000735187349 	3.041674207e-07 	0.00226227724 	2.303159237e-07 	4.312529187e-06
0.8392911889 	0.001921485617 	0.0008024691096 	3.31565237e-07 	0.002274930816 	3.50573249e-07 	4.336650419e-06
0.8580574092 	0.001988079956 	0.0008778938983 	3.532175845e-07 	0.00231388056 	4.782072303e-07 	4.410899458e-06
0.8755961776 	0.002085625074 	0.000962815277 	3.7356948e-07 	0.002385010776 	5.983285329e-07 	4.546493418e-06
0.8919876216 	0.002220263539 	0.001058036286 	3.350497602e-07 	0.002492331507 	6.818918715e-07 	4.75107656e-06
0.9073063284 	0.00239627732 	0.001155973952 	2.693650958e-07 	0.002637011516 	7.254849159e-07 	5.02687687e-06
0.9216218925 	0.002611114238 	0.001255392468 	2.550370705e-07 	0.002819071596 	7.288905422e-07 	5.373933983e-06
0.934999332 	0.002831760388 	0.001353920475 	2.349859208e-07 	0.003013560418 	6.614496369e-07 	5.744683732e-06
0.943857725 	0.003013639793 	0.00143552655 	1.882132831e-07 	0.003177562405 	5.437483681e-07 	6.057317102e-06
0.9517024064 	0.003153125692 	0.001497926526 	1.311590366e-07 	0.003302975877 	4.040871027e-07 	6.296390035e-06
0.9586489453 	0.003257089442 	0.001543871198 	7.113696183e-08 	0.003393832663 	2.560537919e-07 	6.469588323e-06
0.9647998372 	0.003320600688 	0.001570766125 	1.613194862e-08 	0.003443657004 	1.170949446e-07 	6.564567364e-06
0.9702459449 	0.003340390414 	0.001575726471 	-2.729071188e-08 	0.003447895498 	-1.824902263e-09 	6.572647111e-06
0.9750678158 	0.003311026492 	0.00155639253 	-5.017460017e-08 	0.003400686958 	-9.533595166e-08 	6.482654514e-06
0.9793368375 	0.003219753125 	0.001509893339 	-7.327582344e-08 	0.003289791462 	-1.701598303e-07 	6.271256876e-06
0.9831162688 	0.00303685472 	0.001422560681 	-1.129971806e-07 	0.003086694137 	-2.449279413e-07 	5.884096928e-06
0.9864621575 	0.002698412648 	0.001263254814 	-1.642531394e-07 	0.002729333953 	-3.420807249e-07 	5.202869093e-06
0.9894241578 	0.002130411055 	0.0009914147499 	-2.093228739e-07 	0.002146427968 	-4.377528166e-07 	4.091688276e-06
0.991348501 	0.001386328929 	0.000613861577 	-2.19408343e-07 	0.001392743301 	-4.510909794e-07 	2.654955825e-06
0.9932730792 	0.0006227752121 	0.0002353826295 	-1.291366213e-07 	0.0006242260704 	-2.737323836e-07 	1.189948385e-06
0.9951978921 	0.0001360774292 	3.333195472e-05 	-2.311228938e-08 	0.0001360907055 	-6.449458598e-08 	2.594267091e-07
0.9971229397 	9.020935175e-06 	6.937663301e-07 	-3.768341841e-10 	9.007591021e-06 	-2.842169253e-09 	1.717097202e-08
0.9990482216 	6.464182445e-08 	4.403210845e-10 	-1.135989382e-14 	6.451954063e-08 	2.014706857e-12 	1.229921767e-10
