5.285597238e-21 	0.4903226665 	-2.003082657e-14 	-1.153365164e-21
9.777528212e-19 	0.5657599921 	0.1198436311 	-6.938893904e-18
0.001074327146 	0.5813298272 	0.1905151142 	-0.007216923336
0.002146986776 	0.5984105068 	0.3165691219 	-0.01026916585
0.003217959715 	0.6014096259 	0.3765234058 	-0.01029840613
0.004287226928 	0.5965128921 	0.4032018305 	-0.009258236298
0.005354769522 	0.5907246229 	0.4228904498 	-0.008177566696
0.006420568743 	0.5863814699 	0.4417929052 	-0.007198905421
0.007484605976 	0.5836297344 	0.4605094476 	-0.006313002049
0.008546862746 	0.5822592217 	0.479147445 	-0.005509602323
0.009607320712 	0.5819644904 	0.4976940433 	-0.004779803676
0.01066596167 	0.5826377286 	0.5159560221 	-0.00411345493
0.01172276756 	0.5842998517 	0.5336514062 	-0.003501494877
0.01277772044 	0.5867435337 	0.5507594737 	-0.002941469712
0.01383080251 	0.589842875 	0.5673008665 	-0.002431913663
0.01488199612 	0.5935937935 	0.5832197481 	-0.001970262257
0.01593128371 	0.5979224158 	0.5984967855 	-0.001554838519
0.0169786479 	0.6028143238 	0.6130830467 	-0.00118442287
0.01802407142 	0.608250848 	0.6269528914 	-0.0008578409396
0.01906753711 	0.6141735962 	0.6401409314 	-0.0005737587769
0.02010902796 	0.6205730785 	0.6526869971 	-0.0003304534138
0.02114852709 	0.6274798135 	0.6646433592 	-0.0001260726139
0.02190656462 	0.6328191073 	0.6730419934 	-0.0001980675853
0.02213602389 	0.6379122547 	0.6734869699 	-8.822824775e-05
0.02298658729 	0.656440538 	0.6752588603 	-0.0003854167504
0.02383601527 	0.67459001 	0.6772420473 	-0.0006376735018
0.02468429274 	0.6923758563 	0.6794481716 	-0.0008487235275
0.0255314047 	0.7098120274 	0.6818735577 	-0.001022404901
0.02637733621 	0.7269168006 	0.6845006903 	-0.001162683082
0.02722207243 	0.7437068922 	0.6873092116 	-0.001273398634
0.02806559858 	0.760196764 	0.6902804412 	-0.001358195936
0.02890789998 	0.7764075849 	0.6933957418 	-0.001420395493
0.02974896199 	0.7937204458 	0.6951535889 	-0.001443785672
0.03105328552 	0.816809455 	0.7017914623 	-0.0014506345
0.03237895466 	0.8410690035 	0.7074054703 	-0.001165665991
0.03372619192 	0.8652718761 	0.7133501717 	-0.0009245591053
0.03509521438 	0.8894437339 	0.7195851592 	-0.0007219231599
0.03648623309 	0.9135922237 	0.7260765062 	-0.0005527698701
0.03789945241 	0.9377206578 	0.7327875383 	-0.0004124298794
0.03933506942 	0.9618297958 	0.7396800214 	-0.0002967707586
0.04079327314 	0.9859218949 	0.7467159729 	-0.0002022732027
0.04227424383 	1.010002503 	0.7538580812 	-0.0001260045288
0.04377815219 	1.034077932 	0.7610692925 	-6.554364233e-05
0.04530515853 	1.058152668 	0.7683118684 	-1.886476677e-05
0.04608381709 	1.070266165 	0.772023932 	-0.0003882845298
0.04669962032 	1.082032994 	0.7708304768 	-0.0001090540432
0.04795657 	1.105580681 	0.768720112 	-0.0003179649661
0.04923369681 	1.128936366 	0.7668087643 	-0.0005130304759
0.05053116635 	1.152087576 	0.7650629733 	-0.0006950729174
0.0518491351 	1.175023675 	0.7634543516 	-0.0008647396467
0.0531877496 	1.197735653 	0.7619589696 	-0.001022582944
0.05454714558 	1.220215517 	0.76055636 	-0.001169124404
0.05592744703 	1.242455757 	0.7592281798 	-0.001304890405
0.05732876521 	1.264449376 	0.7579568616 	-0.001430408763
0.05875119761 	1.286188772 	0.7567256015 	-0.001293015876
0.06019482689 	1.307665127 	0.7555184214 	-0.001117240958
0.06165971967 	1.328869956 	0.7543194721 	-0.0009511210773
0.06314592535 	1.349805068 	0.7531061816 	-0.0007941930357
0.06465775049 	1.370583629 	0.7518107547 	-0.0006456014575
0.06623409489 	1.391465153 	0.7505906425 	-0.000501809777
0.06783446702 	1.412135548 	0.7492628321 	-0.0003663145931
0.06945913953 	1.432507836 	0.7478923319 	-0.000238907777
0.07110838511 	1.452582814 	0.7464746344 	-0.0001193476988
0.0727824764 	1.472361674 	0.745006087 	-7.413663413e-06
0.07289842475 	1.47370215 	0.7449114852 	-4.852412679e-05
0.07426181252 	1.491596159 	0.7416810813 	-7.967028517e-05
0.0757472134 	1.510598464 	0.7382697701 	-0.0001567078006
0.07725503592 	1.52938857 	0.73490078 	-0.0002253028426
0.07878553239 	1.54796535 	0.7315663312 	-0.0002858255245
0.08033895541 	1.566327901 	0.7282589952 	-0.0003386398229
0.08191555778 	1.584475581 	0.7249717166 	-0.0003841039251
0.08351559245 	1.602408027 	0.7216978144 	-0.0003668482219
0.08513931241 	1.620125149 	0.7184309667 	-0.0002905014802
0.08678697065 	1.637627088 	0.7151651778 	-0.000221495029
0.08845882009 	1.654914184 	0.7118947425 	-0.0001595119575
0.09015511346 	1.671986945 	0.7086142196 	-0.0001042395646
0.0918761033 	1.688846038 	0.7053184238 	-5.536973149e-05
0.09362204182 	1.705492305 	0.7020024247 	-1.259956238e-05
0.09419342311 	1.710819141 	0.7009476938 	-0.0002204335263
0.09531469617 	1.721534935 	0.697527935 	-4.874527287e-05
0.09699468175 	1.737195894 	0.6925385202 	-0.0001149691256
0.0986997996 	1.752665898 	0.6875853124 	-0.0001743760172
0.1004303306 	1.767944755 	0.682665147 	-0.0002271924623
0.1021865562 	1.7830326 	0.6777749878 	-0.0002736373985
0.1039687584 	1.797964338 	0.6728800299 	-0.0003139073
0.105801143 	1.812869889 	0.6679714254 	-0.0003148464772
0.1076898344 	1.827757954 	0.663055541 	-0.0002470473393
0.1096057252 	1.842477761 	0.6581245308 	-0.0001857395547
0.1115490892 	1.856989119 	0.6532143075 	-0.0001307256956
0.1135202004 	1.871293116 	0.6483219377 	-8.17776976e-05
0.1155193324 	1.885390692 	0.6434445038 	-3.866858365e-05
0.1175467585 	1.899282232 	0.6385791931 	-1.172265224e-06
0.1176158625 	1.899745263 	0.6384186397 	-2.22277621e-05
0.1195071859 	1.913449405 	0.63304239 	-3.862222397e-05
0.1214927075 	1.927421522 	0.6275213611 	-7.314428031e-05
0.1235069599 	1.941191815 	0.6220265034 	-0.0001023454758
0.1255502441 	1.955938432 	0.6153739102 	-0.0001254050556
0.1286698652 	1.974708304 	0.6084312241 	-0.0001523477473
0.1318034845 	1.993852591 	0.6004922813 	-0.0001152402057
0.1349511188 	2.012224951 	0.5927514124 	-6.906465187e-05
0.1381127882 	2.029952165 	0.5851031237 	-3.365567216e-05
0.1413694387 	2.047268038 	0.5775873569 	-7.423195546e-06
0.1425900493 	2.053539961 	0.5748510671 	-0.0003297187818
0.1445658929 	2.06394351 	0.5695732806 	-2.096331373e-05
0.1477280931 	2.07995281 	0.5614316789 	-4.630214286e-05
0.1509048918 	2.095344916 	0.5535117894 	-6.271996219e-05
0.1540963343 	2.110134669 	0.5457953395 	-7.123923411e-05
0.15730247 	2.12433422 	0.5382641146 	-5.116183943e-05
0.1605233532 	2.137956788 	0.5309023431 	-2.808014788e-05
0.1637590427 	2.151016536 	0.5236953352 	-1.212291302e-05
0.1670096021 	2.163567081 	0.5165844772 	-2.531529803e-06
0.1685683127 	2.169309245 	0.5133096053 	-0.0003509319347
0.1702759792 	2.175779131 	0.5092665677 	-6.535742312e-06
0.1735378181 	2.18761281 	0.5018009953 	-1.399383027e-05
0.176816035 	2.198959736 	0.4944891196 	-1.549895427e-05
0.1801107166 	2.209826093 	0.4873438742 	-1.166461949e-05
0.1834219551 	2.220237509 	0.4803565828 	-2.859483983e-06
0.1867498487 	2.230218614 	0.4735200845 	5.861832367e-06
0.1900945014 	2.239792265 	0.466827933 	9.554042464e-06
0.1934560237 	2.248997269 	0.4602482553 	8.713826712e-06
0.1968739022 	2.257913476 	0.453751258 	3.733057716e-06
0.1985304137 	2.262046913 	0.4507150712 	-0.0003030201998
0.2002921667 	2.266546812 	0.4471775946 	4.176548128e-06
0.203671274 	2.274827058 	0.4405869652 	1.498918881e-05
0.2070684227 	2.282737745 	0.4341522842 	2.908779901e-05
0.2104837616 	2.290283035 	0.4278638883 	4.597444374e-05
0.213917447 	2.297467468 	0.4217126842 	6.519904774e-05
0.2173696432 	2.304300413 	0.4156845641 	5.767556046e-05
0.2208498461 	2.310821057 	0.4097317157 	4.580714667e-05
0.2244220358 	2.317080981 	0.4038503006 	3.129205618e-05
0.2280123558 	2.323023486 	0.3980443733 	1.477504339e-05
0.2309642662 	2.327628374 	0.3933934973 	-9.758857863e-05
0.231601588 	2.328644692 	0.3923210233 	3.637448861e-06
0.2351229535 	2.333990498 	0.3865894317 	2.461591228e-05
0.2386642333 	2.339054853 	0.3809788162 	4.710443208e-05
0.2422256574 	2.343861025 	0.3754655532 	7.084102121e-05
0.245844 	2.348449712 	0.3700231979 	9.584610234e-05
0.2495251984 	2.352828873 	0.3646499585 	9.39532266e-05
0.2532263804 	2.356974917 	0.3593640435 	7.264064263e-05
0.2569478097 	2.360888513 	0.3541808446 	5.031704697e-05
0.2606897621 	2.364579514 	0.3490957257 	2.717347285e-05
0.2644525256 	2.368061919 	0.3440923004 	3.376816031e-06
0.2649834881 	2.368526694 	0.3434085264 	-6.340148518e-05
0.2682013626 	2.371433737 	0.3390643868 	2.111795973e-05
0.2720083861 	2.374645035 	0.33408685 	4.640614935e-05
0.2758373145 	2.377666522 	0.3291881457 	7.201191292e-05
0.2796884853 	2.380499182 	0.3243827663 	9.779673337e-05
0.28356225 	2.383151879 	0.3196660626 	0.0001123739891
0.2874589747 	2.385639858 	0.3150132324 	8.847578358e-05
0.2914374958 	2.387986188 	0.3104111376 	6.400684757e-05
0.2954539871 	2.390184262 	0.3058629667 	3.937535604e-05
0.2994935987 	2.392231808 	0.3013889742 	1.478457546e-05
0.3019494975 	2.393389341 	0.29873814 	-0.0001545772492
0.3035411544 	2.394173893 	0.2969588348 	8.951768892e-06
0.3075897287 	2.396040198 	0.2925444075 	3.150594219e-05
0.3117070592 	2.397789162 	0.2881810564 	5.421097905e-05
0.3158763763 	2.399421279 	0.2838697941 	7.686528732e-05
0.3200711507 	2.400933548 	0.2796258977 	9.924586452e-05
0.3242918762 	2.4023302 	0.2754546082 	0.0001059809519
0.3285390659 	2.403619172 	0.2713385557 	8.436680458e-05
0.3328661155 	2.404811977 	0.2672669728 	6.270419537e-05
0.3372333222 	2.405905539 	0.263244064 	4.127995077e-05
0.3416275151 	2.406899119 	0.2592849446 	2.021063946e-05
0.3459484157 	2.40777615 	0.2554758967 	-7.625179499e-06
0.3460484185 	2.407797729 	0.25538552 	4.570882117e-07
0.3504786873 	2.408666618 	0.2514950167 	2.030924906e-05
0.3549828372 	2.409445144 	0.2476517546 	4.000316394e-05
0.35951625 	2.410129875 	0.2438648454 	5.926662657e-05
0.3640795876 	2.410722392 	0.2401427599 	7.806701176e-05
0.3686755843 	2.411225782 	0.2364704413 	9.637880174e-05
0.373358679 	2.411645021 	0.2328409248 	9.485807375e-05
0.3780726351 	2.411977297 	0.2292607013 	7.637999342e-05
0.3828182057 	2.412224058 	0.2257402459 	5.837493545e-05
0.3875975535 	2.412386884 	0.22226649 	4.08619932e-05
0.3924622408 	2.412468535 	0.2188327747 	2.369682386e-05
0.3973596973 	2.412467725 	0.215444618 	7.146375551e-06
0.3995609819 	2.412433754 	0.2139594645 	-0.0001241391772
0.4022763705 	2.412407649 	0.2121014487 	8.781198804e-06
0.4072278368 	2.412283617 	0.208797111 	2.418287848e-05
0.4122531061 	2.412078611 	0.2055339744 	3.909804253e-05
0.4173143592 	2.411792188 	0.2023171296 	5.334154079e-05
0.422412537 	2.411424396 	0.1991464873 	6.687537913e-05
0.427575927 	2.410973799 	0.1960138143 	7.972096463e-05
0.4327946249 	2.410438407 	0.192917931 	9.108232943e-05
0.4380519682 	2.409816605 	0.1898607382 	7.690491291e-05
0.4433556139 	2.409103946 	0.1868373878 	6.322290932e-05
0.4487334003 	2.408291068 	0.1838442255 	5.008472213e-05
0.4541517666 	2.407361198 	0.1808757783 	3.785203403e-05
0.4596118531 	2.406285183 	0.1779147822 	2.662104049e-05
0.4651459664 	2.405032364 	0.1749407902 	1.619261822e-05
0.4707278335 	2.403600398 	0.1719574304 	6.586075175e-06
0.4749329857 	2.402405828 	0.1697366907 	-5.704544233e-05
0.4763506212 	2.402010527 	0.1689876039 	2.389067529e-06
0.4820326335 	2.400301277 	0.1660512816 	1.097376638e-05
0.4877703369 	2.398476097 	0.1631506595 	1.811623371e-05
0.493555219 	2.396549698 	0.1602906551 	2.393401301e-05
0.4994072706 	2.394520279 	0.1574617174 	2.895919932e-05
0.5053176938 	2.392385384 	0.1546586678 	3.378800213e-05
0.511278026 	2.39013906 	0.151875447 	3.891360642e-05
0.5173077372 	2.387773718 	0.1491020387 	4.45910711e-05
0.5233956724 	2.385285795 	0.1463341206 	5.073195152e-05
0.5295365024 	2.382672422 	0.1435693909 	5.702398935e-05
0.5357509981 	2.379930476 	0.1408053246 	6.308354492e-05
0.5420221314 	2.377063459 	0.1380444733 	6.211162137e-05
0.5483526887 	2.374074841 	0.1352891732 	5.772933649e-05
0.5547556326 	2.370975606 	0.1325496507 	5.310231329e-05
0.5611453472 	2.367799773 	0.1298535824 	4.852272896e-05
0.5674604494 	2.364580185 	0.1272242249 	4.419840153e-05
0.5737018556 	2.361330366 	0.1246672843 	4.025489396e-05
0.5798639363 	2.358054711 	0.1221808124 	3.673251965e-05
0.5859581069 	2.354754635 	0.1197611284 	3.361699069e-05
0.5919785117 	2.35143322 	0.1174058123 	3.089822308e-05
0.5979243277 	2.348092182 	0.1151115745 	2.852796468e-05
0.603806435 	2.344731561 	0.1128743759 	2.646590243e-05
0.6096166771 	2.341354302 	0.1106923905 	2.468969903e-05
0.6153571087 	2.337961906 	0.108563052 	2.315807674e-05
0.6210352419 	2.334554705 	0.1064833322 	2.184676191e-05
0.6266451332 	2.331135321 	0.104451861 	2.073838082e-05
0.6321888401 	2.327704978 	0.1024665932 	1.980347839e-05
0.637672122 	2.324263982 	0.1005252025 	1.902697369e-05
0.6430906123 	2.32081446 	0.09862659574 	1.839646386e-05
0.6484456802 	2.317357325 	0.0967691054 	1.788998614e-05
0.653742691 	2.313892594 	0.0949507733 	1.749576413e-05
0.6589779999 	2.310421919 	0.09317066459 	1.720629792e-05
0.6641527762 	2.306946084 	0.0914274785 	1.700466562e-05
0.6692707843 	2.303464998 	0.08971956997 	1.688000778e-05
0.6743305076 	2.299979666 	0.08804600486 	1.682895155e-05
0.6793323654 	2.296490771 	0.08640576375 	1.68387443e-05
0.6842786275 	2.292998246 	0.08479749946 	1.689886666e-05
0.6891698224 	2.289502488 	0.08322024613 	1.700813612e-05
0.6940055861 	2.286004127 	0.08167321361 	1.715810042e-05
0.6987869863 	2.282503147 	0.08015532188 	1.733945382e-05
0.7035162408 	2.278999396 	0.07866555904 	1.754964122e-05
0.7081923019 	2.275493373 	0.0772032643 	1.778552352e-05
0.7128159963 	2.271985213 	0.07576765163 	1.803985389e-05
0.7173887898 	2.268474618 	0.07435778723 	1.830717518e-05
0.7219111564 	2.264961626 	0.07297297392 	1.858801236e-05
0.7263831588 	2.261446404 	0.07161261094 	1.887783283e-05
0.7308055292 	2.257928744 	0.07027595142 	1.917157777e-05
0.7351796769 	2.254408302 	0.06896225831 	1.946691865e-05
0.73950552 	2.250885085 	0.06767098822 	1.976426538e-05
0.7437835465 	2.247359036 	0.06640160462 	2.005985569e-05
0.7480144128 	2.243829778 	0.06515345689 	2.035019509e-05
0.7521992977 	2.240296919 	0.06392594478 	2.063458215e-05
0.7563381148 	2.236760338 	0.06271861056 	2.091323367e-05
0.7604314361 	2.233219819 	0.06153098216 	2.118348899e-05
0.7644798564 	2.229674901 	0.06036251337 	2.144297477e-05
0.7684842987 	2.226125127 	0.05921270021 	2.16913455e-05
0.772444869 	2.222570225 	0.05808113955 	2.192925045e-05
0.7763620792 	2.219009851 	0.05696742186 	2.215492161e-05
0.7802364736 	2.21544349 	0.0558710932 	2.236678892e-05
0.784068756 	2.211870609 	0.05479172097 	2.256423924e-05
0.7878592533 	2.20829078 	0.05372894034 	2.27484832e-05
0.7916083725 	2.204703547 	0.05268239973 	2.291854755e-05
0.7953166163 	2.201108347 	0.05165172137 	2.307343065e-05
0.7989845177 	2.197504559 	0.05063653153 	2.321234263e-05
0.8026125957 	2.193891592 	0.04963649136 	2.324003061e-05
0.8062011484 	2.190268886 	0.04865129876 	2.220334659e-05
0.8097506432 	2.186635811 	0.04768063708 	2.119668751e-05
0.8132615384 	2.182991653 	0.0467241869 	2.022018963e-05
0.8167343376 	2.17933568 	0.04578163797 	1.927357544e-05
0.8201694132 	2.175667191 	0.04485271378 	1.835534493e-05
0.8235671427 	2.171985448 	0.04393715014 	1.746531887e-05
0.8269279557 	2.168289648 	0.04303467063 	1.660343863e-05
0.8302522738 	2.16457893 	0.04214500669 	1.576957685e-05
0.8335405447 	2.160852409 	0.04126789601 	1.496324717e-05
0.8367931182 	2.157109208 	0.04040310115 	1.418316977e-05
0.8400103692 	2.153348393 	0.03955039209 	1.342906209e-05
0.8431926954 	2.149568967 	0.03870953051 	1.270069155e-05
0.8463404884 	2.145769877 	0.03788028735 	1.199778499e-05
0.8494541464 	2.141950028 	0.03706243655 	1.131993584e-05
0.8525340258 	2.138108303 	0.03625576846 	1.066603325e-05
0.8555804738 	2.134243526 	0.03546008317 	1.003560395e-05
0.8585938611 	2.130354448 	0.0346751753 	9.428325299e-06
0.8615745533 	2.126439753 	0.03390084552 	8.84384938e-06
0.8645229106 	2.122498053 	0.03313689875 	8.281808893e-06
0.8674392955 	2.118527906 	0.03238314564 	7.741522736e-06
0.8703240268 	2.114527807 	0.03163940937 	7.222188827e-06
0.8731774496 	2.110496158 	0.03090551451 	6.723441303e-06
0.8759999066 	2.106431261 	0.03018128383 	6.244903872e-06
0.8787917362 	2.102331327 	0.0294665469 	5.786190094e-06
0.8815532721 	2.098194461 	0.0287611357 	5.346905133e-06
0.8842848443 	2.094018674 	0.02806488698 	4.926399968e-06
0.8869867601 	2.089801865 	0.02737764612 	4.524052406e-06
0.8896593419 	2.085541794 	0.02669925846 	4.139486448e-06
0.8923029083 	2.081236081 	0.02602956932 	3.772321832e-06
0.8949177738 	2.076882197 	0.02536842812 	3.422176056e-06
0.8975042491 	2.072477457 	0.02471568707 	3.088665916e-06
0.9000626414 	2.06801901 	0.0240711993 	2.771330555e-06
0.9025932443 	2.063503831 	0.02343482351 	2.469579789e-06
0.9050963565 	2.058928688 	0.02280642041 	2.183043001e-06
0.907572275 	2.054290135 	0.02218584822 	1.911365248e-06
0.9100212935 	2.049584496 	0.02157296738 	1.654194501e-06
0.9124437021 	2.044807849 	0.02096763961 	1.411182368e-06
0.9148397876 	2.039956008 	0.02036972691 	1.181984235e-06
0.9172098321 	2.035024506 	0.01977909129 	9.661809227e-07
0.9195541108 	2.030008568 	0.01919559759 	7.633425337e-07
0.9218729013 	2.024903074 	0.01861911059 	5.731512744e-07
0.9241664782 	2.019702535 	0.01804949214 	3.952934057e-07
0.9264351131 	2.014401056 	0.01748660816 	2.29458613e-07
0.9286790742 	2.008992298 	0.01693031728 	7.533936848e-08
0.9298318717 	2.006123724 	0.01664471037 	-1.22880097e-05
0.9308985279 	2.00347022 	0.01638047887 	6.81511511e-08
0.9330937405 	1.997827495 	0.01583693185 	2.013868452e-07
0.9352650794 	1.992055204 	0.01529963519 	3.239066466e-07
0.9374128007 	1.986144844 	0.01476839938 	4.360173296e-07
0.9395371583 	1.980603369 	0.01428703648 	5.396857769e-07
0.9409211491 	1.976020272 	0.01390097087 	5.994674323e-07
0.9422797468 	1.971928058 	0.01356503685 	6.561106056e-07
0.9436134151 	1.967812374 	0.01323532234 	7.081263918e-07
0.9449226089 	1.963672853 	0.01291175204 	7.557356869e-07
0.9462077753 	1.959509142 	0.01259418859 	7.991435e-07
0.947469353 	1.955320765 	0.01228253775 	8.385451071e-07
0.9487077728 	1.951107151 	0.01197668878 	8.741297877e-07
0.9499234575 	1.946867636 	0.01167654009 	9.060907333e-07
0.9511168222 	1.942601456 	0.01138198816 	9.346100363e-07
0.9522882748 	1.938307748 	0.01109293155 	9.598566835e-07
0.9534382157 	1.93398555 	0.01080926951 	9.819935842e-07
0.9545670384 	1.929633798 	0.01053090288 	1.001177793e-06
0.9556751288 	1.925251327 	0.01025773396 	1.017560647e-06
0.9567628662 	1.920836865 	0.00998966664 	1.031287894e-06
0.9578306228 	1.916389032 	0.009726606462 	1.042499828e-06
0.958878764 	1.911906338 	0.009468460679 	1.051331411e-06
0.9599076489 	1.907387173 	0.009215138309 	1.057912409e-06
0.9609176296 	1.90282981 	0.008966550175 	1.062367517e-06
0.9619090521 	1.898232394 	0.008722608924 	1.064816495e-06
0.9628822562 	1.893592938 	0.008483229068 	1.065374303e-06
0.9638375753 	1.888909317 	0.008248326949 	1.064151222e-06
0.9647753368 	1.884179258 	0.008017820831 	1.06125301e-06
0.9656958622 	1.879400336 	0.007791630729 	1.056781262e-06
0.9665994671 	1.874569958 	0.007569678535 	1.050835849e-06
0.9674864613 	1.869685362 	0.007351888129 	1.04351015e-06
0.968357149 	1.864743595 	0.007138185079 	1.034892636e-06
0.9692118292 	1.859741512 	0.006928496736 	1.02506787e-06
0.9700507949 	1.854675752 	0.00672275226 	1.014116635e-06
0.9708743343 	1.849542731 	0.006520882563 	1.002116044e-06
0.97168273 	1.844338619 	0.006322820291 	9.891396369e-07
0.9724762596 	1.839059329 	0.006128499795 	9.752574804e-07
0.9732551957 	1.833700489 	0.005937857104 	9.605362624e-07
0.9740198057 	1.828257424 	0.005750829895 	9.450393791e-07
0.9747703525 	1.82272513 	0.00556735746 	9.28827019e-07
0.9755070937 	1.817098244 	0.00538738068 	9.119562421e-07
0.9762302828 	1.811371017 	0.00521084199 	8.94481056e-07
0.9769401682 	1.805537274 	0.005037685345 	8.764524891e-07
0.9776369939 	1.799590379 	0.004867856183 	8.579186616e-07
0.9783209997 	1.793523189 	0.004701301393 	8.389248546e-07
0.9789924206 	1.787328004 	0.004537969272 	8.1951358e-07
0.9796514876 	1.78099651 	0.004377809489 	7.997246482e-07
0.9802984274 	1.774519718 	0.00422077304 	7.795952409e-07
0.9809334626 	1.767887888 	0.004066812201 	7.591599792e-07
0.9815568118 	1.76109045 	0.003915880496 	7.384510016e-07
0.9821686893 	1.754115906 	0.003767932626 	7.17498038e-07
0.9827693059 	1.746951721 	0.003622924403 	6.963286623e-07
0.9833588682 	1.739584199 	0.003480812765 	6.749682154e-07
0.9839375792 	1.731998335 	0.003341555683 	6.534396406e-07
0.9845056383 	1.724177647 	0.003205112021 	6.317637931e-07
0.9850632409 	1.716103977 	0.003071441719 	6.099595567e-07
0.9856105793 	1.707757257 	0.002940504964 	5.880438875e-07
0.9861478418 	1.699115239 	0.002812264748 	5.660320802e-07
0.9866752136 	1.690153161 	0.002686678301 	5.439372874e-07
0.9871928764 	1.680843372 	0.002563721661 	5.217723543e-07
0.9877010086 	1.671154843 	0.002443318908 	4.995449635e-07
0.9881997853 	1.66105264 	0.002325530752 	4.772713341e-07
0.9886893783 	1.650497252 	0.002210102841 	4.549438308e-07
0.9891699566 	1.639443376 	0.002097511213 	4.326057569e-07
0.9896416856 	1.627840898 	0.001987026579 	4.102127916e-07
0.9901047282 	1.616694834 	0.001887650846 	3.899046195e-07
0.9904027491 	1.607218473 	0.001809062526 	3.729264109e-07
0.9907007766 	1.598447523 	0.001739976645 	3.580140055e-07
0.9909988108 	1.589216488 	0.001670854846 	3.428926633e-07
0.9912968515 	1.579478651 	0.001602072799 	3.275883032e-07
0.9915948988 	1.569181355 	0.001533397271 	3.120832045e-07
0.9918929527 	1.558263746 	0.001464938376 	2.963827287e-07
0.9921910132 	1.546655308 	0.00139665172 	2.804780042e-07
0.9924890802 	1.534273785 	0.001328560582 	2.6436795e-07
0.9927871539 	1.521022518 	0.001260663276 	2.480511737e-07
0.9930852341 	1.506787053 	0.001192967384 	2.315262814e-07
0.993383321 	1.491430712 	0.001125477658 	2.147946663e-07
0.9936814144 	1.4747888 	0.001058200904 	1.978596699e-07
0.9939795144 	1.456660894 	0.0009911455691 	1.80732555e-07
0.994277621 	1.436800449 	0.0009243252997 	1.634395528e-07
0.9945757342 	1.414900555 	0.0008577602 	1.460466191e-07
0.9948738539 	1.390574066 	0.0007914894526 	1.286785587e-07
0.9951719802 	1.363325355 	0.0007255698387 	1.112420555e-07
0.9954701132 	1.332509212 	0.0006601457174 	9.346911979e-08
0.9957682527 	1.297270072 	0.000595552634 	7.684507966e-08
0.9960663988 	1.256449586 	0.0005326482262 	6.238068575e-08
0.9963645514 	1.208446575 	0.000473650286 	4.797141309e-08
0.9966627107 	1.151005264 	0.0004214349811 	3.218469961e-08
0.9969608765 	1.080904693 	0.0003688552211 	9.32366688e-09
0.9972590489 	0.9935742133 	0.0002586723238 	-2.176638889e-08
0.9975572279 	0.8830335852 	5.589515114e-05 	-6.742776724e-09
0.9978554135 	0.7438755206 	-2.989302759e-05 	4.962465665e-08
0.9981536057 	0.5766462802 	0.0001095907158 	2.946439609e-08
0.9984518044 	0.3904905647 	0.0001698879172 	-2.86839736e-08
0.9987500097 	0.1964007549 	6.658884757e-05 	-2.695302017e-08
0.9990482216 	0.08176745305 	5.959424486e-06 	-1.010488945e-08
0.9990482216 	0.08176745305 	5.959424486e-06 	-1.010488945e-08
