2.89032272e-36 	2.047319795 	-8.363779721e-14 	-4.815823318e-21
0.0002557009779 	2.046347448 	0.0006634516256 	1.532572243e-07
0.0005113919582 	2.04439974 	0.001373797658 	5.334103734e-07
0.0007670729285 	2.042226947 	0.002015080084 	1.104792867e-06
0.001022743877 	2.040015213 	0.002683978374 	1.880092994e-06
0.001278404793 	2.037803499 	0.003357912108 	2.859593041e-06
0.001534055664 	2.03559526 	0.004038472844 	4.042964998e-06
0.001789696482 	2.03338372 	0.004723360355 	5.426904564e-06
0.002045327237 	2.031161294 	0.005413042835 	7.010071035e-06
0.002300947919 	2.028928154 	0.006105458337 	8.793641434e-06
0.00255655852 	2.026720947 	0.006794733648 	1.078093243e-05
0.002812159033 	2.024704149 	0.007493179572 	1.292832412e-05
0.003067749449 	2.023228835 	0.008210165141 	1.528523437e-05
0.003323329763 	2.022616027 	0.0089206365 	1.789473812e-05
0.003578899969 	2.022955936 	0.0096268824 	2.06091852e-05
0.00383446006 	2.024142514 	0.01034512554 	2.352303887e-05
0.004090010031 	2.025892299 	0.01105911037 	2.672952955e-05
0.004345549879 	2.02788655 	0.01176466463 	3.00813342e-05
0.004601079599 	2.029950145 	0.01246845541 	3.358005388e-05
0.004856599189 	2.03202822 	0.01316774999 	3.726127037e-05
0.005112108645 	2.034104596 	0.01386009601 	4.111086203e-05
0.005367607965 	2.036143292 	0.01454186763 	4.513272856e-05
0.005623097148 	2.038010187 	0.01521933236 	4.922013549e-05
0.005878576193 	2.03942775 	0.01589748463 	5.34532035e-05
0.006134045099 	2.040122625 	0.01656094525 	5.797200724e-05
0.006389503867 	2.039977491 	0.01721165404 	6.240550503e-05
0.006644952497 	2.039012202 	0.01786580591 	6.6825556e-05
0.006900390991 	2.037397159 	0.0185155477 	7.158391729e-05
0.00715581935 	2.035415951 	0.01915784287 	7.632193778e-05
0.007411237578 	2.033301098 	0.01980399467 	8.093022618e-05
0.007666645676 	2.030874451 	0.02054658075 	8.602507708e-05
0.008063470924 	2.027958689 	0.02147918973 	9.34675799e-05
0.008467729379 	2.025191474 	0.02254683523 	0.0001015285585
0.008879559814 	2.023404902 	0.02366452641 	0.0001056308037
0.009299103586 	2.023006116 	0.02479492437 	0.0001043128022
0.009726504672 	2.024071991 	0.02595493373 	0.0001021754177
0.01016190973 	2.026413099 	0.0271567979 	9.98528099e-05
0.01060546813 	2.029608224 	0.02837219919 	9.726000695e-05
0.01105733204 	2.033202065 	0.02959329069 	9.403429966e-05
0.01151765644 	2.036872336 	0.03081818653 	9.029062999e-05
0.01198659919 	2.040287757 	0.03204871034 	8.583673631e-05
0.01246432108 	2.042964955 	0.0332827553 	8.084245141e-05
0.01295098591 	2.04443633 	0.03449400005 	7.523909122e-05
0.0134467605 	2.044432711 	0.0356911003 	6.86005776e-05
0.0139518148 	2.042853687 	0.0369102861 	6.14229483e-05
0.01446632189 	2.039905741 	0.03812542257 	5.386251355e-05
0.0149904581 	2.036279969 	0.03932626308 	4.53128184e-05
0.01552440303 	2.0330079 	0.04059907309 	3.613967394e-05
0.01606833962 	2.031069865 	0.04196173237 	2.672849378e-05
0.01662245423 	2.030969622 	0.0433528535 	1.672974241e-05
0.01718693669 	2.032679968 	0.04478691741 	6.094751198e-06
0.01750134298 	2.034372682 	0.04559790385 	-5.26953026e-06
0.01776198037 	2.035573426 	0.04635182559 	8.616399243e-06
0.01834778225 	2.038805871 	0.04803526373 	2.881281151e-05
0.01894454299 	2.041738835 	0.04973239729 	5.06030422e-05
0.01955246699 	2.043784739 	0.05143165936 	7.394800617e-05
0.02017340567 	2.044830204 	0.0531345981 	9.872117871e-05
0.02082217767 	2.045102298 	0.05486626138 	0.0001251501102
0.02148308776 	2.044945699 	0.05662418203 	0.0001525101213
0.02215636213 	2.044678554 	0.0584030624 	0.0001806992145
0.02284223114 	2.044525809 	0.06020813296 	0.0002097678331
0.0235409294 	2.04461549 	0.06204585605 	0.0002398916799
0.02425269589 	2.044992542 	0.06392043961 	0.0002712949008
0.02497777398 	2.045638817 	0.06583248742 	0.0003041679595
0.02571641155 	2.046495732 	0.0677793749 	0.0003386067547
0.02646886107 	2.047487321 	0.06975635619 	0.0003745882992
0.02723537965 	2.048541504 	0.071757717 	0.0003574739717
0.02801622918 	2.049608853 	0.07377789348 	0.0003292185799
0.02881167637 	2.05067288 	0.075812447 	0.0002992420772
0.02962199284 	2.051745875 	0.07785890217 	0.0002675691818
0.03044745527 	2.052854895 	0.07991721202 	0.0002343092304
0.03128834539 	2.05402667 	0.08198890596 	0.0001995894501
0.03214495017 	2.055278272 	0.08407546685 	0.0001635032399
0.03301756185 	2.056615481 	0.08617730355 	0.0001261009827
0.03390647809 	2.058035547 	0.08829354484 	8.740574334e-05
0.03481200199 	2.059531423 	0.09042237205 	4.743304574e-05
0.03573444229 	2.06109606 	0.09256154627 	6.204028309e-06
0.03587252477 	2.061329381 	0.09287629171 	-8.102115417e-06
0.03667411338 	2.061826612 	0.09467306385 	3.468910041e-05
0.03763133546 	2.06249839 	0.09678952471 	7.671982364e-05
0.03860643463 	2.06327118 	0.09891683404 	0.000120180138
0.03959974299 	2.064150363 	0.1010616237 	0.0001650505824
0.04062400445 	2.065140347 	0.103235916 	0.0002119652259
0.04168283404 	2.066246 	0.1054409793 	0.0002611310724
0.04276144599 	2.067468836 	0.1076630776 	0.000311711964
0.04386020817 	2.068806192 	0.1098920689 	0.0003637038293
0.04497949521 	2.070261375 	0.1121270816 	0.000417066761
0.04611968868 	2.07183829 	0.1143667518 	0.000405198765
0.04728117716 	2.073539907 	0.1166094606 	0.0003546269335
0.04846435643 	2.075366232 	0.1188532056 	0.0003024102845
0.04966962954 	2.077312796 	0.1210961171 	0.0002486071609
0.05089740698 	2.079374558 	0.1233362209 	0.0001933124318
0.05214810683 	2.081809783 	0.125828587 	0.0001360169684
0.05406782255 	2.085100605 	0.1290131508 	4.925363241e-05
0.05513332125 	2.087069506 	0.1308547646 	-6.409128704e-05
0.05600859301 	2.088407243 	0.1329230023 	6.470911824e-05
0.05797064766 	2.091477057 	0.1373108007 	0.0002050389518
0.05995421845 	2.094795037 	0.1415018866 	0.0003410885814
0.06200681858 	2.098380303 	0.1455462254 	0.0004755651592
0.06408691716 	2.102214379 	0.149409902 	0.0006060902715
0.06618987704 	2.106260407 	0.1530784109 	0.0005949320457
0.0683159485 	2.110494742 	0.1565601316 	0.0004480527093
0.07046538455 	2.114897485 	0.1598634322 	0.0003057499787
0.07263844095 	2.119451156 	0.1629957214 	0.0001678308222
0.07483537623 	2.12413927 	0.1659634717 	3.413448255e-05
0.07541285244 	2.125351308 	0.1667037905 	-5.799044256e-05
0.07705645173 	2.127317883 	0.1698829232 	0.0001439560239
0.07930193161 	2.130196071 	0.1740311899 	0.0003342588211
0.08160880498 	2.133354655 	0.1780412471 	0.0005222454395
0.08396062899 	2.136795134 	0.1818946959 	0.00070593535
0.08633835627 	2.1404983 	0.1855610891 	0.0008280951373
0.08874227161 	2.144456824 	0.1890331951 	0.0006256583309
0.09117266288 	2.148668342 	0.1923124265 	0.0004293243209
0.09362982109 	2.153109484 	0.1954011572 	0.0002392230762
0.0961140404 	2.157724392 	0.198302898 	5.540342298e-05
0.09688760698 	2.159128946 	0.1991594339 	-8.81361628e-05
0.09862561817 	2.163117156 	0.2008439203 	0.0001139959737
0.10119209 	2.168848608 	0.2031133174 	0.000274052454
0.1038191759 	2.174574669 	0.2051915148 	0.0004285098136
0.1064752671 	2.180273595 	0.2070619693 	0.0005752004193
0.1091606836 	2.185987629 	0.2087250871 	0.0005979186218
0.111875749 	2.19182456 	0.2101988777 	0.0004319904929
0.1146207903 	2.197966233 	0.2115080655 	0.0002736951079
0.1173961382 	2.204685982 	0.2126696523 	0.0001226454593
0.1197759294 	2.211065067 	0.2135257121 	-4.905202272e-05
0.1207961827 	2.213093019 	0.2140888526 	-5.354103197e-06
0.1275401903 	2.22615752 	0.2175368895 	-3.877697085e-05
0.1342390155 	2.237571704 	0.2204820462 	-4.779714192e-05
0.1408933723 	2.247470237 	0.22295502 	-1.921267477e-05
0.1453219 	2.254124796 	0.2243640192 	-0.0001090907416
0.1473336285 	2.25814521 	0.2249595738 	9.955950589e-07
0.1534016459 	2.270176985 	0.2266542735 	5.541016331e-06
0.1594490221 	2.281724879 	0.2280739413 	7.51950428e-06
0.1655334216 	2.29239677 	0.2290870838 	3.322807536e-07
0.1716618299 	2.301796656 	0.2295149756 	-1.701879817e-06
0.1743275034 	2.305430033 	0.229496385 	-0.0001546933248
0.177417951 	2.309601801 	0.2289947241 	8.555639114e-07
0.18289823 	2.316817586 	0.2280866634 	7.023363829e-06
0.1883761782 	2.324064024 	0.227278514 	1.435788008e-05
0.1938521216 	2.331305621 	0.2264173527 	1.258254267e-05
0.1993672192 	2.338088564 	0.225412115 	6.266261212e-06
0.2049439151 	2.344176222 	0.224225571 	1.587687922e-06
0.2079444388 	2.347198445 	0.2235125941 	-0.0001489721578
0.2102620035 	2.349747113 	0.2228061837 	1.10273071e-05
0.2152872245 	2.354992418 	0.2212554251 	3.469327489e-05
0.2203176127 	2.359914244 	0.2196608456 	5.784218199e-05
0.2253537002 	2.364463479 	0.2179945467 	5.365866296e-05
0.2304675697 	2.3686293 	0.2162480842 	3.125706225e-05
0.2356043485 	2.372423589 	0.2143949403 	9.77761761e-06
0.2380122946 	2.374061006 	0.2135068086 	-0.0001443231897
0.2406777469 	2.375900339 	0.2124478767 	1.300792157e-05
0.2457008445 	2.379138 	0.2104514446 	3.746718332e-05
0.250735156 	2.382175587 	0.2084258902 	6.194429333e-05
0.2558325572 	2.38503061 	0.206377223 	7.697617474e-05
0.2609721718 	2.38769079 	0.2043040922 	5.395997636e-05
0.2661223867 	2.39013925 	0.2022165613 	3.095465019e-05
0.271283911 	2.392383846 	0.2001248372 	7.962007805e-06
0.273085448 	2.393104863 	0.1994021411 	-9.759322004e-05
0.2763941239 	2.394465933 	0.1980366098 	1.757029663e-05
0.2815469872 	2.3963753 	0.1959605663 	4.456579655e-05
0.2867304373 	2.398092026 	0.1938879274 	7.115661079e-05
0.2919293987 	2.399613792 	0.1918281535 	9.703993666e-05
0.2971446783 	2.400951363 	0.1897782643 	7.744110956e-05
0.3023972021 	2.402121441 	0.1877296254 	5.228919993e-05
0.3077176101 	2.403137702 	0.1856832508 	2.764653905e-05
0.313054455 	2.404012874 	0.1836352852 	3.989162841e-06
0.3139886584 	2.404144999 	0.1832841051 	-4.325996298e-05
0.3183414675 	2.404835722 	0.1815693928 	1.92576418e-05
0.3236377024 	2.40557248 	0.1794997137 	4.158587514e-05
0.3290180949 	2.406219381 	0.1774351523 	6.301903455e-05
0.3344194035 	2.406782996 	0.1753725632 	8.318471337e-05
0.3398426614 	2.40726748 	0.1733210948 	8.058064426e-05
0.3452904742 	2.407679253 	0.1712729621 	5.957864967e-05
0.3508197691 	2.40802114 	0.1692313024 	3.95188156e-05
0.3563719332 	2.408295043 	0.1671963104 	2.067519541e-05
0.3619481526 	2.408500851 	0.165176553 	3.031157175e-06
0.3629570058 	2.408526071 	0.1648198595 	-3.871443358e-05
0.3675345772 	2.408687479 	0.1631591146 	1.35678354e-05
0.3731844475 	2.408810661 	0.1611582707 	2.926927035e-05
0.3788622067 	2.408859771 	0.1591773183 	4.391173541e-05
0.3845691096 	2.408834837 	0.1572230035 	5.740159356e-05
0.3903361571 	2.40872847 	0.1552923084 	7.005092863e-05
0.3961520378 	2.408509477 	0.1533614172 	7.379292866e-05
0.4019987059 	2.408132154 	0.1513967158 	6.017792311e-05
0.4078847518 	2.407575924 	0.1493899494 	4.70628327e-05
0.4138401192 	2.406843989 	0.1473552057 	3.438184818e-05
0.4198282563 	2.405948385 	0.1453049974 	2.240560383e-05
0.4258507121 	2.404897745 	0.1432465196 	1.115388576e-05
0.4319424031 	2.403694354 	0.1411830864 	5.7629869e-07
0.4322943136 	2.403617061 	0.1410653588 	-1.073893217e-05
0.4380348569 	2.402376964 	0.139118581 	9.825380764e-06
0.4441641957 	2.400914208 	0.1370545743 	1.949754168e-05
0.4503583492 	2.399302725 	0.1349890915 	2.850550136e-05
0.4566034394 	2.397545208 	0.1329224601 	3.685192945e-05
0.4628906231 	2.395644584 	0.130854683 	4.457478588e-05
0.4692413887 	2.393600858 	0.1287838773 	5.174064116e-05
0.4756460929 	2.391418077 	0.1267105248 	5.833095418e-05
0.4820960035 	2.389100593 	0.1246351882 	6.435772165e-05
0.4886119779 	2.386649435 	0.1225572881 	5.729810538e-05
0.4951819604 	2.384069658 	0.1204785917 	4.995577212e-05
0.5018006331 	2.381364834 	0.118400153 	4.313947888e-05
0.5084900918 	2.378534711 	0.1163217984 	3.680849705e-05
0.5152322177 	2.375583615 	0.1142453593 	3.098045761e-05
0.5220303514 	2.372512593 	0.1121714286 	2.561992501e-05
0.5288981248 	2.369328282 	0.1101056163 	2.071050617e-05
0.5357442139 	2.366062575 	0.1080654287 	1.629512926e-05
0.5425033843 	2.362746393 	0.1060663603 	1.236354722e-05
0.5491769355 	2.359391803 	0.1041126251 	8.88918816e-06
0.5557596557 	2.356003451 	0.1022027858 	5.828317987e-06
0.5622641271 	2.352583356 	0.1003346572 	3.133819006e-06
0.5686844885 	2.349136007 	0.09850732623 	7.882048882e-07
0.5711042508 	2.347810267 	0.09782501047 	-4.88826087e-05
0.5750136979 	2.345671237 	0.09672010803 	1.334932548e-06
0.5812674994 	2.342186224 	0.09497050266 	3.213452368e-06
0.5874418623 	2.338680809 	0.09325737206 	4.809695992e-06
0.5935393208 	2.335157207 	0.09157938884 	6.161043378e-06
0.5995679114 	2.331616166 	0.08993488564 	7.28882648e-06
0.6055216298 	2.328060848 	0.08832327043 	8.209028152e-06
0.6114029402 	2.324492832 	0.08674333794 	8.950618529e-06
0.617217998 	2.320912644 	0.08519372066 	9.528172275e-06
0.6229624141 	2.317322763 	0.08367388552 	9.954289106e-06
0.6286378764 	2.313724364 	0.08218278655 	1.025133835e-05
0.6342501096 	2.310117611 	0.08071921115 	1.04311594e-05
0.6397954305 	2.306504427 	0.0792826787 	1.050162791e-05
0.6452752703 	2.3028858 	0.0778723664 	1.048013771e-05
0.6506936869 	2.299261775 	0.07648721157 	1.037767222e-05
0.6560491642 	2.295633537 	0.07512670433 	1.019779145e-05
0.6613423103 	2.292001941 	0.07379020334 	9.953611308e-06
0.666575629 	2.288367045 	0.07247681297 	9.655779229e-06
0.6717497053 	2.284729354 	0.07118596992 	9.305496412e-06
0.6768642844 	2.281089638 	0.06991719345 	8.911465251e-06
0.6819206085 	2.277447993 	0.06866975409 	8.483139815e-06
0.6869210347 	2.27380433 	0.06744301191 	8.023057612e-06
0.6918645349 	2.270159252 	0.06623658034 	7.534483295e-06
0.6967520775 	2.266512985 	0.06504994379 	7.024896505e-06
0.701585273 	2.2628653 	0.0638824762 	6.499808181e-06
0.7063646295 	2.259216304 	0.06273375197 	5.958752476e-06
0.7110902894 	2.255566241 	0.06160339416 	5.406564012e-06
0.7157630961 	2.251914963 	0.06049088863 	4.848546844e-06
0.7203845629 	2.248262152 	0.05939574169 	4.287166014e-06
0.7249546213 	2.244607847 	0.05831761244 	3.722146269e-06
0.7294738451 	2.240952026 	0.05725614421 	3.157487306e-06
0.733942979 	2.237294341 	0.05621087772 	2.596860914e-06
0.738363276 	2.233634405 	0.05518140872 	2.041055326e-06
0.7427346638 	2.229972119 	0.05416744163 	1.48996041e-06
0.7470577888 	2.226307285 	0.05316865434 	9.464163106e-07
0.7513333169 	2.222639457 	0.05218465779 	4.129300208e-07
0.7546583093 	2.21975289 	0.0514222768 	-1.161046968e-05
0.7555616001 	2.218969052 	0.05121517829 	1.050833488e-07
0.7597410789 	2.215298183 	0.05026013865 	5.952658519e-07
0.763874694 	2.211623288 	0.04931898205 	1.07474879e-06
0.7679630582 	2.207943851 	0.04839138148 	1.541843347e-06
0.7720069318 	2.20425934 	0.04747704178 	1.99582197e-06
0.7760066507 	2.20056934 	0.04657572398 	2.437747531e-06
0.7799626731 	2.196873397 	0.04568718542 	2.866535897e-06
0.7838755567 	2.193170944 	0.04481115645 	3.281097096e-06
0.7877458863 	2.189461354 	0.04394737149 	3.680574358e-06
0.7915741986 	2.185744043 	0.04309559763 	4.065909197e-06
0.7953608184 	2.182018453 	0.04225562596 	4.437109571e-06
0.7991062579 	2.17828395 	0.04142722959 	4.793526452e-06
0.8028110174 	2.174539811 	0.04061017807 	5.134632098e-06
0.8064756368 	2.170785302 	0.0398042491 	5.460310325e-06
0.8101004972 	2.167019723 	0.03900925153 	5.77163477e-06
0.8136860075 	2.163242332 	0.03822499673 	6.068455331e-06
0.8172326323 	2.159452313 	0.03745128307 	6.350498804e-06
0.8207408267 	2.155648798 	0.03668791486 	6.617551018e-06
0.8242110658 	2.151830898 	0.03593470258 	6.869744256e-06
0.827643708 	2.14799774 	0.03519148104 	7.107968553e-06
0.8310391554 	2.144148394 	0.03445808624 	7.332170008e-06
0.8343978341 	2.140281859 	0.03373434615 	7.542246811e-06
0.8377201627 	2.136397082 	0.03302009569 	7.738152505e-06
0.8410065638 	2.132492965 	0.03231517084 	7.919988306e-06
0.8442574038 	2.128568399 	0.03161942275 	8.088555514e-06
0.8474730501 	2.124622213 	0.03093270665 	8.244051233e-06
0.8506538974 	2.120653157 	0.03025487125 	8.38652444e-06
0.8538003336 	2.116659918 	0.02958577029 	8.516050356e-06
0.8569127409 	2.112641115 	0.02892525962 	8.632732391e-06
0.8599914974 	2.108595316 	0.02827320059 	8.736986377e-06
0.8630369338 	2.10452103 	0.02762946477 	8.829348736e-06
0.8660494152 	2.100416667 	0.02699392069 	8.909975169e-06
0.8690293041 	2.096280545 	0.02636643574 	8.97898727e-06
0.8719769574 	2.092110891 	0.02574688438 	9.036475536e-06
0.8748927275 	2.087905835 	0.02513514177 	9.082589076e-06
0.8777769575 	2.083663413 	0.0245310883 	9.117733867e-06
0.8806299674 	2.07938155 	0.02393461109 	9.142305278e-06
0.8834520969 	2.075058033 	0.0233455957 	9.156466668e-06
0.8862436816 	2.070690501 	0.02276392746 	9.160391567e-06
0.8890050523 	2.066276447 	0.02218949494 	9.154262849e-06
0.8917365358 	2.061813199 	0.02162218837 	9.138271419e-06
0.8944384536 	2.057297918 	0.02106189901 	9.112686362e-06
0.8971111102 	2.052727582 	0.020508523 	9.0779083e-06
0.8997548196 	2.04809895 	0.01996195695 	9.034122153e-06
0.9023698938 	2.043408551 	0.01942209495 	8.981492121e-06
0.9049566412 	2.03865267 	0.01888883284 	8.920175123e-06
0.9075153663 	2.033827326 	0.01836206673 	8.850320552e-06
0.9100463701 	2.028928254 	0.01784169212 	8.772068996e-06
0.9125499472 	2.023950888 	0.01732760367 	8.685630205e-06
0.9150263845 	2.01889033 	0.01681969689 	8.591223678e-06
0.9174759735 	2.013741319 	0.01631786453 	8.488958105e-06
0.919899002 	2.008498202 	0.01582199435 	8.237078263e-06
0.9222957551 	2.003154912 	0.01533197464 	7.861581201e-06
0.9246665141 	1.997704931 	0.01484768345 	7.497183504e-06
0.9270115577 	1.992141246 	0.01436901362 	7.143641487e-06
0.9293311603 	1.986456326 	0.01389581651 	6.800756968e-06
0.9316255899 	1.980641984 	0.01342803405 	6.468258756e-06
0.9338951158 	1.974689615 	0.01296547819 	6.145773999e-06
0.9361400045 	1.969109007 	0.0125463285 	5.849472953e-06
0.9376025474 	1.96449585 	0.01221013888 	5.628294454e-06
0.9390382774 	1.960376622 	0.01191761168 	5.429888154e-06
0.940447683 	1.956234414 	0.01163048841 	5.237215387e-06
0.9418312442 	1.9520689 	0.01134871061 	5.05031686e-06
0.9431894322 	1.947879753 	0.01107215615 	4.869060797e-06
0.9445227097 	1.943666529 	0.01080074478 	4.693273908e-06
0.9458315309 	1.939428696 	0.01053437845 	4.522800237e-06
0.9471163416 	1.935165631 	0.0102729671 	4.357483277e-06
0.9483775793 	1.930876621 	0.01001641797 	4.19717638e-06
0.9496156742 	1.926560863 	0.00976463984 	4.041742478e-06
0.9508310489 	1.922217462 	0.009517541851 	3.891046249e-06
0.9520241182 	1.917845431 	0.009275034479 	3.744954746e-06
0.9531952893 	1.91344369 	0.009037029478 	3.603337449e-06
0.9543449622 	1.90901106 	0.008803440085 	3.466066342e-06
0.9554735296 	1.904546265 	0.00857418112 	3.333016004e-06
0.9565813771 	1.900047922 	0.008349169072 	3.204063706e-06
0.9576688833 	1.895514542 	0.008128322156 	3.079089519e-06
0.95873642 	1.890944523 	0.007911560355 	2.957976423e-06
0.9597843521 	1.886336142 	0.007698805437 	2.84061039e-06
0.960813038 	1.881687553 	0.007489980979 	2.726880495e-06
0.9618228298 	1.876996776 	0.007285012335 	2.616678918e-06
0.9628140728 	1.872261692 	0.007083826684 	2.509901105e-06
0.9637871064 	1.867480037 	0.006886352884 	2.406445453e-06
0.9647422635 	1.862649386 	0.006692521589 	2.306210844e-06
0.965679871 	1.857767152 	0.006502265287 	2.209102065e-06
0.9666002502 	1.852830567 	0.00631551805 	2.115027919e-06
0.9675037163 	1.847836673 	0.006132215628 	2.023900323e-06
0.9683905791 	1.842782311 	0.005952295443 	1.935634352e-06
0.9692611423 	1.837664105 	0.005775696555 	1.850148137e-06
0.9701157044 	1.832478444 	0.005602359638 	1.767362804e-06
0.9709545586 	1.827221469 	0.005432226967 	1.687202379e-06
0.9717779924 	1.821889048 	0.005265242397 	1.609593699e-06
0.9725862884 	1.816476759 	0.005101351355 	1.534466301e-06
0.9733797238 	1.810979862 	0.004940500821 	1.461752308e-06
0.974158571 	1.805393275 	0.00478263933 	1.391386297e-06
0.9749230972 	1.799711543 	0.004627716958 	1.323305166e-06
0.9756735649 	1.793928803 	0.004475685319 	1.257447991e-06
0.9764102318 	1.788038747 	0.004326497559 	1.193755879e-06
0.9771333508 	1.78203458 	0.004180108355 	1.132171816e-06
0.9778431704 	1.775908973 	0.004036473916 	1.072640521e-06
0.9785399345 	1.769654003 	0.00389555197 	1.01510829e-06
0.9792238823 	1.763261098 	0.003757301768 	9.595228628e-07
0.979895249 	1.756720964 	0.003621684073 	9.058332723e-07
0.9805542653 	1.750023502 	0.00348866116 	8.539897282e-07
0.9812011577 	1.743157719 	0.003358196784 	8.039435133e-07
0.9818361487 	1.736111624 	0.003230256147 	7.556467376e-07
0.9824594567 	1.728872099 	0.003104805935 	7.090525197e-07
0.9830712959 	1.721424765 	0.002981814242 	6.641152245e-07
0.9836718769 	1.713753812 	0.00286125045 	6.207903413e-07
0.9842614063 	1.705841812 	0.002743085406 	5.790347646e-07
0.984840087 	1.697669487 	0.002627290597 	5.388070674e-07
0.985408118 	1.689215452 	0.002513840566 	5.000683149e-07
0.9859656949 	1.680455888 	0.002402704682 	4.627817e-07
0.9865130097 	1.671364187 	0.002293870444 	4.26916837e-07
0.9870502507 	1.661910473 	0.002187275941 	3.924432378e-07
0.987577603 	1.652061094 	0.002082989557 	3.593558689e-07
0.9880952481 	1.641777983 	0.001980779006 	3.276298929e-07
0.9886033644 	1.631017482 	0.001881109627 	2.973231599e-07
0.9891021269 	1.619731279 	0.001783290997 	2.683512473e-07
0.9895917074 	1.608896417 	0.00169529556 	2.427606783e-07
0.9899068098 	1.599690233 	0.001625778447 	2.227936067e-07
0.9902219201 	1.591173379 	0.001564663696 	2.054798031e-07
0.9905370383 	1.582213738 	0.001503514536 	1.8864013e-07
0.9908521645 	1.572766324 	0.001442688539 	1.724246962e-07
0.9911672986 	1.562780453 	0.001381965779 	1.568280636e-07
0.9914824405 	1.552197537 	0.001321457892 	1.417864002e-07
0.9917975905 	1.540949557 	0.001261118887 	1.273850652e-07
0.9921127483 	1.528957088 	0.001200972061 	1.138827523e-07
0.992427914 	1.516126761 	0.001141020638 	1.013798547e-07
0.9927430877 	1.502347905 	0.001081256163 	8.975529433e-08
0.9930582692 	1.487488491 	0.001021664908 	7.89365691e-08
0.9933734587 	1.471389803 	0.000962281135 	6.879424132e-08
0.9936886561 	1.453858598 	0.0009031352418 	5.913662239e-08
0.9940038614 	1.434656846 	0.0008442238493 	5.015736594e-08
0.9943190746 	1.413488164 	0.0007855506737 	4.144815433e-08
0.9946342958 	1.389978506 	0.0007271456683 	3.287194515e-08
0.9949495248 	1.363648551 	0.0006690652036 	2.49680068e-08
0.9952647618 	1.333873416 	0.0006113975441 	1.797335793e-08
0.9955800066 	1.2998226 	0.0005543674785 	1.187382975e-08
0.9958952594 	1.260368779 	0.0004987045578 	6.556248354e-09
0.99621052 	1.213946787 	0.000446635668 	2.085702426e-09
0.9965257886 	1.158334208 	0.000401685049 	-3.09514199e-09
0.9968410651 	1.090321292 	0.000360562318 	-1.800435284e-08
0.9971563494 	1.005262242 	0.0002679812969 	-5.03737833e-08
0.9974716417 	0.8968058152 	5.886614586e-05 	-3.088171505e-08
0.9977869419 	0.7585622983 	-5.927917132e-05 	5.523799259e-08
0.99810225 	0.5899230531 	8.929472396e-05 	4.552616107e-08
0.9984175659 	0.4000787713 	0.0001840483376 	-3.434471279e-08
0.9987328898 	0.2012548232 	8.171258553e-05 	-3.789675652e-08
0.9990482216 	0.08376199852 	1.15525574e-05 	-1.430839119e-08
0.9990482216 	0.08376199852 	1.15525574e-05 	-1.430839119e-08
