0.4706627813 	1.958627366e-05 	-7.348949373e-07 	-1.226177071e-11 	1.951128412e-05 	1.894574861e-10 	3.719393041e-08
0.4708355793 	0.0002243791859 	-3.124683947e-05 	-9.371196222e-11 	0.0002165508555 	6.214354e-10 	4.128061177e-07
0.4710083775 	0.001358394257 	-0.000369834278 	1.061673881e-09 	0.001155440683 	5.393550652e-10 	2.20259108e-06
0.4711811759 	0.005066465946 	-0.001859128591 	7.62361415e-09 	0.003443121565 	2.824602706e-09 	6.563546669e-06
0.4713539745 	0.01303733336 	-0.005329077957 	1.468651636e-08 	0.006995409533 	1.979532896e-08 	1.333519484e-05
0.4715267733 	0.02458430869 	-0.01038207647 	3.282228215e-09 	0.01106807338 	5.779661946e-08 	2.109882407e-05
0.4716995723 	0.03678299146 	-0.01566757998 	-3.402822303e-08 	0.01503897185 	1.090610057e-07 	2.866846021e-05
0.4718723715 	0.04737298247 	-0.02021611667 	-8.405938169e-08 	0.01862871838 	1.657142797e-07 	3.551151482e-05
0.4720451709 	0.05578994948 	-0.02381114114 	-1.331508831e-07 	0.02172340107 	2.241613007e-07 	4.141084014e-05
0.4722179705 	0.0623061981 	-0.026587143 	-1.764940616e-07 	0.02431160636 	2.820361182e-07 	4.634467879e-05
0.4723907703 	0.06735151902 	-0.02873324536 	-2.141211712e-07 	0.02643940191 	3.37756788e-07 	5.040084848e-05
0.4725635703 	0.07129746599 	-0.03040898101 	-2.471854918e-07 	0.02817610856 	3.902316795e-07 	5.371149406e-05
0.4727363705 	0.07442358289 	-0.03173434148 	-2.767851601e-07 	0.02959405842 	4.387875855e-07 	5.641450059e-05
0.4729091709 	0.07693223287 	-0.03279633268 	-3.037184324e-07 	0.03075718744 	4.830812586e-07 	5.863174778e-05
0.4730819714 	0.07896952528 	-0.03365771088 	-3.285050008e-07 	0.03171761261 	5.229840506e-07 	6.046258508e-05
0.4732547721 	0.08064191424 	-0.03436407737 	-3.514639561e-07 	0.03251635559 	5.585060757e-07 	6.198521122e-05
0.4734275731 	0.08202794437 	-0.03494898709 	-3.727849555e-07 	0.03318534455 	5.897552018e-07 	6.326049011e-05
0.4736003742 	0.08318636184 	-0.03543748194 	-3.925809954e-07 	0.03374941401 	6.169126339e-07 	6.433576327e-05
0.4737731754 	0.08416171047 	-0.03584851699 	-4.109233762e-07 	0.03422795615 	6.402128925e-07 	6.524799759e-05
0.4739459769 	0.08498821237 	-0.03619663434 	-4.278647234e-07 	0.03463620507 	6.599272816e-07 	6.602623351e-05
0.4741187785 	0.0856924832 	-0.03649312989 	-4.43450082e-07 	0.0349862152 	6.763425239e-07 	6.669345009e-05
0.4742915803 	0.08629545839 	-0.03674687964 	-4.577253416e-07 	0.03528760078 	6.897711967e-07 	6.726797476e-05
0.4744643823 	0.08681377247 	-0.0369649262 	-4.707479805e-07 	0.03554808769 	7.005374519e-07 	6.776453521e-05
0.4746371844 	0.08726077311 	-0.03715292375 	-4.825785574e-07 	0.0357739531 	7.088977862e-07 	6.819509747e-05
0.4748099867 	0.0876472593 	-0.03731541984 	-4.932735925e-07 	0.03597028337 	7.151014403e-07 	6.856935753e-05
0.4749827891 	0.08798201934 	-0.03745617677 	-5.028855135e-07 	0.03614140045 	7.19446962e-07 	6.889555424e-05
0.4751555917 	0.08827243005 	-0.03757820133 	-5.114672884e-07 	0.03629053237 	7.221962024e-07 	6.917984112e-05
0.4753283945 	0.08852380909 	-0.03768397592 	-5.190639747e-07 	0.0364213871 	7.235582722e-07 	6.942928661e-05
0.4755011974 	0.08874389641 	-0.03777646744 	-5.257563412e-07 	0.0365345162 	7.237599868e-07 	6.964494213e-05
0.4756740004 	0.08892824437 	-0.03785293536 	-5.315570112e-07 	0.03663457974 	7.229464487e-07 	6.983569104e-05
0.4758468036 	0.08913108212 	-0.03793979009 	-5.374434912e-07 	0.03672683927 	7.214178966e-07 	7.001156335e-05
0.4761153003 	0.08933441923 	-0.03802659171 	-5.4300861e-07 	0.03682564655 	7.178293232e-07 	7.019991748e-05
0.4763888437 	0.0894928345 	-0.03809186556 	-5.477953228e-07 	0.03691945087 	7.126769599e-07 	7.037873458e-05
0.4766675287 	0.08962530982 	-0.0381477203 	-5.51268098e-07 	0.03699206738 	7.065851767e-07 	7.051716185e-05
0.4769514519 	0.08972204639 	-0.03818865722 	-5.534444509e-07 	0.03705021473 	6.997764107e-07 	7.062800686e-05
0.4772407118 	0.08979139972 	-0.03821780311 	-5.54474545e-07 	0.03709287627 	6.925276082e-07 	7.07093316e-05
0.4775354087 	0.08983514464 	-0.03823635218 	-5.544449812e-07 	0.03712324513 	6.850249195e-07 	7.076722309e-05
0.4778356448 	0.08985624013 	-0.03824532324 	-5.534592084e-07 	0.03714216105 	6.774319777e-07 	7.080328209e-05
0.4781415242 	0.08985689628 	-0.03824574845 	-5.516049992e-07 	0.03715105128 	6.698793877e-07 	7.082022934e-05
0.4784531529 	0.08983905404 	-0.03823839017 	-5.489648102e-07 	0.03715084197 	6.624707588e-07 	7.081983034e-05
0.478770639 	0.089804383 	-0.0382239611 	-5.456124644e-07 	0.03714243582 	6.552854743e-07 	7.080380588e-05
0.4790940926 	0.08975430623 	-0.03820304679 	-5.4161429e-07 	0.03712657754 	6.483817695e-07 	7.07735756e-05
0.4794236259 	0.08969005867 	-0.0381761629 	-5.370293659e-07 	0.03710392438 	6.418000695e-07 	7.073039238e-05
0.4797593531 	0.08961270642 	-0.03814375154 	-5.319102847e-07 	0.03707504433 	6.355657116e-07 	7.067533897e-05
0.4801013905 	0.08952317743 	-0.03810619748 	-5.263030326e-07 	0.0370404321 	6.296908625e-07 	7.060935843e-05
0.4804498569 	0.0894222789 	-0.03806383552 	-5.202500516e-07 	0.0370005214 	6.241764076e-07 	7.053327755e-05
0.480804873 	0.08931072229 	-0.03801695787 	-5.137834178e-07 	0.03695568362 	6.190072604e-07 	7.044780429e-05
0.4811665619 	0.08918910898 	-0.03796581414 	-5.069455787e-07 	0.03690626082 	6.141809959e-07 	7.035359069e-05
0.4815350489 	0.08905796341 	-0.03791062925 	-4.997585475e-07 	0.03685252967 	6.096889893e-07 	7.025116417e-05
0.4819109242 	0.08891768141 	-0.037851558 	-4.921549376e-07 	0.03679469636 	6.054305455e-07 	7.014091782e-05
0.4822941986 	0.08876863614 	-0.03778874453 	-4.841678432e-07 	0.03673298943 	6.013660172e-07 	7.002328725e-05
0.482684677 	0.08861128447 	-0.03772238438 	-4.758809088e-07 	0.03666763804 	5.975252727e-07 	6.989870934e-05
0.4830824948 	0.0884459915 	-0.03765263004 	-4.673124403e-07 	0.03659882952 	5.938944567e-07 	6.976754118e-05
0.4834877901 	0.08827303889 	-0.03757959457 	-4.584764034e-07 	0.03652671551 	5.904401111e-07 	6.963007185e-05
0.4839007033 	0.08809268109 	-0.03750338153 	-4.493856608e-07 	0.03645142832 	5.871322768e-07 	6.948655353e-05
0.4843213776 	0.08790513863 	-0.03742408035 	-4.40051639e-07 	0.03637308482 	5.839416113e-07 	6.933720904e-05
0.484749959 	0.08771060542 	-0.03734176934 	-4.30485026e-07 	0.03629178619 	5.808402638e-07 	6.918223126e-05
0.485186596 	0.0875092507 	-0.03725651659 	-4.206957107e-07 	0.03620762029 	5.778013215e-07 	6.902178767e-05
0.48563144 	0.08730122192 	-0.03716838104 	-4.10693098e-07 	0.03612066267 	5.747991826e-07 	6.885602227e-05
0.4860846455 	0.08708664684 	-0.03707741345 	-4.004862146e-07 	0.03603097798 	5.718097151e-07 	6.868505832e-05
0.4865463694 	0.08686563547 	-0.03698365716 	-3.90083871e-07 	0.03593862107 	5.688104311e-07 	6.850900038e-05
0.4870167719 	0.08663828177 	-0.03688714882 	-3.794947811e-07 	0.03584363801 	5.657805834e-07 	6.832793628e-05
0.4874960162 	0.08640466515 	-0.03678791898 	-3.687276843e-07 	0.03574606697 	5.62701224e-07 	6.814193876e-05
0.4879842685 	0.08616485175 	-0.03668599266 	-3.577914553e-07 	0.03564593903 	5.595552276e-07 	6.795106708e-05
0.488481698 	0.08591889559 	-0.03658138979 	-3.466952208e-07 	0.03554327894 	5.563272988e-07 	6.77553684e-05
0.4889884774 	0.08566683962 	-0.03647412566 	-3.354484505e-07 	0.03543810576 	5.530039509e-07 	6.75548791e-05
0.4895047822 	0.08540871657 	-0.03636421128 	-3.240611248e-07 	0.03533043357 	5.495735075e-07 	6.734962597e-05
0.4900307917 	0.08514455001 	-0.03625165373 	-3.125437268e-07 	0.03522027175 	5.460256557e-07 	6.713962692e-05
0.4905666881 	0.08487435496 	-0.03613645631 	-3.009076841e-07 	0.03510762529 	5.423511101e-07 	6.692489146e-05
0.4911126574 	0.08459814043 	-0.0360186195 	-2.891648315e-07 	0.03499249424 	5.385389391e-07 	6.670541969e-05
0.4916688889 	0.0843159043 	-0.03589813825 	-2.773283254e-07 	0.03487487594 	5.34582906e-07 	6.648120651e-05
0.4922355755 	0.08402759437 	-0.03577499618 	-2.654162925e-07 	0.03475477048 	5.304904956e-07 	6.625225213e-05
0.4928132114 	0.08373306614 	-0.03564912253 	-2.533631311e-07 	0.03463209232 	5.261926146e-07 	6.601839346e-05
0.4934025382 	0.08343221961 	-0.03552046391 	-2.411420436e-07 	0.03450679435 	5.216193869e-07 	6.577954071e-05
0.4940029419 	0.08312515909 	-0.03538906855 	-2.288788049e-07 	0.03437894373 	5.168732395e-07 	6.553582188e-05
0.4946146306 	0.08281196773 	-0.0352549691 	-2.166031337e-07 	0.03424856761 	5.119741516e-07 	6.528728877e-05
0.4952378166 	0.08249260609 	-0.03511814579 	-2.043426674e-07 	0.03411565709 	5.069148399e-07 	6.503392438e-05
0.4958727159 	0.08216703527 	-0.03497857801 	-1.921212541e-07 	0.03398019827 	5.016900248e-07 	6.477570221e-05
0.4965195487 	0.0818352098 	-0.03483624371 	-1.799599651e-07 	0.03384218084 	4.962828244e-07 	6.451260264e-05
0.4971785393 	0.08149708138 	-0.03469111793 	-1.678958219e-07 	0.03370159075 	4.907220189e-07 	6.424459885e-05
0.4978499162 	0.08115260066 	-0.03454317582 	-1.559353124e-07 	0.03355841423 	4.8503908e-07 	6.39716646e-05
0.4985339123 	0.08080171788 	-0.03439239522 	-1.440238627e-07 	0.03341264202 	4.792081263e-07 	6.369378226e-05
0.4992307647 	0.08044437659 	-0.03423874729 	-1.321555733e-07 	0.03326426019 	4.732591849e-07 	6.341092525e-05
0.4999407151 	0.08008051624 	-0.03408220385 	-1.2035347e-07 	0.03311326105 	4.67224647e-07 	6.312307892e-05
0.5006640096 	0.07971007104 	-0.03392272625 	-1.086261845e-07 	0.03295962384 	4.610911741e-07 	6.28302037e-05
0.5014008992 	0.07933296222 	-0.03376029359 	-9.698829535e-08 	0.03280337853 	4.548550785e-07 	6.25323567e-05
0.5021516393 	0.07894915948 	-0.033594855 	-8.544625988e-08 	0.03264443612 	4.485130845e-07 	6.22293683e-05
0.5029164903 	0.07855834083 	-0.03342634766 	-7.401220096e-08 	0.03248303747 	4.420907615e-07 	6.192169761e-05
0.503695936 	0.07816098941 	-0.03325488897 	-6.264288617e-08 	0.03231859398 	4.355523524e-07 	6.160822261e-05
0.5044912129 	0.07775487377 	-0.03307929523 	-5.129021336e-08 	0.03215160551 	4.287869939e-07 	6.128989617e-05
0.5053014374 	0.07729451961 	-0.03288074735 	-3.898768228e-08 	0.03195848516 	4.216323514e-07 	6.092175511e-05
0.5065452568 	0.07671946239 	-0.03263238955 	-2.402616541e-08 	0.03171972113 	4.112308072e-07 	6.046660451e-05
0.5078029565 	0.07607959962 	-0.03235517614 	-8.586670799e-09 	0.03145893526 	4.004538809e-07 	5.996947417e-05
0.5090746915 	0.07543654698 	-0.03207669727 	6.156532022e-09 	0.03119587699 	3.896191705e-07 	5.946801198e-05
0.5103606185 	0.07478702715 	-0.03179522744 	2.028035774e-08 	0.03093151005 	3.787458696e-07 	5.896405512e-05
0.5116608957 	0.07413222324 	-0.03151117659 	3.377195762e-08 	0.0306651028 	3.678903068e-07 	5.845620886e-05
0.5129756833 	0.07347175728 	-0.03122451711 	4.661864459e-08 	0.03039710107 	3.571169895e-07 	5.794532308e-05
0.5143051433 	0.0728054935 	-0.03093513103 	5.884626154e-08 	0.03012725543 	3.464277801e-07 	5.743092229e-05
0.5156513952 	0.0721331486 	-0.03064290922 	7.052738847e-08 	0.029855504 	3.356135584e-07 	5.691288853e-05
0.5170128819 	0.07145491371 	-0.03034793537 	8.148391098e-08 	0.02958196748 	3.24794563e-07 	5.639145191e-05
0.5183895608 	0.07077106374 	-0.03005033472 	9.150472584e-08 	0.02930677521 	3.141133303e-07 	5.586685895e-05
0.5197816015 	0.07008162348 	-0.02975011803 	1.005822948e-07 	0.02902995973 	3.035186978e-07 	5.533917171e-05
0.5211891754 	0.06938658936 	-0.02944728551 	1.087917858e-07 	0.02875154887 	2.929745301e-07 	5.480844323e-05
0.5226124558 	0.06868594963 	-0.02914183097 	1.161641278e-07 	0.02847157651 	2.825436843e-07 	5.42747381e-05
0.5240516179 	0.0679796349 	-0.02883373688 	1.227400943e-07 	0.0281900973 	2.722616588e-07 	5.373816048e-05
0.5255072092 	0.06726738508 	-0.02852287894 	1.285940023e-07 	0.0279070311 	2.620834934e-07 	5.319855764e-05
0.5269808209 	0.06654901443 	-0.02820916778 	1.337762636e-07 	0.02762235671 	2.519525247e-07 	5.265588912e-05
0.5284708748 	0.06582475182 	-0.0278927134 	1.382560829e-07 	0.0273362814 	2.420027367e-07 	5.211055007e-05
0.5299775543 	0.06509479664 	-0.02757359531 	1.420365212e-07 	0.02704895414 	2.32249391e-07 	5.156282446e-05
0.5315010449 	0.06435913562 	-0.02725180721 	1.451362998e-07 	0.02676046615 	2.226963044e-07 	5.101288616e-05
0.5330415342 	0.06361775171 	-0.02692733179 	1.475832405e-07 	0.02647090479 	2.133341705e-07 	5.046090174e-05
0.5345992119 	0.06287059255 	-0.02660015545 	1.493971865e-07 	0.0261804035 	2.041692178e-07 	4.990712553e-05
0.5361744585 	0.06211740525 	-0.02627015124 	1.506339734e-07 	0.02588896056 	1.95149822e-07 	4.935155428e-05
0.5377691979 	0.06135797508 	-0.02593721092 	1.513258279e-07 	0.02559661498 	1.86202631e-07 	4.879426236e-05
0.5393817296 	0.06059252662 	-0.02560143771 	1.514719041e-07 	0.02530364724 	1.774304067e-07 	4.823578443e-05
0.5410122523 	0.05982127767 	-0.02526291337 	1.510766765e-07 	0.02501029147 	1.688355132e-07 	4.76765668e-05
0.5426609666 	0.0590442283 	-0.02492162716 	1.501614353e-07 	0.02471671805 	1.604125851e-07 	4.711693426e-05
0.5443280756 	0.05826136987 	-0.02457756861 	1.487492997e-07 	0.02442312746 	1.521569225e-07 	4.655726899e-05
0.5460137845 	0.05747257671 	-0.02423067008 	1.468747366e-07 	0.02412967406 	1.440496882e-07 	4.599786526e-05
0.5477194288 	0.05667763059 	-0.02388081194 	1.445661392e-07 	0.02383646736 	1.360354101e-07 	4.543893179e-05
0.5494450171 	0.05587656858 	-0.02352799813 	1.418446158e-07 	0.02354376618 	1.281367043e-07 	4.488096199e-05
0.5511898565 	0.05506964647 	-0.02317232432 	1.387238562e-07 	0.02325191443 	1.2039228e-07 	4.432461144e-05
0.5529541618 	0.05425700633 	-0.02281382844 	1.352169404e-07 	0.02296120517 	1.128031589e-07 	4.37704388e-05
0.5547381503 	0.05343868707 	-0.02245250779 	1.313430437e-07 	0.0226719274 	1.053703256e-07 	4.321899497e-05
0.5565420416 	0.05261463559 	-0.02208831219 	1.271285277e-07 	0.02238433855 	9.808554541e-08 	4.267077069e-05
0.5583670057 	0.05178470542 	-0.02172113819 	1.225887401e-07 	0.02209865264 	9.091694553e-08 	4.212617394e-05
0.5602133451 	0.05094896733 	-0.02135098422 	1.177438819e-07 	0.02181520205 	8.388185761e-08 	4.158583834e-05
0.5620802817 	0.05010773634 	-0.02097795301 	1.126151086e-07 	0.02153440967 	7.70200293e-08 	4.105057001e-05
0.5639680453 	0.04926124361 	-0.02060209636 	1.072123994e-07 	0.02125664718 	7.033855584e-08 	4.052107751e-05
0.5658768684 	0.0484096146 	-0.0202234279 	1.015490662e-07 	0.02098229119 	6.384799414e-08 	3.999807874e-05
0.567806986 	0.04755284339 	-0.01984188119 	9.564664347e-08 	0.0207116385 	5.754666684e-08 	3.948213948e-05
0.5697601668 	0.04669090706 	-0.01945737402 	8.949660248e-08 	0.02044498405 	5.141772036e-08 	3.897382198e-05
0.571735477 	0.04582413711 	-0.01906998825 	8.313645713e-08 	0.02018277271 	4.551161128e-08 	3.84739743e-05
0.5737328224 	0.04495297127 	-0.01867983008 	7.657724052e-08 	0.01992543288 	3.984982382e-08 	3.798341305e-05
0.5757524488 	0.04407770803 	-0.01828694321 	6.982730376e-08 	0.01967335814 	3.444926253e-08 	3.750288854e-05
0.5777946049 	0.04319855222 	-0.01789131141 	6.289894804e-08 	0.01942688544 	2.932211667e-08 	3.703304307e-05
0.5798604356 	0.04231565812 	-0.01749287756 	5.578593396e-08 	0.01918630875 	2.447241332e-08 	3.657443704e-05
0.581950188 	0.04142940349 	-0.01709167924 	4.850905235e-08 	0.01895198954 	1.993056954e-08 	3.612775949e-05
0.5840632515 	0.04054039727 	-0.01668783778 	4.109456706e-08 	0.01872430811 	1.573002739e-08 	3.569373541e-05
0.5861998861 	0.03964919666 	-0.01628143688 	3.354891787e-08 	0.0185035976 	1.189075443e-08 	3.527299984e-05
0.5883603551 	0.0387562385 	-0.01587248263 	2.588112208e-08 	0.01829011387 	8.430886068e-09 	3.486604051e-05
0.5905457595 	0.03786193331 	-0.01546094155 	1.808201652e-08 	0.01808405646 	5.36380372e-09 	3.447323782e-05
0.5927563685 	0.03696691488 	-0.01504686701 	1.017628312e-08 	0.01788565752 	2.718162432e-09 	3.40950343e-05
0.5949916363 	0.0360720491 	-0.0146303876 	2.194588887e-09 	0.01769512876 	5.206165272e-10 	3.373183352e-05
0.5956145471 	0.03582569864 	-0.01451496919 	5.710223959e-06 	0.01764482916 	-3.004445139e-06 	3.363594851e-05
0.597251833 	0.03517816987 	-0.0142115877 	5.352148205e-09 	0.01751262097 	1.278267981e-09 	3.338392295e-05
0.5995372403 	0.034286007 	-0.01379047813 	1.279087456e-08 	0.01733817333 	2.653074509e-09 	3.305137726e-05
0.6018493437 	0.03339632633 	-0.01336705117 	2.032468917e-08 	0.01717177207 	3.568351489e-09 	3.273417021e-05
0.6041875845 	0.03251020077 	-0.01294141401 	2.790423559e-08 	0.01701341517 	4.000865128e-09 	3.243229795e-05
0.6065519077 	0.03162884731 	-0.01251370073 	3.550618527e-08 	0.01686303583 	3.937949955e-09 	3.214563314e-05
0.6089426045 	0.03075341235 	-0.01208397724 	4.31162015e-08 	0.01672049535 	3.371148044e-09 	3.187391136e-05
0.6113603927 	0.02988501059 	-0.01165224591 	5.073080248e-08 	0.0165855801 	2.292620062e-09 	3.161672539e-05
0.6138061608 	0.02902491319 	-0.01121854857 	5.83278833e-08 	0.01645807293 	6.969231135e-10 	3.137366128e-05
0.6162792104 	0.02817465786 	-0.0107830157 	6.585676462e-08 	0.01633774782 	-1.414443642e-09 	3.114428818e-05
0.6187798463 	0.02733581402 	-0.01034575379 	7.329708904e-08 	0.01622434188 	-4.035244359e-09 	3.092810495e-05
0.6213084247 	0.02650985406 	-0.009906767798 	8.063455523e-08 	0.0161175267 	-7.159323582e-09 	3.072448553e-05
0.6238664781 	0.02569833472 	-0.009466062028 	8.786309779e-08 	0.01601696761 	-1.07790742e-08 	3.053279195e-05
0.6264530657 	0.02490310041 	-0.009023754884 	9.491366491e-08 	0.01592234778 	-1.487094268e-08 	3.035242027e-05
0.6290685061 	0.02412605313 	-0.008579954959 	1.01761931e-07 	0.01583332432 	-1.941438795e-08 	3.01827168e-05
0.6317131215 	0.02336898634 	-0.008134666554 	1.083908762e-07 	0.01574952499 	-2.438911524e-08 	3.002297199e-05
0.6343884117 	0.02263374722 	-0.007687883786 	1.147920567e-07 	0.01567059775 	-2.977590979e-08 	2.987251473e-05
0.6370935724 	0.02192240197 	-0.007239701816 	1.208951987e-07 	0.01559624001 	-3.55323039e-08 	2.973076821e-05
0.6398289089 	0.02123704518 	-0.006790202404 	1.266761696e-07 	0.01552615283 	-4.162741737e-08 	2.959716257e-05
0.642594864 	0.02057966718 	-0.006339376644 	1.321221291e-07 	0.01546005424 	-4.803104138e-08 	2.947116028e-05
0.6453926582 	0.01995228882 	-0.005887213636 	1.372124793e-07 	0.01539770668 	-5.47094388e-08 	2.935230851e-05
0.6482216616 	0.01935705391 	-0.005433783204 	1.418883515e-07 	0.01533893143 	-6.160744633e-08 	2.924026654e-05
0.6510822229 	0.01879606938 	-0.0049791247 	1.46132974e-07 	0.01528356238 	-6.868765747e-08 	2.913471774e-05
0.6539750699 	0.01827133953 	-0.004523209901 	1.499420706e-07 	0.0152314762 	-7.591364666e-08 	2.9035427e-05
0.6569007941 	0.01778487362 	-0.004066033884 	1.532768103e-07 	0.01518259912 	-8.323041806e-08 	2.894225371e-05
0.6598591553 	0.01733868473 	-0.003607635176 	1.561046049e-07 	0.01513689509 	-9.058210258e-08 	2.885512912e-05
0.6628505183 	0.01693467876 	-0.003148002617 	1.584209021e-07 	0.01509434286 	-9.792672309e-08 	2.877401275e-05
0.6658759722 	0.01657465634 	-0.002687087312 	1.602240216e-07 	0.01505495941 	-1.052203115e-07 	2.869893694e-05
0.6689353345 	0.01626037534 	-0.002224894291 	1.614706774e-07 	0.01501879936 	-1.12388842e-07 	2.863000584e-05
0.6720288258 	0.01599348877 	-0.001761420272 	1.621588986e-07 	0.01498591117 	-1.193861582e-07 	2.85673118e-05
0.6751571363 	0.01577549949 	-0.001296611113 	1.623002281e-07 	0.01495636381 	-1.261688117e-07 	2.851098632e-05
0.6783208177 	0.01560779193 	-0.0008304250966 	1.618710263e-07 	0.01493024445 	-1.326664907e-07 	2.846119557e-05
0.6815197924 	0.01549162531 	-0.0003628475221 	1.608672217e-07 	0.01490762476 	-1.388190098e-07 	2.841807616e-05
0.6847545243 	0.01542809036 	0.0001061684662 	1.593008173e-07 	0.01488858792 	-1.445865439e-07 	2.838178664e-05
0.6880259633 	0.0154181182 	0.0005766806549 	1.571851496e-07 	0.01487320199 	-1.49911253e-07 	2.835245678e-05
0.6913338986 	0.01546248362 	0.001048742867 	1.545296292e-07 	0.01486150809 	-1.547205926e-07 	2.833016496e-05
0.6946787382 	0.01556177878 	0.001522446764 	1.513354938e-07 	0.01485356836 	-1.589781237e-07 	2.831502963e-05
0.6980614523 	0.0157164267 	0.001997867482 	1.476210482e-07 	0.01484941761 	-1.626312818e-07 	2.830711715e-05
0.7014819514 	0.01592666345 	0.002475045916 	1.433997863e-07 	0.01484907231 	-1.656032956e-07 	2.830645891e-05
0.7049406118 	0.01619254467 	0.002954058865 	1.387066246e-07 	0.01485254325 	-1.678625206e-07 	2.831307548e-05
0.7084383096 	0.01651395893 	0.003435009603 	1.335745152e-07 	0.01485984177 	-1.693615163e-07 	2.832698849e-05
0.7119751059 	0.01689059882 	0.00391797351 	1.280130294e-07 	0.01487097892 	-1.700272118e-07 	2.8348219e-05
0.7155513621 	0.01732199427 	0.004403039234 	1.220703657e-07 	0.01488595347 	-1.698337321e-07 	2.837676464e-05
0.7191679237 	0.01780752133 	0.004890322237 	1.157848605e-07 	0.01490479721 	-1.687367342e-07 	2.841268606e-05
0.7228248847 	0.01834637288 	0.005379911677 	1.091778763e-07 	0.0149275528 	-1.666711724e-07 	2.845606454e-05
0.726522657 	0.0189376038 	0.005871910762 	1.023060965e-07 	0.0149542812 	-1.63622821e-07 	2.85070163e-05
0.7302620662 	0.01958014037 	0.006366444798 	9.520813992e-08 	0.01498510409 	-1.595475961e-07 	2.856577328e-05
0.7340431982 	0.02027079919 	0.006862287854 	8.792539252e-08 	0.01502008635 	-1.54395106e-07 	2.86324592e-05
0.7378244042 	0.02100150279 	0.007355380681 	8.059428044e-08 	0.01505906177 	-1.482526155e-07 	2.870675718e-05
0.7415641218 	0.02176298383 	0.007841768375 	7.332419621e-08 	0.0151017725 	-1.412015945e-07 	2.87881757e-05
0.7452625656 	0.02254967481 	0.008320395868 	6.616426947e-08 	0.01514813504 	-1.332905316e-07 	2.887655559e-05
0.7489202967 	0.02335813321 	0.008791520279 	5.91629096e-08 	0.01519822344 	-1.245988785e-07 	2.8972038e-05
0.7525378085 	0.02418516974 	0.009255382748 	5.233854199e-08 	0.01525215554 	-1.151589818e-07 	2.907484757e-05
0.7561153968 	0.02502783259 	0.009712195859 	4.57236123e-08 	0.01531005841 	-1.050460909e-07 	2.918522655e-05
0.7596536012 	0.02588342262 	0.01016217093 	3.9349564e-08 	0.01537208983 	-9.434262269e-08 	2.930347567e-05
0.7631528582 	0.02674945837 	0.01060550155 	3.322425438e-08 	0.01543842624 	-8.308779048e-08 	2.942993129e-05
0.7666134977 	0.02762366687 	0.01104235946 	2.736916377e-08 	0.01550923578 	-7.136309658e-08 	2.956491396e-05
0.7700360208 	0.02850399162 	0.01147291698 	2.180345138e-08 	0.01558469848 	-5.925169759e-08 	2.970876684e-05
0.7734208538 	0.02938855681 	0.01189733155 	1.652752807e-08 	0.01566499504 	-4.679549593e-08 	2.986183441e-05
0.7767683331 	0.03027565767 	0.0123157422 	1.155297977e-08 	0.01575028422 	-3.407244173e-08 	3.002441928e-05
0.7800789143 	0.03116376845 	0.01272828974 	6.890400395e-09 	0.01584072019 	-2.116320296e-08 	3.019681538e-05
0.7833530369 	0.03205151102 	0.01313510472 	2.535299334e-09 	0.01593644654 	-8.108425007e-09 	3.037929641e-05
0.7853498442 	0.03259796906 	0.013382516 	5.78033705e-06 	0.01599881198 	5.926743009e-07 	3.049818227e-05
0.7865910269 	0.03293764555 	0.01353630159 	1.522766538e-09 	0.01603757139 	-5.298652886e-09 	3.057206848e-05
0.7897932947 	0.03382107403 	0.01393199607 	5.275667151e-09 	0.01614418865 	-1.914964573e-08 	3.077531062e-05
0.7929603021 	0.03470080608 	0.01432229849 	8.703234581e-09 	0.01625639014 	-3.296117709e-08 	3.098919783e-05
0.796092361 	0.03557595849 	0.01470730594 	1.181065922e-08 	0.01637422917 	-4.66840728e-08 	3.121383179e-05
0.7991898574 	0.03644575841 	0.01508711371 	1.459957107e-08 	0.01649773308 	-6.025411651e-08 	3.144926456e-05
0.8022532251 	0.03730953263 	0.01546181803 	1.707693962e-08 	0.01662691249 	-7.362548064e-08 	3.169551643e-05
0.8052828028 	0.03816668086 	0.01583150533 	1.925421507e-08 	0.0167617553 	-8.67733195e-08 	3.195256429e-05
0.8082789493 	0.03901668103 	0.01619625565 	2.113663242e-08 	0.01690221985 	-9.964866721e-08 	3.222032875e-05
0.8112420487 	0.03985909164 	0.01655615331 	2.273157104e-08 	0.01704824843 	-1.122078967e-07 	3.249869982e-05
0.8141724845 	0.04069352899 	0.0169112771 	2.405208157e-08 	0.01719976597 	-1.244372525e-07 	3.278753436e-05
0.8170705834 	0.04151966165 	0.01726169908 	2.510746402e-08 	0.01735667427 	-1.363093031e-07 	3.308664519e-05
0.8199367024 	0.04233721678 	0.01760749156 	2.590621505e-08 	0.01751885627 	-1.477917757e-07 	3.339580917e-05
0.8227712189 	0.04314597201 	0.01794872781 	2.64592759e-08 	0.01768618306 	-1.588641284e-07 	3.371478054e-05
0.8255744682 	0.04394574007 	0.01828547587 	2.677985462e-08 	0.01785851197 	-1.695245592e-07 	3.404328734e-05
0.8283467843 	0.04473637079 	0.01861779978 	2.687725107e-08 	0.018035683 	-1.797537274e-07 	3.438102456e-05
0.8310885089 	0.04551775506 	0.01894576596 	2.676168906e-08 	0.01821752574 	-1.895342172e-07 	3.472766737e-05
0.8338000025 	0.04628981329 	0.01926943983 	2.644520181e-08 	0.01840386277 	-1.988630574e-07 	3.508287752e-05
0.8364815777 	0.0470524872 	0.01958888248 	2.593965594e-08 	0.01859450737 	-2.077437477e-07 	3.544629913e-05
0.8391335626 	0.04780574365 	0.01990415307 	2.525460323e-08 	0.01878926276 	-2.161676854e-07 	3.581755702e-05
0.841756284 	0.04854957619 	0.0202153127 	2.440045365e-08 	0.01898792735 	-2.241288284e-07 	3.619626694e-05
0.8443500818 	0.04928399564 	0.02052242139 	2.338864436e-08 	0.01919029729 	-2.316338754e-07 	3.65820403e-05
0.8469152583 	0.05000902469 	0.02082553551 	2.222971075e-08 	0.01939616417 	-2.386917573e-07 	3.69744798e-05
0.8494521292 	0.05072470213 	0.02112471061 	2.09328522e-08 	0.01960531538 	-2.453025052e-07 	3.737318012e-05
0.8519610068 	0.05143108271 	0.02142000297 	1.950764957e-08 	0.01981753716 	-2.51468076e-07 	3.777773383e-05
0.8544422104 	0.05212823163 	0.02171146857 	1.796420268e-08 	0.02003261721 	-2.571985258e-07 	3.818773618e-05
0.8568960364 	0.05281621965 	0.02199916041 	1.631183241e-08 	0.02025034319 	-2.625087036e-07 	3.860278241e-05
0.8593227856 	0.05349512644 	0.02228313065 	1.45587805e-08 	0.02047050242 	-2.674045353e-07 	3.902246709e-05
0.8617227567 	0.05416504077 	0.02256343151 	1.271339194e-08 	0.02069288362 	-2.718930764e-07 	3.944638747e-05
0.8640962496 	0.05482605762 	0.02284011532 	1.078427155e-08 	0.02091727923 	-2.759846213e-07 	3.987414787e-05
0.8664435555 	0.05547827407 	0.02311323258 	8.779549965e-09 	0.02114348541 	-2.796976392e-07 	4.030535972e-05
0.8687649599 	0.05612179019 	0.02338283194 	6.706191403e-09 	0.02137130033 	-2.830425875e-07 	4.073963828e-05
0.8710607488 	0.05675671144 	0.02364896257 	4.571456516e-09 	0.02160052569 	-2.860293325e-07 	4.117660552e-05
0.8733312048 	0.05738314572 	0.02391167287 	2.382340606e-09 	0.02183096777 	-2.886685012e-07 	4.161589217e-05
0.8755766123 	0.05800120258 	0.02417101113 	1.459269486e-10 	0.02206243865 	-2.909764132e-07 	4.205714e-05
0.8777972426 	0.05861099019 	0.02442702325 	-2.131846514e-09 	0.02229475481 	-2.929685744e-07 	4.249999917e-05
0.8799933693 	0.05921261893 	0.02467975516 	-4.444908444e-09 	0.02252773734 	-2.946560382e-07 	4.294412862e-05
0.8821652628 	0.05980619979 	0.02492925206 	-6.787476712e-09 	0.02276121248 	-2.960501567e-07 	4.338919713e-05
0.8843131913 	0.06039184435 	0.02517555907 	-9.153570249e-09 	0.02299501243 	-2.971627596e-07 	4.383488482e-05
0.8864374205 	0.06096966272 	0.0254187205 	-1.153766881e-08 	0.02322897605 	-2.980104845e-07 	4.428088452e-05
0.8885382098 	0.06153976281 	0.02565877876 	-1.393508963e-08 	0.02346294728 	-2.986063632e-07 	4.472689871e-05
0.8906158179 	0.06210225338 	0.02589577674 	-1.634054549e-08 	0.02369677583 	-2.989613113e-07 	4.51726409e-05
0.8926705004 	0.06265724133 	0.02612975606 	-1.874933175e-08 	0.02393031727 	-2.990862279e-07 	4.56178358e-05
0.8947025109 	0.06320483309 	0.02636075837 	-2.115639293e-08 	0.02416343339 	-2.989920204e-07 	4.606221992e-05
0.8967121004 	0.0637451327 	0.02658882456 	-2.355718432e-08 	0.02439599288 	-2.986927924e-07 	4.650554294e-05
0.8986995148 	0.06427824132 	0.02681399389 	-2.594779858e-08 	0.02462786995 	-2.981999145e-07 	4.694756508e-05
0.900664999 	0.06480425968 	0.0270363058 	-2.832377208e-08 	0.02485894468 	-2.97522803e-07 	4.738805776e-05
0.9026087948 	0.06532328621 	0.02725579883 	-3.068097125e-08 	0.02508910334 	-2.966706027e-07 	4.782680412e-05
0.9045311417 	0.06583541749 	0.02747251087 	-3.301533493e-08 	0.02531823799 	-2.956520962e-07 	4.826359845e-05
0.9064322771 	0.06634074825 	0.02768647959 	-3.532278056e-08 	0.0255462472 	-2.944772358e-07 	4.869824738e-05
0.9083124343 	0.06683936981 	0.02789774127 	-3.760000097e-08 	0.02577303553 	-2.931559316e-07 	4.913056896e-05
0.9101718447 	0.06733137161 	0.02810633154 	-3.984353381e-08 	0.02599851282 	-2.91695267e-07 	4.956039135e-05
0.9120107372 	0.06781684155 	0.02831228584 	-4.204964927e-08 	0.02622259483 	-2.901018915e-07 	4.998755394e-05
0.9138293381 	0.0682958644 	0.02851563837 	-4.421523433e-08 	0.02644520283 	-2.883819876e-07 	5.041190666e-05
0.9156278716 	0.06876852337 	0.02871642309 	-4.633686031e-08 	0.02666626357 	-2.865413538e-07 	5.083330986e-05
0.9174065593 	0.06923489869 	0.02891467316 	-4.841167513e-08 	0.0268857097 	-2.845869889e-07 	5.125163518e-05
0.9191656197 	0.06969506748 	0.02911042042 	-5.043727271e-08 	0.02710347885 	-2.825241158e-07 	5.166676372e-05
0.9209052695 	0.07014910522 	0.02930369637 	-5.241091448e-08 	0.02731951356 	-2.80356692e-07 	5.207858592e-05
0.9226257228 	0.07059708476 	0.02949453171 	-5.43300751e-08 	0.02753376155 	-2.780882659e-07 	5.248700213e-05
0.9243271915 	0.07103907608 	0.02968295607 	-5.619265269e-08 	0.02774617518 	-2.757219278e-07 	5.289192155e-05
0.926009885 	0.07147514715 	0.02986899851 	-5.799643318e-08 	0.02795671147 	-2.732603994e-07 	5.329326222e-05
0.9276740106 	0.07190536295 	0.03005268721 	-5.973971949e-08 	0.02816533224 	-2.707071451e-07 	5.36909514e-05
0.9293197732 	0.0723297853 	0.03023404898 	-6.142127171e-08 	0.02837200349 	-2.680644653e-07 	5.408492425e-05
0.9309473751 	0.07274847398 	0.03041311001 	-6.303964679e-08 	0.02857669508 	-2.653337753e-07 	5.44751233e-05
0.9325570169 	0.07316148594 	0.03058989546 	-6.459363837e-08 	0.0287793809 	-2.625162234e-07 	5.486149882e-05
0.9341488968 	0.07356887524 	0.03076442938 	-6.608232346e-08 	0.02898003855 	-2.596127463e-07 	5.524400806e-05