0.4642857292 	0.07717786823 	-0.002263439611 	-2.469670742e-06
0.4642857292 	0.07717786823 	-0.002263439611 	-2.469670742e-06
0.4644580585 	0.2145455527 	-0.006304910585 	-6.902127016e-06
0.4646303886 	0.4279631915 	-0.01259898165 	-1.375198528e-05
0.4648027194 	0.6365335113 	-0.01867111755 	-2.040174535e-05
0.464975051 	0.8321889815 	-0.02423296924 	-2.65915131e-05
0.4651473832 	1.005758884 	-0.02920243329 	-3.20201189e-05
0.4653197161 	1.152657532 	-0.03353421461 	-3.654831433e-05
0.4654920495 	1.274233406 	-0.03713502509 	-4.022606377e-05
0.4656643834 	1.374769691 	-0.04005996585 	-4.319339703e-05
0.4658367177 	1.458732574 	-0.04247174513 	-4.55992825e-05
0.4660090525 	1.52978709 	-0.04450303623 	-4.756751757e-05
0.4661813876 	1.590730998 	-0.04624085243 	-4.919241816e-05
0.466353723 	1.643661095 	-0.04774592083 	-5.054457268e-05
0.4665260587 	1.690151552 	-0.04906335573 	-5.167704154e-05
0.4666983945 	1.731396167 	-0.05022761842 	-5.26301787e-05
0.4668707305 	1.768312237 	-0.05126535769 	-5.343510019e-05
0.4670430666 	1.801614345 	-0.05219740484 	-5.411613704e-05
0.4672154027 	1.831866603 	-0.05304023445 	-5.469257132e-05
0.4673877388 	1.859519904 	-0.05380702935 	-5.5179875e-05
0.4675600748 	1.884938801 	-0.05450845606 	-5.559060479e-05
0.4677324107 	1.908421168 	-0.0551532343 	-5.593505743e-05
0.4679047464 	1.930212762 	-0.05574855989 	-5.622175647e-05
0.4680770819 	1.950518172 	-0.05630042506 	-5.645781882e-05
0.4682494171 	1.969509128 	-0.05681385588 	-5.664923398e-05
0.468421752 	1.987330907 	-0.05729311524 	-5.680108049e-05
0.4685940865 	2.004107281 	-0.05774180187 	-5.691769181e-05
0.4687664205 	2.019944426 	-0.05816309353 	-5.70027954e-05
0.4689387541 	2.034934008 	-0.05855952505 	-5.70596036e-05
0.4691110871 	2.049155398 	-0.05893377316 	-5.709092393e-05
0.4692834196 	2.062678975 	-0.05928731746 	-5.70991769e-05
0.4694557514 	2.077303356 	-0.05966705255 	-5.712342882e-05
0.4697235139 	2.094521457 	-0.0601117783 	-5.703098875e-05
0.469996307 	2.112465951 	-0.06057068222 	-5.693133842e-05
0.4702742251 	2.129583746 	-0.06100373235 	-5.679271066e-05
0.4705573642 	2.145950784 	-0.06141421427 	-5.661783174e-05
0.470845822 	2.161635565 	-0.06180334347 	-5.640902737e-05
0.4711396981 	2.176697745 	-0.06217316456 	-5.616836899e-05
0.471439094 	2.191189973 	-0.06252506062 	-5.589766894e-05
0.4717441131 	2.205158907 	-0.06286043527 	-5.559854408e-05
0.4720548606 	2.218646038 	-0.06318046668 	-5.527243626e-05
0.4723714436 	2.231688441 	-0.06348622921 	-5.49206433e-05
0.4726939714 	2.244319356 	-0.06377867602 	-5.454434034e-05
0.473022555 	2.2565687 	-0.06405866591 	-5.414459983e-05
0.4733573078 	2.26846349 	-0.06432697164 	-5.37224079e-05
0.473698345 	2.280028201 	-0.06458429252 	-5.327867902e-05
0.4740457841 	2.291285077 	-0.0648312604 	-5.281426819e-05
0.4743997447 	2.302254388 	-0.06506845365 	-5.232998268e-05
0.4747603486 	2.312954662 	-0.06529638884 	-5.18265961e-05
0.4751277197 	2.323409982 	-0.06551568108 	-5.130494197e-05
0.4755030077 	2.333647008 	-0.06572700555 	-5.076173535e-05
0.4758860811 	2.343676486 	-0.06593068363 	-5.019716605e-05
0.4762763472 	2.353499368 	-0.06612681032 	-4.961399596e-05
0.4766739408 	2.363123263 	-0.06631562858 	-4.901250034e-05
0.4770789995 	2.372559685 	-0.06649745675 	-4.839299591e-05
0.4774916633 	2.381819304 	-0.06667258492 	-4.77557711e-05
0.4779120749 	2.390912025 	-0.06684128183 	-4.710109147e-05
0.4783403796 	2.399847057 	-0.06700379466 	-4.642920044e-05
0.4787767255 	2.408632966 	-0.06716035171 	-4.574032214e-05
0.4792212634 	2.417277736 	-0.06731116355 	-4.503466306e-05
0.4796741471 	2.425788812 	-0.06745642456 	-4.431241389e-05
0.480135533 	2.434173146 	-0.0675963141 	-4.357375107e-05
0.4806055808 	2.44243723 	-0.06773099762 	-4.281883815e-05
0.4810844527 	2.450587133 	-0.06786062765 	-4.204782714e-05
0.4815723144 	2.458628532 	-0.0679853447 	-4.126085964e-05
0.4820693345 	2.466566737 	-0.06810527803 	-4.045806794e-05
0.4825756847 	2.474406718 	-0.06822054638 	-3.963957596e-05
0.4830915401 	2.482153128 	-0.06833125861 	-3.880550021e-05
0.483617079 	2.48981032 	-0.06843751436 	-3.795595058e-05
0.4841524829 	2.497382369 	-0.0685394045 	-3.709103128e-05
0.4846979369 	2.504873088 	-0.06863701145 	-3.621084142e-05
0.4852536295 	2.512286044 	-0.06873041023 	-3.53154772e-05
0.4858197528 	2.519626671 	-0.06881967981 	-3.440502958e-05
0.4863971602 	2.526905705 	-0.0689049771 	-3.347725343e-05
0.4869872469 	2.534129009 	-0.06898639248 	-3.252826072e-05
0.4875884075 	2.541291115 	-0.06906385565 	-3.156470112e-05
0.4882008498 	2.548389012 	-0.06913733757 	-3.058667449e-05
0.4888247852 	2.555425107 	-0.0692068835 	-2.959429015e-05
0.4894604292 	2.562401645 	-0.06927252148 	-2.8587654e-05
0.4901080013 	2.569320707 	-0.06933427907 	-2.756687465e-05
0.4907677251 	2.576184225 	-0.0693921768 	-2.653206107e-05
0.4914398285 	2.582993988 	-0.06944623108 	-2.548332428e-05
0.4921245435 	2.589751651 	-0.06949645334 	-2.442077727e-05
0.4928221066 	2.59645874 	-0.06954285095 	-2.334453567e-05
0.4935327586 	2.603116663 	-0.06958542613 	-2.225471796e-05
0.494256745 	2.609726715 	-0.06962417965 	-2.115144616e-05
0.4949943156 	2.616290082 	-0.06965910118 	-2.003484583e-05
0.4957457251 	2.622807852 	-0.06969019577 	-1.890504834e-05
0.496511233 	2.62928203 	-0.06971741782 	-1.776218557e-05
0.4972915864 	2.635719709 	-0.06974083115 	-1.660478743e-05
0.4980891876 	2.642125673 	-0.0697603583 	-1.542639311e-05
0.4989017502 	2.64930259 	-0.0697783809 	-1.423375067e-05
0.5001491012 	2.657962878 	-0.06979205544 	-1.242813037e-05
0.5014103017 	2.667189133 	-0.06979907908 	-1.06248219e-05
0.502685506 	2.676186177 	-0.0697974372 	-8.826693632e-06
0.5039748697 	2.684967041 	-0.06978764884 	-7.034327887e-06
0.5052785505 	2.693543953 	-0.06976991059 	-5.248259052e-06
0.5065967078 	2.701927976 	-0.06974453242 	-3.468988755e-06
0.5079295026 	2.710135697 	-0.06971172867 	-1.696988365e-06
0.5092206927 	2.717821487 	-0.06967350709 	3.613702068e-07
0.5092813988 	2.718182834 	-0.06967176473 	-7.730873103e-08
0.5106484713 	2.726069448 	-0.06962586049 	-1.793635702e-06
0.5120307241 	2.73379812 	-0.06957313744 	-3.499082781e-06
0.5134283261 	2.741375364 	-0.06951378934 	-5.193238662e-06
0.5148414483 	2.748807767 	-0.06944795982 	-6.875706027e-06
0.5162702635 	2.756101373 	-0.06937579174 	-8.546103272e-06
0.5177149467 	2.763262708 	-0.06929737702 	-1.020405575e-05
0.5191764905 	2.770302369 	-0.06921277473 	-1.185136136e-05
0.5206581837 	2.777228161 	-0.06912203726 	-1.349463081e-05
0.5221563259 	2.784038218 	-0.06902528122 	-1.512215223e-05
0.5236711006 	2.790731926 	-0.0689226355 	-1.673357097e-05
0.525202693 	2.797312885 	-0.06881418423 	-1.832852578e-05
0.5267512907 	2.803784375 	-0.06869998706 	-1.990666427e-05
0.5283170833 	2.810149794 	-0.0685800716 	-2.146763964e-05
0.5299006786 	2.816416308 	-0.06845440689 	-2.301208374e-05
0.5315060786 	2.822589702 	-0.06832296022 	-2.454759829e-05
0.5331292981 	2.828667201 	-0.06818582075 	-2.606242415e-05
0.5347705361 	2.834646767 	-0.06804308723 	-2.755626758e-05
0.5364299936 	2.840530174 	-0.06789480361 	-2.902880565e-05
0.5381078739 	2.846318991 	-0.06774096931 	-3.047971735e-05
0.5398043827 	2.852016623 	-0.06758154201 	-3.190865147e-05
0.541522211 	2.857627766 	-0.06741643404 	-3.332041917e-05
0.543261121 	2.86315264 	-0.06724564063 	-3.471161229e-05
0.5450193315 	2.868588269 	-0.0670692476 	-3.607720776e-05
0.546797058 	2.873933764 	-0.06688730978 	-3.741696804e-05
0.5485945187 	2.879189666 	-0.06669981757 	-3.873062782e-05
0.550411934 	2.884357818 	-0.06650670577 	-4.001788397e-05
0.5522516129 	2.889441335 	-0.06630785989 	-4.128232403e-05
0.554113947 	2.894440112 	-0.06610324646 	-4.252176803e-05
0.555996951 	2.899351013 	-0.06589294668 	-4.373113601e-05
0.557900856 	2.904172449 	-0.06567701443 	-4.491029798e-05
0.5598258958 	2.908904206 	-0.06545542461 	-4.605908045e-05
0.561772307 	2.913547919 	-0.06522807005 	-4.717722363e-05
0.5637436946 	2.918105422 	-0.06499481829 	-4.826963222e-05
0.565737713 	2.922574355 	-0.06475570364 	-4.93293265e-05
0.5677538642 	2.926951732 	-0.06451081947 	-5.035490572e-05
0.5697923962 	2.931236494 	-0.0642601779 	-5.134634235e-05
0.5718535597 	2.935428907 	-0.0640037009 	-5.23035275e-05
0.5739395723 	2.939530032 	-0.06374126233 	-5.322916489e-05
0.5760506688 	2.943538786 	-0.06347283175 	-5.412062524e-05
0.578185199 	2.947452303 	-0.06319850961 	-5.497447296e-05
0.5803434258 	2.951268833 	-0.06291834762 	-5.579088092e-05
0.5825256149 	2.954988272 	-0.06263228598 	-5.6569902e-05
0.5847338703 	2.958611175 	-0.06234020836 	-5.731384808e-05
0.5869684579 	2.962136451 	-0.06204209841 	-5.802015444e-05
0.5892278534 	2.965561666 	-0.06173807284 	-5.868605145e-05
0.5915123353 	2.968885324 	-0.06142819681 	-5.931191433e-05
0.5938221857 	2.972107558 	-0.06111240366 	-5.98979546e-05
0.5961603287 	2.975228708 	-0.06079059123 	-6.044678985e-05
0.5985251933 	2.978247253 	-0.06046282718 	-6.095383562e-05
0.6009163178 	2.981161423 	-0.0601292418 	-6.141861209e-05
0.6033339976 	2.983970701 	-0.05978986546 	-6.184164776e-05
0.6057794613 	2.986675428 	-0.05944462424 	-6.222430355e-05
0.6082543018 	2.989275395 	-0.05909349308 	-6.256586486e-05
0.6107566274 	2.991769274 	-0.05873661296 	-6.286354139e-05
0.6132867477 	2.994156259 	-0.05837409513 	-6.31181886e-05
0.6158450817 	2.996436777 	-0.05800589502 	-6.333056277e-05
0.6184346228 	2.998611193 	-0.05763194868 	-6.338852496e-05
0.6210529287 	3.000678664 	-0.05725239842 	-6.22379715e-05
0.6237003239 	3.00263862 	-0.05686738214 	-6.111999581e-05
0.6263771365 	3.004491532 	-0.05647687226 	-6.003362424e-05
0.6290862714 	3.006237845 	-0.05608080444 	-5.897716228e-05
0.6318255697 	3.007877108 	-0.05567930474 	-5.795438424e-05
0.6345953098 	3.009409056 	-0.05527249523 	-5.696449816e-05
0.6373960678 	3.010834093 	-0.05486034435 	-5.600614097e-05
0.6402301167 	3.012152497 	-0.05444279714 	-5.507877781e-05
0.6430956648 	3.013363981 	-0.05401995958 	-5.418492207e-05
0.6459930683 	3.014468449 	-0.05359190312 	-5.332341666e-05
0.6489235108 	3.015466099 	-0.05315857099 	-5.24925078e-05
0.6518878645 	3.016356883 	-0.05271993182 	-5.16934422e-05
0.6548851782 	3.017140514 	-0.05227605715 	-5.09267293e-05
0.6579158249 	3.017816852 	-0.05182693746 	-5.019086767e-05
0.6609817596 	3.018385758 	-0.05137247587 	-4.948450525e-05
0.6640821389 	3.018846838 	-0.05091267394 	-4.880962439e-05
0.6672170054 	3.019199666 	-0.05044754235 	-4.816490426e-05
0.6703874269 	3.019443816 	-0.04997699199 	-4.75484337e-05
0.673594155 	3.019578723 	-0.04950093419 	-4.696124254e-05
0.6768365625 	3.019603715 	-0.04901935913 	-4.640290182e-05
0.6801152063 	3.01951805 	-0.04853218802 	-4.58713783e-05
0.6834316982 	3.019320857 	-0.04803928406 	-4.536641748e-05
0.6867851015 	3.019011196 	-0.0475406099 	-4.488841846e-05
0.6901758354 	3.018588 	-0.04703608861 	-4.443524397e-05
0.6936055424 	3.01805002 	-0.04652556945 	-4.400582435e-05
0.6970735343 	3.017395961 	-0.04600898503 	-4.36008473e-05
0.700580145 	3.016624363 	-0.0454862549 	-4.321805735e-05
0.7041267955 	3.01573352 	-0.04495723517 	-4.285613197e-05
0.7077131112 	3.014721676 	-0.04442184207 	-4.251557623e-05
0.7113393773 	3.013586859 	-0.04387999156 	-4.219401057e-05
0.7150069301 	3.0123268 	-0.04333154844 	-4.189015187e-05
0.7187154514 	3.010939162 	-0.04277643279 	-4.160413829e-05
0.7224653199 	3.009421323 	-0.04221456238 	-4.133337128e-05
0.7262578107 	3.007770317 	-0.04164581309 	-4.107695722e-05
0.7300925709 	3.005988015 	-0.04107164297 	-4.083601876e-05
0.7339274599 	3.004088632 	-0.04049689386 	-4.060864883e-05
0.7377205243 	3.002090002 	-0.03992638874 	-4.039477242e-05
0.7414716977 	3.00000093 	-0.0393616267 	-4.019390822e-05
0.7451816807 	2.997824916 	-0.03880258089 	-3.957646565e-05
0.7488510254 	2.995565171 	-0.03824920538 	-3.847221053e-05
0.7524798606 	2.993224712 	-0.03770148366 	-3.737949007e-05
0.7560688559 	2.99080623 	-0.03715938764 	-3.630017551e-05
0.7596184549 	2.988312231 	-0.0366228789 	-3.523407048e-05
0.7631288782 	2.985745058 	-0.03609194069 	-3.418264783e-05
0.7666007261 	2.983106792 	-0.03556654482 	-3.31472926e-05
0.7700344366 	2.980399375 	-0.03504665327 	-3.212763245e-05
0.7734302599 	2.977624634 	-0.03453224604 	-3.112471349e-05
0.7767887125 	2.974784175 	-0.03402329409 	-3.013962929e-05
0.7801102773 	2.971879484 	-0.03351975613 	-2.91719298e-05
0.7833951996 	2.96891198 	-0.03302160706 	-2.822219487e-05
0.7866439137 	2.9658829 	-0.03252881613 	-2.729129567e-05
0.7898569628 	2.962793349 	-0.0320413382 	-2.637891067e-05
0.7930345721 	2.959644415 	-0.03155914103 	-2.548508033e-05
0.7961771359 	2.956437045 	-0.03108219175 	-2.461042524e-05
0.7992851568 	2.953172048 	-0.03061044515 	-2.375500747e-05
0.8023589322 	2.949850214 	-0.03014385923 	-2.291830031e-05
0.805398811 	2.946472256 	-0.02968239704 	-2.210068044e-05
0.8084052021 	2.943038757 	-0.02922601533 	-2.130241817e-05
0.8113785157 	2.939550249 	-0.02877466448 	-2.052290961e-05
0.8143190433 	2.936007236 	-0.02832830145 	-1.976210298e-05
0.8172271484 	2.932410133 	-0.02788688305 	-1.90201849e-05
0.8201032429 	2.928759269 	-0.02745035892 	-1.829704329e-05
0.8229476498 	2.925054955 	-0.02701867895 	-1.759206169e-05
0.8257606958 	2.921297464 	-0.02659179667 	-1.690526833e-05
0.8285427279 	2.917486985 	-0.02616966356 	-1.623669336e-05
0.8312941389 	2.913623655 	-0.02575222604 	-1.558598263e-05
0.8340152199 	2.909707608 	-0.02533943286 	-1.495265032e-05
0.836706302 	2.905738938 	-0.02493123493 	-1.433665422e-05
0.8393677168 	2.901717669 	-0.0245275808 	-1.373792021e-05
0.841999829 	2.897643793 	-0.02412841591 	-1.315602989e-05
0.8446029242 	2.8935173 	-0.02373368774 	-1.259054575e-05
0.8471773226 	2.889338148 	-0.02334334555 	-1.20413507e-05
0.8497233412 	2.885106243 	-0.0229573371 	-1.150830371e-05
0.8522413154 	2.880821465 	-0.02257560845 	-1.099104733e-05
0.8547315346 	2.876483693 	-0.02219810646 	-1.04891067e-05
0.8571943021 	2.872092781 	-0.02182477969 	-1.000231161e-05
0.8596299208 	2.867648546 	-0.02145557671 	-9.530480376e-06
0.8620386999 	2.863150784 	-0.02109044511 	-9.07335299e-06
0.8644209325 	2.858599282 	-0.02072933237 	-8.630431153e-06
0.8667769039 	2.853993813 	-0.02037218735 	-8.201481161e-06
0.8691069039 	2.849334125 	-0.02001896025 	-7.786298716e-06
0.8714112196 	2.844619942 	-0.01966960064 	-7.384669837e-06
0.8736901437 	2.839850971 	-0.01932405799 	-6.996208543e-06
0.8759439454 	2.835026913 	-0.01898228256 	-6.620558472e-06
0.8781729018 	2.830147448 	-0.01864422606 	-6.257504627e-06
0.880377287 	2.825212233 	-0.01830984066 	-5.906826637e-06
0.8825573737 	2.820220902 	-0.01797907869 	-5.568290739e-06
0.8847134322 	2.815173071 	-0.0176518927 	-5.241508414e-06
0.8868457226 	2.810068343 	-0.01732823597 	-4.926199342e-06
0.8889545069 	2.804906291 	-0.01700806321 	-4.622143853e-06
0.8910400442 	2.799686463 	-0.01669132951 	-4.329120007e-06
0.8931025917 	2.794408379 	-0.0163779904 	-4.046899163e-06
0.8951424045 	2.789071529 	-0.01606800177 	-3.775141326e-06
0.8971597301 	2.783675377 	-0.0157613201 	-3.513581569e-06
0.8991548164 	2.778219351 	-0.01545790305 	-3.262005254e-06
0.9011279084 	2.772702836 	-0.01515770884 	-3.020197687e-06
0.9030792486 	2.767125178 	-0.01486069607 	-2.787944436e-06
0.9050090786 	2.761485674 	-0.01456682386 	-2.564980585e-06
0.9069176333 	2.755783578 	-0.01427605175 	-2.3510276e-06
0.9088051471 	2.750018088 	-0.01398833995 	-2.145881293e-06
0.9106718518 	2.744188338 	-0.01370364955 	-1.949339352e-06
0.9125179768 	2.7382934 	-0.01342194186 	-1.761200914e-06
0.914343749 	2.732332274 	-0.01314317876 	-1.581264147e-06
0.9161493933 	2.726303883 	-0.01286732247 	-1.409274081e-06
0.9179351304 	2.720207068 	-0.0125943355 	-1.245016631e-06
0.9197011796 	2.714040576 	-0.01232418108 	-1.088304549e-06
0.921447758 	2.707803056 	-0.01205682292 	-9.389528598e-07
0.9231750801 	2.701493047 	-0.01179222497 	-7.967789286e-07
0.9248833582 	2.695108969 	-0.01153035164 	-6.616013441e-07
0.9265728023 	2.688649119 	-0.01127116767 	-5.332052072e-07
0.9282436194 	2.682111653 	-0.01101463795 	-4.11401038e-07
0.9298960149 	2.675494575 	-0.01076072799 	-2.960204418e-07
0.9315301917 	2.66879573 	-0.01050940362 	-1.868976994e-07
0.9331463504 	2.662012782 	-0.01026063103 	-8.386979022e-08
0.9345222492 	2.656099243 	-0.0100486543 	1.613862752e-06
0.934744687 	2.655143141 	-0.01001438483 	-1.35806029e-08
0.9363253843 	2.648183742 	-0.009770671795 	-1.073680689e-07
0.9378886538 	2.641132023 	-0.00952940745 	-1.954089449e-07
0.9394346874 	2.633984781 	-0.009290559339 	-2.778587305e-07
0.940963675 	2.626738544 	-0.009054095593 	-3.548687807e-07
0.9424758045 	2.619389555 	-0.008819984671 	-4.265876919e-07
0.9439712616 	2.611933741 	-0.008588195457 	-4.931613265e-07
0.9454502299 	2.604366689 	-0.008358697242 	-5.547328698e-07
0.9469128912 	2.596683613 	-0.008131459864 	-6.114490227e-07
0.9483594251 	2.588879323 	-0.007906453629 	-6.634617945e-07
0.9497900093 	2.580948187 	-0.007683649245 	-7.109054589e-07
0.9512048194 	2.572884088 	-0.007463018383 	-7.539110942e-07
0.9526040292 	2.56468038 	-0.007244532646 	-7.926072597e-07
0.9539878108 	2.556329835 	-0.007028166276 	-8.271200592e-07
0.9553563339 	2.547824587 	-0.006813888951 	-8.575731963e-07
0.9567097669 	2.539156058 	-0.006601685574 	-8.840881516e-07
0.9580482759 	2.530314898 	-0.006391505213 	-9.067913568e-07
0.9593720254 	2.521290892 	-0.006183379387 	-9.258026457e-07
0.960681178 	2.512072783 	-0.005977160971 	-9.412353986e-07
0.9619758945 	2.502648607 	-0.005773012353 	-9.532024578e-07
0.963256334 	2.493829341 	-0.005587928078 	-9.648215671e-07
0.9640904201 	2.486539491 	-0.005438978283 	-9.656933319e-07
0.9649091234 	2.480040793 	-0.005309343339 	-9.68167096e-07
0.9657127275 	2.473511335 	-0.005182040666 	-9.693197642e-07
0.9665015107 	2.466950354 	-0.005056936273 	-9.692213477e-07
0.9672757463 	2.460357169 	-0.004934043934 	-9.679401095e-07
0.9680357026 	2.45373099 	-0.004813305871 	-9.655428856e-07
0.9687816429 	2.447070943 	-0.004694697869 	-9.620929614e-07
0.9695138255 	2.440376064 	-0.004578181623 	-9.576503405e-07
0.9702325042 	2.433645282 	-0.004463724597 	-9.522724864e-07
0.9709379278 	2.426877424 	-0.004351292832 	-9.460144331e-07
0.971630341 	2.420071199 	-0.004240853566 	-9.38928876e-07
0.9723099835 	2.413225194 	-0.004132374332 	-9.310662657e-07
0.9729770908 	2.406337866 	-0.004025823224 	-9.224748943e-07
0.9736318941 	2.399407534 	-0.003921168809 	-9.132009795e-07
0.9742746202 	2.392432372 	-0.00381838014 	-9.032887468e-07
0.9749054919 	2.385410402 	-0.003717426752 	-8.92780508e-07
0.9755247278 	2.378339481 	-0.003618278657 	-8.817167382e-07
0.9761325423 	2.371217297 	-0.003520906341 	-8.701361488e-07
0.9767291462 	2.364041358 	-0.003425280766 	-8.580757605e-07
0.9773147462 	2.356808982 	-0.003331373363 	-8.455709687e-07
0.9778895451 	2.349517287 	-0.003239156033 	-8.326556286e-07
0.9784537421 	2.342163177 	-0.003148601155 	-8.193624249e-07
0.9790075328 	2.334743334 	-0.003059681561 	-8.057223703e-07
0.979551109 	2.327254204 	-0.002972370557 	-7.91764955e-07
0.9800846592 	2.319691978 	-0.002886641919 	-7.775183563e-07
0.9806083682 	2.312052582 	-0.002802469885 	-7.630094898e-07
0.9811224175 	2.304331658 	-0.002719829159 	-7.482640629e-07
0.9816269852 	2.296524541 	-0.002638694909 	-7.333066251e-07
0.9821222462 	2.288626245 	-0.002559042765 	-7.181606158e-07
0.9826083721 	2.280631435 	-0.002480848818 	-7.028484109e-07
0.9830855314 	2.272534402 	-0.002404089622 	-6.873913668e-07
0.9835538894 	2.264329037 	-0.002328742186 	-6.718098633e-07
0.9840136086 	2.256008795 	-0.00225478398 	-6.56123344e-07
0.984464848 	2.247566666 	-0.002182192928 	-6.403503562e-07
0.9849077643 	2.23899513 	-0.002110947408 	-6.245085879e-07
0.9853425108 	2.230286114 	-0.002041026252 	-6.086149044e-07
0.9857692383 	2.221430946 	-0.001972408743 	-5.926853832e-07
0.9861880946 	2.212420296 	-0.001905074609 	-5.767353472e-07
0.9865992248 	2.203244112 	-0.00183900403 	-5.607793972e-07
0.9870027716 	2.193891553 	-0.001774177629 	-5.448314426e-07
0.9873988747 	2.184350904 	-0.001710576472 	-5.289047313e-07
0.9877876714 	2.174609487 	-0.001648182067 	-5.130118786e-07
0.9881692965 	2.164653553 	-0.001586976363 	-4.971648943e-07
0.9885438823 	2.154468165 	-0.001526941745 	-4.813752148e-07
0.9889115585 	2.144037057 	-0.00146806104 	-4.656537563e-07
0.9892724526 	2.133342476 	-0.001410317504 	-4.500108724e-07
0.9896266897 	2.122364996 	-0.00135369483 	-4.344564034e-07
0.9899743926 	2.111083307 	-0.001298177137 	-4.189997089e-07
0.9903156818 	2.099473961 	-0.001243749026 	-4.036496896e-07
0.9906506755 	2.087511081 	-0.001190395296 	-3.884148093e-07
0.99097949 	2.075166019 	-0.001138101964 	-3.733031106e-07
0.9913022391 	2.062406948 	-0.00108685276 	-3.58322261e-07
0.9916190347 	2.049198377 	-0.001036640397 	-3.434794714e-07
0.9919299867 	2.035500592 	-0.0009874338664 	-3.28781842e-07
0.9922352028 	2.021268935 	-0.0009392728861 	-3.142353641e-07
0.9925347888 	2.006453023 	-0.0008920126278 	-2.998477491e-07
0.9928288486 	1.990995753 	-0.0008459412738 	-2.856213964e-07
0.993117484 	1.974831584 	-0.0008003225252 	-2.71570149e-07
0.9934007952 	1.957887784 	-0.0007561668029 	-2.576887354e-07
0.9936788803 	1.941630078 	-0.00071716506 	-2.452371869e-07
0.9938578551 	1.927820463 	-0.0006849947621 	-2.350614954e-07
0.9940368302 	1.915048756 	-0.0006571102019 	-2.261793698e-07
0.9942158055 	1.901616262 	-0.0006296047553 	-2.172685168e-07
0.994394781 	1.887455759 	-0.0006019312518 	-2.083362767e-07
0.9945737568 	1.872491398 	-0.0005744271443 	-1.99380639e-07
0.9947527327 	1.856635594 	-0.0005469549239 	-1.904052947e-07
0.9949317089 	1.839786885 	-0.0005195845062 	-1.814115991e-07
0.9951106853 	1.821826998 	-0.0004922960505 	-1.724020743e-07
0.9952896619 	1.80261711 	-0.0004651019102 	-1.633790477e-07
0.9954686388 	1.781993126 	-0.0004380026131 	-1.543451648e-07
0.9956476158 	1.759759565 	-0.0004110012437 	-1.453032691e-07
0.9958265931 	1.735681632 	-0.0003840970856 	-1.362565007e-07
0.9960055706 	1.709474782 	-0.0003572847569 	-1.272083593e-07
0.9961845483 	1.680790842 	-0.0003305496259 	-1.181628193e-07
0.9963635262 	1.6491993 	-0.0003038607099 	-1.091244976e-07
0.9965425044 	1.614161761 	-0.0002771575392 	-1.000989024e-07
0.9967214828 	1.57499662 	-0.0002503219544 	-9.109278865e-08
0.9969004614 	1.53082968 	-0.0002231073257 	-8.211473181e-08
0.9970794402 	1.480524827 	-0.000194985335 	-7.317650939e-08
0.9972584192 	1.422587389 	-0.0001650323417 	-6.429738963e-08
0.9974373985 	1.355034275 	-0.0001329920141 	-5.55140323e-08
0.9976163779 	1.275237767 	-0.0001050140838 	-4.688403359e-08
0.9977953576 	1.179800362 	-0.0001059374158 	-3.839022592e-08
0.9979743375 	1.064697733 	-0.00015729932 	-2.960053479e-08
0.9981533176 	0.9263432615 	-0.0001823795099 	-2.045791587e-08
0.998332298 	0.7641721403 	-7.74925493e-05 	-1.300570505e-08
0.9985112786 	0.5829993017 	5.448727207e-05 	-8.451478304e-09
0.9986902593 	0.3912504238 	6.568663635e-05 	-4.778512766e-09
0.9988692404 	0.1958904345 	1.909249325e-05 	-1.950597331e-09
0.9990482216 	0.08198136262 	1.873258608e-06 	-9.354887161e-10
