0.4709558481 	1.966621578e-05 	-7.403830534e-07 	3.902053412e-13 	1.958225972e-05 	-7.568191466e-12 	3.732922964e-08
0.4709558481 	1.966621578e-05 	-7.403830534e-07 	3.902053411e-13 	1.958225972e-05 	-7.568191466e-12 	3.732922964e-08
0.4711314108 	0.0002267831584 	-3.186493419e-05 	1.668080962e-11 	0.0002183529143 	-8.39592166e-11 	4.162413428e-07
0.4713069734 	0.001385724021 	-0.0003795994637 	1.902271123e-10 	0.001170154301 	-4.373001534e-10 	2.230639325e-06
0.471482536 	0.005192358284 	-0.00190586646 	8.676679983e-10 	0.003484979652 	-1.212510534e-09 	6.643339817e-06
0.4716580986 	0.01334415874 	-0.005434688957 	2.152545415e-09 	0.007056924787 	-2.214607302e-09 	1.345246002e-05
0.4718336613 	0.02504529245 	-0.01051902338 	3.534055643e-09 	0.01112363611 	-3.142910489e-09 	2.120474208e-05
0.4720092239 	0.03727604422 	-0.01577948481 	4.493433959e-09 	0.01506882203 	-3.892747125e-09 	2.872536295e-05
0.4721847865 	0.04780278783 	-0.02026803423 	5.002093736e-09 	0.01862190104 	-4.45335335e-09 	3.549851907e-05
0.4723603491 	0.05612445705 	-0.02379741085 	5.249438337e-09 	0.02167484344 	-4.843476912e-09 	4.13182758e-05
0.4725359118 	0.06254779814 	-0.02651538817 	5.373080792e-09 	0.02422160692 	-5.105023243e-09 	4.617311484e-05
0.4727114744 	0.06751389397 	-0.02861389458 	5.439493382e-09 	0.02631156037 	-5.275709652e-09 	5.015714698e-05
0.472887037 	0.07139590293 	-0.03025176329 	5.478976662e-09 	0.02801564717 	-5.384712842e-09 	5.340561005e-05
0.4730625996 	0.07447174376 	-0.0315474012 	5.504526313e-09 	0.02940658259 	-5.451952586e-09 	5.605711955e-05
0.4732381623 	0.07694148451 	-0.03258622316 	5.521236969e-09 	0.03054793948 	-5.489810567e-09 	5.823286301e-05
0.4734137249 	0.07894909084 	-0.03342963714 	5.530828452e-09 	0.03149116234 	-5.505868086e-09 	6.003090793e-05
0.4735892875 	0.08059921671 	-0.03412216584 	5.533713214e-09 	0.03227654349 	-5.504964168e-09 	6.152806269e-05
0.4737648501 	0.08196895127 	-0.03469651929 	5.529911388e-09 	0.03293533552 	-5.490388033e-09 	6.278390341e-05
0.4739404128 	0.08311588054 	-0.03517708075 	5.519426206e-09 	0.03349178667 	-5.46450102e-09 	6.384465395e-05
0.4741159754 	0.08408362703 	-0.0355822907 	5.502370771e-09 	0.03396479561 	-5.429066126e-09 	6.474634045e-05
0.474291538 	0.08490567996 	-0.03592628695 	5.478984775e-09 	0.03436918759 	-5.38543547e-09 	6.551722398e-05
0.4744671006 	0.0856080692 	-0.03622004534 	5.449608749e-09 	0.03471668103 	-5.334665963e-09 	6.617964305e-05
0.4746426632 	0.08621125856 	-0.03647218666 	5.414647238e-09 	0.03501661611 	-5.277596043e-09 	6.675140267e-05
0.4748182259 	0.08673150078 	-0.03668954883 	5.374534819e-09 	0.03527649585 	-5.214898243e-09 	6.724680568e-05
0.4749937885 	0.08718183437 	-0.03687762051 	5.329711063e-09 	0.0355024136 	-5.147118549e-09 	6.767746771e-05
0.4751693511 	0.08757280464 	-0.03704081426 	5.280599665e-09 	0.0356993062 	-5.0747016e-09 	6.805279972e-05
0.4753449137 	0.08791298882 	-0.03718278183 	5.227604911e-09 	0.03587137559 	-4.998025485e-09 	6.83808118e-05
0.4755204764 	0.08820958866 	-0.03730643825 	5.171087228e-09 	0.03602175369 	-4.917387451e-09 	6.866747427e-05
0.475696039 	0.08846778163 	-0.03741419415 	5.111400316e-09 	0.03615406174 	-4.833095046e-09 	6.891969018e-05
0.4758716016 	0.08869517384 	-0.03750893596 	5.048825615e-09 	0.03626879479 	-4.745170408e-09 	6.913840326e-05
0.4760471642 	0.0888872675 	-0.03758793995 	4.983567133e-09 	0.0363705586 	-4.653852469e-09 	6.933239337e-05
0.4762227269 	0.08909911898 	-0.03767770093 	4.907677876e-09 	0.03646481699 	-4.545247071e-09 	6.951207606e-05
0.4764955107 	0.0893142005 	-0.03776847615 	4.80843391e-09 	0.03656613013 	-4.404817908e-09 	6.970520706e-05
0.4767734216 	0.0894862504 	-0.0378386362 	4.691685993e-09 	0.03666266149 	-4.24357137e-09 	6.988922267e-05
0.4770565557 	0.08963276983 	-0.03789955713 	4.568059479e-09 	0.03673791609 	-4.07322682e-09 	7.003267885e-05
0.4773450114 	0.08974390412 	-0.03794578618 	4.437621061e-09 	0.03679854787 	-3.893960014e-09 	7.014825987e-05
0.4776388886 	0.08982788649 	-0.03798037465 	4.300420402e-09 	0.0368435036 	-3.705537651e-09 	7.023395798e-05
0.4779382892 	0.08988640815 	-0.03800448056 	4.156561573e-09 	0.0368759236 	-3.508034318e-09 	7.029575951e-05
0.4782433171 	0.08992235221 	-0.03801908693 	4.006049146e-09 	0.03689661879 	-3.301443513e-09 	7.033521031e-05
0.4785540779 	0.0899378651 	-0.03802519677 	3.848876629e-09 	0.03690699003 	-3.085769576e-09 	7.035498076e-05
0.4788706795 	0.08993483375 	-0.03802354809 	3.6850005e-09 	0.03690794483 	-2.861006793e-09 	7.035680087e-05
0.4791932316 	0.08991488197 	-0.0380148332 	3.514354011e-09 	0.0369003712 	-2.627147125e-09 	7.034236344e-05
0.4795218461 	0.0898793939 	-0.03799962059 	3.336849233e-09 	0.03688500307 	-2.384181739e-09 	7.031306751e-05
0.4798566368 	0.08982957136 	-0.03797841175 	3.152380232e-09 	0.03686248997 	-2.132100081e-09 	7.027015127e-05
0.48019772 	0.089766452 	-0.03795163668 	2.960826075e-09 	0.03683339428 	-1.870890195e-09 	7.021468682e-05
0.4805452138 	0.08969093901 	-0.03791967037 	2.762052833e-09 	0.03679820831 	-1.600538172e-09 	7.014761257e-05
0.4808992388 	0.08960381874 	-0.03788283882 	2.555915306e-09 	0.03675736298 	-1.321028015e-09 	7.006975003e-05
0.4812599177 	0.08950577813 	-0.03784142679 	2.342258125e-09 	0.03671123657 	-1.032341427e-09 	6.998182027e-05
0.4816273755 	0.08939741822 	-0.03779568328 	2.12091692e-09 	0.03666016167 	-7.344574178e-10 	6.988445731e-05
0.4820017397 	0.08927926587 	-0.03774582645 	1.891718946e-09 	0.03660443108 	-4.273520728e-10 	6.977821931e-05
0.48238314 	0.08915178345 	-0.0376920477 	1.654483688e-09 	0.03654430284 	-1.109981831e-10 	6.966359818e-05
0.4827717088 	0.08901537714 	-0.03763451509 	1.409023179e-09 	0.03648000448 	2.146350448e-10 	6.954102764e-05
0.4831675807 	0.08887040389 	-0.03757337626 	1.155142221e-09 	0.03641173664 	5.495823196e-10 	6.941089015e-05
0.4835708931 	0.08871717746 	-0.03750876092 	8.926387969e-10 	0.03633967619 	8.938827273e-10 	6.927352291e-05
0.4839817856 	0.08855597346 	-0.03744078295 	6.213039018e-10 	0.03626397895 	1.247579926e-09 	6.912922293e-05
0.4844004009 	0.08838703375 	-0.03736954227 	3.40921786e-10 	0.036184782 	1.610722609e-09 	6.897825153e-05
0.4848268841 	0.08821057028 	-0.03729512638 	5.127010323e-11 	0.03610220569 	1.983364855e-09 	6.882083814e-05
0.485261383 	0.08802676824 	-0.03721761168 	-2.478803337e-10 	0.03601635547 	2.365566259e-09 	6.865718376e-05
0.4857040484 	0.08783578901 	-0.0371370647 	-5.567653762e-10 	0.03592732339 	2.757392366e-09 	6.848746386e-05
0.4861550336 	0.08763777253 	-0.0370535431 	-8.756275687e-10 	0.03583518948 	3.158914803e-09 	6.831183103e-05
0.4866144951 	0.0874328395 	-0.03696709652 	-1.204716142e-09 	0.03574002303 	3.570211434e-09 	6.813041732e-05
0.4870825921 	0.08722109323 	-0.0368777674 	-1.544287057e-09 	0.03564188357 	3.991366396e-09 	6.794333624e-05
0.487559487 	0.08700262131 	-0.03678559163 	-1.894603035e-09 	0.03554082195 	4.42247008e-09 	6.775068469e-05
0.4880453452 	0.08677749703 	-0.03669059917 	-2.255933374e-09 	0.0354368811 	4.863619045e-09 	6.755254455e-05
0.4885403351 	0.08654578072 	-0.03659281454 	-2.628553998e-09 	0.03533009692 	5.314915731e-09 	6.734898422e-05
0.4890446283 	0.0863075208 	-0.03649225731 	-3.012747301e-09 	0.03522049892 	5.776468067e-09 	6.714005998e-05
0.4895583997 	0.08606275483 	-0.03638894249 	-3.408802053e-09 	0.03510811093 	6.248388965e-09 	6.692581722e-05
0.4900818274 	0.0858115104 	-0.03628288091 	-3.817013115e-09 	0.03499295163 	6.730795595e-09 	6.67062916e-05
0.4906150929 	0.08555380592 	-0.03617407953 	-4.237681197e-09 	0.03487503519 	7.223808493e-09 	6.648151008e-05
0.4911583811 	0.08528965131 	-0.03606254172 	-4.671112552e-09 	0.03475437171 	7.727550423e-09 	6.625149195e-05
0.4917118805 	0.08501904866 	-0.03594826753 	-5.117618441e-09 	0.03463096773 	8.242145109e-09 	6.601624967e-05
0.4922757829 	0.08474199275 	-0.03583125391 	-5.577514606e-09 	0.0345048267 	8.767715624e-09 	6.577578981e-05
0.4928502838 	0.08445847163 	-0.03571149489 	-6.051120546e-09 	0.03437594937 	9.304382523e-09 	6.55301138e-05
0.4934355824 	0.084168467 	-0.03558898181 	-6.538758687e-09 	0.03424433421 	9.852261729e-09 	6.527921872e-05
0.4940318817 	0.08387195466 	-0.03546370344 	-7.040753496e-09 	0.0341099778 	1.041146197e-08 	6.502309806e-05
0.4946393885 	0.08356890488 	-0.03533564616 	-7.557430274e-09 	0.03397287519 	1.098208199e-08 	6.476174238e-05
0.4952583133 	0.08325928271 	-0.03520479405 	-8.089113819e-09 	0.03383302025 	1.15642074e-08 	6.449514e-05
0.4958888709 	0.08294304831 	-0.03507112904 	-8.636126976e-09 	0.03369040604 	1.215790699e-08 	6.422327767e-05
0.4965312797 	0.08262015721 	-0.03493463102 	-9.198788983e-09 	0.03354502508 	1.276322874e-08 	6.394614116e-05
0.4971857627 	0.08229056049 	-0.03479527791 	-9.777413616e-09 	0.03339686975 	1.338019545e-08 	6.366371592e-05
0.4978525466 	0.08195420518 	-0.03465304583 	-1.03723074e-08 	0.03324593256 	1.400879987e-08 	6.337598769e-05
0.4985318627 	0.08161103414 	-0.03450790892 	-1.098376679e-08 	0.03309220635 	1.464899927e-08 	6.30829428e-05
0.4992239466 	0.081260987 	-0.03435984022 	-1.161207749e-08 	0.03293568511 	1.530071102e-08 	6.278456983e-05
0.4999290382 	0.08090399888 	-0.03420880953 	-1.225750839e-08 	0.03277636205 	1.596380212e-08 	6.248085578e-05
0.5006473819 	0.08054000333 	-0.03405478915 	-1.292031812e-08 	0.03261423695 	1.663809511e-08 	6.217180028e-05
0.501379227 	0.08016892929 	-0.0338977406 	-1.360073314e-08 	0.03244929533 	1.732332017e-08 	6.185737571e-05
0.502124827 	0.07979069117 	-0.03373764225 	-1.429897858e-08 	0.03228157384 	1.801922073e-08 	6.153765193e-05
0.5028844406 	0.07940525261 	-0.03357444522 	-1.501524541e-08 	0.03211099551 	1.872528583e-08 	6.121248223e-05
0.5036583311 	0.07901233461 	-0.03340809601 	-1.574957923e-08 	0.03193778611 	1.94415002e-08 	6.088229697e-05
0.5044467669 	0.07861258963 	-0.03323877821 	-1.650273703e-08 	0.0317614315 	2.016684954e-08 	6.054611606e-05
0.5052500214 	0.07820392527 	-0.0330654038 	-1.727243922e-08 	0.0315825208 	2.090158296e-08 	6.020506255e-05
0.506068373 	0.07774020127 	-0.03286928003 	-1.81661427e-08 	0.03137587585 	2.17365811e-08 	5.981113985e-05
0.507324668 	0.07716010045 	-0.03262371669 	-1.928430292e-08 	0.03112049972 	2.276320199e-08 	5.932432196e-05
0.5085949819 	0.07651383112 	-0.03234939141 	-2.052222526e-08 	0.03084170312 	2.38779694e-08 	5.879285815e-05
0.5098794711 	0.07586332776 	-0.03207352598 	-2.178269512e-08 	0.03056079005 	2.498088151e-08 	5.825735976e-05
0.5111782938 	0.07520535581 	-0.03179444316 	-2.306051699e-08 	0.03027877316 	2.607158325e-08 	5.77197572e-05
0.5124916099 	0.07454111591 	-0.03151254655 	-2.435540879e-08 	0.02999494238 	2.714725501e-08 	5.717869684e-05
0.5138195812 	0.07387028438 	-0.03122781722 	-2.566574726e-08 	0.02970972672 	2.820660381e-08 	5.663499652e-05
0.5151623712 	0.07319297187 	-0.03094024828 	-2.699010191e-08 	0.02942302388 	2.924715449e-08 	5.608846121e-05
0.5165201452 	0.07250918705 	-0.03064987411 	-2.832703412e-08 	0.02913493919 	3.026663199e-08 	5.553929173e-05
0.5178930705 	0.07181895485 	-0.0303566939 	-2.967503157e-08 	0.02884549271 	3.12623875e-08 	5.49875263e-05
0.5192813161 	0.07112229725 	-0.03006072281 	-3.103258387e-08 	0.02855474148 	3.223162151e-08 	5.443327364e-05
0.520685053 	0.07041922957 	-0.02976196641 	-3.239813367e-08 	0.02826273729 	3.317126915e-08 	5.38766325e-05
0.522104454 	0.06970976685 	-0.02946043255 	-3.377009691e-08 	0.02796954221 	3.407801153e-08 	5.331772118e-05
0.523539694 	0.06899392147 	-0.02915612682 	-3.514684851e-08 	0.02767522435 	3.494824454e-08 	5.275666953e-05
0.5249909497 	0.06827170542 	-0.02884905472 	-3.652672162e-08 	0.0273798601 	3.57780637e-08 	5.219362319e-05
0.5264583998 	0.0675431302 	-0.02853922115 	-3.79080003e-08 	0.02708353457 	3.656324582e-08 	5.162874437e-05
0.527942225 	0.06680820772 	-0.0282266309 	-3.928891381e-08 	0.02678634239 	3.729923353e-08 	5.106221348e-05
0.5294426081 	0.06606695072 	-0.02791128876 	-4.066762993e-08 	0.02648838851 	3.798112155e-08 	5.049423057e-05
0.5309597337 	0.06531937342 	-0.02759319973 	-4.204224813e-08 	0.02618978892 	3.860364539e-08 	4.992501676e-05
0.5324937889 	0.06456549202 	-0.02727236921 	-4.341079293e-08 	0.0258906714 	3.916117341e-08 	4.935481564e-05
0.5340449624 	0.06380532529 	-0.02694880316 	-4.477120728e-08 	0.02559117621 	3.964770235e-08 	4.878389455e-05
0.5356134452 	0.0630388951 	-0.02662250831 	-4.612134651e-08 	0.02529145676 	4.005685757e-08 	4.821254599e-05
0.5371994306 	0.06226622704 	-0.02629349227 	-4.745897276e-08 	0.02499168032 	4.038189825e-08 	4.764108876e-05
0.5388031139 	0.06148735097 	-0.02596176373 	-4.878175028e-08 	0.02469202855 	4.061572879e-08 	4.706986921e-05
0.5404246925 	0.06070230167 	-0.02562733264 	-5.008724169e-08 	0.02439269816 	4.075091684e-08 	4.649926229e-05
0.5420643661 	0.05991111948 	-0.02529021029 	-5.13729056e-08 	0.02409390136 	4.077971911e-08 	4.592967254e-05
0.5437223366 	0.05911385098 	-0.02495040954 	-5.263609538e-08 	0.02379586632 	4.069411576e-08 	4.536153492e-05
0.5453988083 	0.05831054971 	-0.02460794489 	-5.387405948e-08 	0.02349883754 	4.048585432e-08 	4.479531552e-05
0.5470939875 	0.05750127694 	-0.02426283265 	-5.508394367e-08 	0.02320307611 	4.014650377e-08 	4.423151202e-05
0.5488080831 	0.05668610247 	-0.02391509108 	-5.626279485e-08 	0.02290885981 	3.966752007e-08 	4.367065398e-05
0.5505413061 	0.05586510554 	-0.02356474045 	-5.740756681e-08 	0.02261648315 	3.904032357e-08 	4.311330281e-05
0.5522938699 	0.05503837575 	-0.02321180321 	-5.851512823e-08 	0.02232625718 	3.825638902e-08 	4.256005145e-05
0.5540659904 	0.05420601409 	-0.02285630402 	-5.958227237e-08 	0.02203850913 	3.7307349e-08 	4.201152368e-05
0.5558578859 	0.05336813402 	-0.02249826984 	-6.0605729e-08 	0.02175358182 	3.618511078e-08 	4.146837304e-05
0.5576697768 	0.05252486267 	-0.02213773001 	-6.158217839e-08 	0.02147183285 	3.488198686e-08 	4.093128119e-05
0.5595018865 	0.05167634213 	-0.02177471624 	-6.250826729e-08 	0.0211936335 	3.339083873e-08 	4.040095592e-05
0.5613544406 	0.05082273087 	-0.02140926266 	-6.338062684e-08 	0.02091936733 	3.170523319e-08 	3.987812837e-05
0.563227667 	0.04996420523 	-0.02104140579 	-6.419589238e-08 	0.02064942846 	2.981960978e-08 	3.936354985e-05
0.5651217966 	0.04910096109 	-0.02067118447 	-6.495072495e-08 	0.02038421947 	2.77294573e-08 	3.88579878e-05
0.5670370626 	0.04823321569 	-0.02029863983 	-6.564183443e-08 	0.02012414898 	2.543149693e-08 	3.836222117e-05
0.5689737009 	0.04736120952 	-0.01992381515 	-6.626600383e-08 	0.01986962883 	2.292386755e-08 	3.787703503e-05
0.5709319499 	0.04648520848 	-0.01954675573 	-6.682011495e-08 	0.01962107085 	2.020631011e-08 	3.740321443e-05
0.5729120508 	0.04560550611 	-0.0191675087 	-6.730117458e-08 	0.01937888326 	1.728034274e-08 	3.694153758e-05
0.5749142474 	0.04472242602 	-0.01878612282 	-6.770634026e-08 	0.01914346675 	1.414942641e-08 	3.649276828e-05
0.5769387863 	0.04383632451 	-0.01840264821 	-6.80329518e-08 	0.01891521013 	1.081910002e-08 	3.605764773e-05
0.5789859169 	0.04294759337 	-0.01801713611 	-6.827853803e-08 	0.01869448579 	7.297097843e-09 	3.563688577e-05
0.5810558911 	0.04205666285 	-0.0176296386 	-6.844088402e-08 	0.01848164501 	3.593396042e-09 	3.523115209e-05
0.583148964 	0.04116400433 	-0.017240208 	-6.851805907e-08 	0.01827701359 	-2.797149817e-10 	3.484106773e-05
0.5852653933 	0.04027013345 	-0.01684889648 	-6.850837209e-08 	0.01808088704 	-4.307523165e-09 	3.446719601e-05
0.5874054395 	0.03937561335 	-0.01645575576 	-6.841042644e-08 	0.01789352567 	-8.472936447e-09 	3.411003317e-05
0.5895693664 	0.03848105742 	-0.01606083641 	-6.822311005e-08 	0.0177151498 	-1.275657254e-08 	3.37699992e-05
0.5917574402 	0.03758713242 	-0.01566418751 	-6.794555921e-08 	0.01754593492 	-1.713697781e-08 	3.34474286e-05
0.5939699306 	0.03669456169 	-0.0152658564 	-6.757719308e-08 	0.01738600678 	-2.159110227e-08 	3.314256112e-05
0.5962071099 	0.0358041281 	-0.01486588846 	-6.711777168e-08 	0.01723543738 	-2.609494882e-08 	3.285553398e-05
0.5984692536 	0.03491667681 	-0.01446432681 	-6.656743705e-08 	0.01709424215 	-3.062432072e-08 	3.258637665e-05
0.6007566404 	0.0340331174 	-0.01406121187 	-6.592686761e-08 	0.0169623792 	-3.515543627e-08 	3.23350092e-05
0.6030695519 	0.03315442556 	-0.0136565808 	-6.519702036e-08 	0.01683975025 	-3.966560193e-08 	3.210124435e-05
0.6054082729 	0.03228164385 	-0.01325046665 	-6.438004829e-08 	0.01672620344 	-4.413302497e-08 	3.188479256e-05
0.6077730914 	0.03141588192 	-0.0128428976 	-6.348125015e-08 	0.01662153698 	-4.853870868e-08 	3.16852692e-05
0.6101642987 	0.03055831626 	-0.01243389664 	-6.249905743e-08 	0.01652550329 	-5.286137038e-08 	3.15022023e-05
0.6125821893 	0.02971018904 	-0.01202348111 	-6.143007691e-08 	0.01643781303 	-5.707850276e-08 	3.133504029e-05
0.6150270608 	0.02887280555 	-0.01161166253 	-6.028218566e-08 	0.01635813934 	-6.117535875e-08 	3.118316009e-05
0.6174992144 	0.02804753068 	-0.01119844677 	-5.906127743e-08 	0.01628612272 	-6.513756564e-08 	3.104587639e-05
0.6199989545 	0.02723578534 	-0.01078383431 	-5.776845018e-08 	0.01622137671 	-6.895085184e-08 	3.09224525e-05
0.622526589 	0.0264390418 	-0.01036782046 	-5.640655475e-08 	0.0161634951 	-7.26054477e-08 	3.081211408e-05
0.625082429 	0.02565881799 	-0.009950395116 	-5.497814994e-08 	0.01611206029 	-7.609436252e-08 	3.071406503e-05
0.6276667894 	0.02489667123 	-0.009531542571 	-5.34874851e-08 	0.01606665158 	-7.941252308e-08 	3.06275034e-05
0.6302799884 	0.02415419182 	-0.00911124186 	-5.193469102e-08 	0.01602685308 	-8.255714639e-08 	3.055163639e-05
0.6329223478 	0.02343299636 	-0.008689467537 	-5.031707178e-08 	0.01599226101 	-8.55289076e-08 	3.04856943e-05
0.6355941931 	0.02273471776 	-0.008266188528 	-4.864709466e-08 	0.01596249026 	-8.833147602e-08 	3.042894299e-05
0.6382958531 	0.02206099627 	-0.007841367834 	-4.693553989e-08 	0.01593718002 	-9.097039504e-08 	3.038069463e-05
0.6410276607 	0.02141347379 	-0.007414964527 	-4.517771286e-08 	0.01591599797 	-9.344890182e-08 	3.034031576e-05
0.6437899523 	0.02079378576 	-0.006986934054 	-4.33739125e-08 	0.01589864341 	-9.576795602e-08 	3.030723313e-05
0.646583068 	0.02020355206 	-0.006557227887 	-4.152865478e-08 	0.01588484956 	-9.792998118e-08 	3.028093823e-05
0.6494073518 	0.01964436913 	-0.006125793926 	-3.964417994e-08 	0.01587438498 	-9.993844861e-08 	3.026098984e-05
0.6522631514 	0.01911780235 	-0.005692576777 	-3.772311386e-08 	0.01586705363 	-1.017959871e-07 	3.024701424e-05
0.6551508186 	0.01862537897 	-0.005257518051 	-3.576782212e-08 	0.01586269397 	-1.035043713e-07 	3.023870351e-05
0.658070709 	0.01816858148 	-0.004820556633 	-3.378056284e-08 	0.01586117717 	-1.050644407e-07 	3.023581207e-05
0.6610231822 	0.01774884153 	-0.004381628948 	-3.176343676e-08 	0.01586240458 	-1.064761417e-07 	3.023815186e-05
0.6640086017 	0.01736753422 	-0.003940669208 	-2.971839268e-08 	0.0158663046 	-1.077386051e-07 	3.024558639e-05
0.6670273351 	0.01702597305 	-0.003497609637 	-2.764723007e-08 	0.01587282906 	-1.088502817e-07 	3.025802382e-05
0.6700797543 	0.01672540517 	-0.003052380677 	-2.555160393e-08 	0.01588194933 	-1.098091295e-07 	3.027540958e-05
0.6731662352 	0.01646700709 	-0.002604911173 	-2.343303244e-08 	0.01589365229 	-1.106128404e-07 	3.029771867e-05
0.6762871577 	0.01625188074 	-0.002155128544 	-2.129290362e-08 	0.01590793626 	-1.112590849e-07 	3.032494789e-05
0.6794429063 	0.01608104971 	-0.001702958908 	-1.913249189e-08 	0.01592480717 	-1.117457766e-07 	3.035710854e-05
0.6826338695 	0.01595545588 	-0.001248327289 	-1.695294124e-08 	0.01594427481 	-1.120712987e-07 	3.039421926e-05
0.6858604404 	0.01587595593 	-0.0007911574193 	-1.475538394e-08 	0.01596634981 	-1.12234791e-07 	3.043630036e-05
0.6891230163 	0.01584331843 	-0.000331373034 	-1.254053965e-08 	0.01599104023 	-1.122361565e-07 	3.048336715e-05
0.6924219988 	0.01585822031 	0.0001311027756 	-1.03092124e-08 	0.01601835031 	-1.120764926e-07 	3.053542775e-05
0.6957577944 	0.01592124394 	0.0005963506643 	-8.062853494e-09 	0.01604827888 	-1.117581297e-07 	3.059247994e-05
0.6991308138 	0.01603287504 	0.001064451452 	-5.802293883e-09 	0.0160808169 	-1.112842159e-07 	3.065450644e-05
0.7025414724 	0.01619349874 	0.001535484022 	-3.528057545e-09 	0.01611594965 	-1.106592908e-07 	3.072147922e-05
0.7059901901 	0.01640339715 	0.00200952865 	-1.241005271e-09 	0.01615365686 	-1.098890023e-07 	3.079335966e-05
0.7094773917 	0.01666274737 	0.002486666904 	1.058015471e-09 	0.01619391375 	-1.089797578e-07 	3.087010047e-05
0.7130035066 	0.01697161893 	0.002966980751 	3.368085338e-09 	0.01623669457 	-1.079387604e-07 	3.09516526e-05
0.7165689691 	0.01732997228 	0.003450552739 	5.688203266e-09 	0.01628197571 	-1.067736404e-07 	3.103797105e-05
0.7201742182 	0.01773765748 	0.003937465893 	8.017250566e-09 	0.0163297402 	-1.054922069e-07 	3.112902343e-05
0.7238196978 	0.01819441411 	0.004427803761 	1.035395234e-08 	0.01637998172 	-1.041021258e-07 	3.122479775e-05
0.727505857 	0.01869987086 	0.004921649838 	1.269686404e-08 	0.01643271098 	-1.026106003e-07 	3.132531437e-05
0.7312331497 	0.0192535456 	0.005419089077 	1.504423778e-08 	0.0164879669 	-1.010239889e-07 	3.143064751e-05
0.7350020349 	0.01985314512 	0.005918872441 	1.73881428e-08 	0.01654568301 	-9.935189257e-08 	3.154067045e-05
0.7387709215 	0.02049200293 	0.006416848014 	1.970717629e-08 	0.0166054524 	-9.761360929e-08 	3.165460753e-05
0.7424982157 	0.02116224785 	0.006908936562 	2.197998097e-08 	0.01666680493 	-9.582920564e-08 	3.17715625e-05
0.7461843763 	0.02185914807 	0.007394007557 	2.419929777e-08 	0.01672961593 	-9.400794469e-08 	3.189129772e-05
0.7498298574 	0.02257974616 	0.007872237895 	2.636427854e-08 	0.01679396853 	-9.215266419e-08 	3.201397166e-05
0.7534351078 	0.02332126462 	0.008343795666 	2.847394015e-08 	0.01685997893 	-9.026472049e-08 	3.213980583e-05
0.7570005716 	0.02408110317 	0.008808839208 	3.052730436e-08 	0.0169277884 	-8.834435964e-08 	3.226906952e-05
0.7605266877 	0.02485683549 	0.009267518265 	3.25234198e-08 	0.01699755863 	-8.639103135e-08 	3.240207097e-05
0.7640138905 	0.02564620379 	0.009719974583 	3.446129573e-08 	0.0170694683 	-8.440365466e-08 	3.25391508e-05
0.7674626093 	0.0264471132 	0.01016634243 	3.634001423e-08 	0.01714370854 	-8.238084919e-08 	3.268067332e-05
0.770873269 	0.02725762563 	0.0106067492 	3.815894334e-08 	0.01722047835 	-8.032139565e-08 	3.282701791e-05
0.7742462894 	0.02807595341 	0.01104131597 	3.991753995e-08 	0.01729998019 	-7.822426897e-08 	3.297857053e-05
0.777582086 	0.02890045213 	0.01147015794 	4.161518237e-08 	0.01738241595 	-7.608860939e-08 	3.313571599e-05
0.7808810695 	0.02972961337 	0.01189338483 	4.325139545e-08 	0.01746798317 	-7.391405436e-08 	3.32988309e-05
0.7841436462 	0.03056205735 	0.01231110128 	4.482592322e-08 	0.01755687174 	-7.170079028e-08 	3.346827721e-05
0.787370218 	0.03139652546 	0.01272340729 	4.633862379e-08 	0.01764926094 	-6.944957149e-08 	3.364439672e-05
0.7905611821 	0.03223187279 	0.01313039852 	4.778949457e-08 	0.01774531703 	-6.716174137e-08 	3.382750631e-05
0.7937169314 	0.03306706078 	0.01353216666 	4.917866052e-08 	0.01784519113 	-6.483920953e-08 	3.401789411e-05
0.7968378547 	0.03390114996 	0.01392879967 	5.050636698e-08 	0.01794901772 	-6.248442452e-08 	3.421581645e-05
0.7999243362 	0.03473329293 	0.0143203821 	5.177297036e-08 	0.01805691337 	-6.010032347e-08 	3.442149554e-05
0.8029767561 	0.03556272753 	0.01470699531 	5.297892702e-08 	0.01816897597 	-5.769027333e-08 	3.4635118e-05
0.8059954902 	0.03638877036 	0.01508871768 	5.412478522e-08 	0.01828528424 	-5.525800099e-08 	3.48568339e-05
0.8089809102 	0.03721081054 	0.01546562485 	5.521116907e-08 	0.01840589762 	-5.280752367e-08 	3.508675651e-05
0.8119333839 	0.03802830377 	0.01583778988 	5.623878644e-08 	0.01853085632 	-5.03430539e-08 	3.532496252e-05
0.8148532749 	0.03884076679 	0.01620528342 	5.720836953e-08 	0.01866018172 	-4.786897226e-08 	3.55714927e-05
0.8177409426 	0.03964777207 	0.01656817386 	5.812078027e-08 	0.01879387693 	-4.538958614e-08 	3.582635292e-05
0.8205967427 	0.04044894296 	0.01692652745 	5.897668888e-08 	0.01893192743 	-4.290953876e-08 	3.608951555e-05
0.8234210268 	0.04124394907 	0.01728040844 	5.977718556e-08 	0.01907430195 	-4.043220457e-08 	3.636092095e-05
0.8262141429 	0.04203250191 	0.01762987917 	6.052264545e-08 	0.01922095345 	-3.796281225e-08 	3.664047946e-05
0.8289764348 	0.04281435104 	0.01797500015 	6.121351819e-08 	0.01937182005 	-3.549729874e-08 	3.692807314e-05
0.8317082427 	0.04358927915 	0.01831583001 	6.18515642e-08 	0.01952682702 	-3.304472706e-08 	3.72235595e-05
0.8344099031 	0.0443571006 	0.01865242623 	6.240210484e-08 	0.01968588719 	-3.058344152e-08 	3.752677239e-05
0.8370817486 	0.04511764656 	0.01898483872 	6.286186033e-08 	0.01984890256 	-2.809874339e-08 	3.783752499e-05
0.8397241082 	0.04587079049 	0.01931312574 	6.327914819e-08 	0.02001576251 	-2.56909386e-08 	3.815560644e-05
0.8423373074 	0.04661644862 	0.01963735305 	6.366380941e-08 	0.0201863412 	-2.336901452e-08 	3.848077683e-05
0.844921668 	0.04735452336 	0.01995756419 	6.401064159e-08 	0.02036050895 	-2.107148034e-08 	3.881278898e-05
0.8474775082 	0.04808493189 	0.02027380231 	6.431221675e-08 	0.02053813287 	-1.880364028e-08 	3.915138952e-05
0.8500051427 	0.04880762217 	0.02058611916 	6.45591058e-08 	0.02071907174 	-1.656947131e-08 	3.94963093e-05
0.8525048829 	0.04952255289 	0.02089456181 	6.474924968e-08 	0.02090317809 	-1.437400437e-08 	3.984726717e-05
0.8549770366 	0.05022969718 	0.02119917697 	6.48812912e-08 	0.021090299 	-1.22203474e-08 	4.020397165e-05
0.8574219081 	0.05092903887 	0.02150000996 	6.495518751e-08 	0.0212802782 	-1.011191802e-08 	4.05661248e-05
0.8598397987 	0.05162057197 	0.02179710497 	6.497124823e-08 	0.02147295616 	-8.051472568e-09 	4.093342254e-05
0.862231006 	0.05230429934 	0.02209050513 	6.492994073e-08 	0.02166817109 	-6.041566913e-09 	4.130555646e-05
0.8645958245 	0.0529802318 	0.02238025255 	6.483182165e-08 	0.02186575946 	-4.084420744e-09 	4.168221481e-05
0.8669345455 	0.05364838713 	0.02266638837 	6.467744423e-08 	0.02206555666 	-2.182028001e-09 	4.20630838e-05
0.8692474569 	0.05430878933 	0.02294895281 	6.446736269e-08 	0.02226739758 	-3.361862861e-10 	4.24478487e-05
0.8715348435 	0.05496146786 	0.02322798523 	6.420212861e-08 	0.02247111716 	1.451461477e-09 	4.283619484e-05
0.8737969871 	0.05560645701 	0.02350352416 	6.388231374e-08 	0.02267655088 	3.179397286e-09 	4.32278086e-05
0.8760341663 	0.0562437953 	0.02377560739 	6.350853173e-08 	0.02288353521 	4.846206485e-09 	4.362237826e-05
0.8782466565 	0.05687352504 	0.02404427196 	6.308146296e-08 	0.02309190804 	6.450561911e-09 	4.40195948e-05
0.8804347301 	0.05749569183 	0.02430955426 	6.260187555e-08 	0.0233015091 	7.991211883e-09 	4.441915266e-05
0.8825986568 	0.05811034417 	0.02457149002 	6.207064757e-08 	0.02351218024 	9.466977662e-09 	4.482075041e-05
0.8847387028 	0.05871753317 	0.0248301144 	6.148877891e-08 	0.02372376583 	1.087673616e-08 	4.522409136e-05
0.8868551318 	0.05931731216 	0.02508546204 	6.085741063e-08 	0.02393611302 	1.221944288e-08 	4.562888411e-05
0.8889482045 	0.05990973652 	0.02533756704 	6.017784618e-08 	0.02414907199 	1.349406944e-08 	4.60348431e-05
0.8910181784 	0.06049486336 	0.02558646307 	5.945145027e-08 	0.02436249624 	1.4699769e-08 	4.644168904e-05
0.8930653087 	0.06107275139 	0.02583218336 	5.868007558e-08 	0.02457624274 	1.583591616e-08 	4.684914927e-05
0.8950898473 	0.0616434608 	0.02607476083 	5.786449822e-08 	0.02479017211 	1.69021744e-08 	4.725695812e-05
0.8970920436 	0.06220705353 	0.02631422839 	5.700427427e-08 	0.02500414878 	1.789852581e-08 	4.766485712e-05
0.8990721441 	0.06276359225 	0.02655061843 	5.610489222e-08 	0.02521804127 	1.882325242e-08 	4.807259565e-05
0.9010303927 	0.06331313967 	0.02678396246 	5.517302154e-08 	0.02543172249 	1.9674348e-08 	4.847993144e-05
0.9029670306 	0.06385575946 	0.02701429187 	5.420833412e-08 	0.02564506961 	2.045224644e-08 	4.888663036e-05
0.9048822962 	0.06439151651 	0.02724163811 	5.321105171e-08 	0.02585796412 	2.115752125e-08 	4.929246646e-05
0.9067764254 	0.06492047636 	0.02746603242 	5.218419672e-08 	0.02607029192 	2.179034644e-08 	4.969722226e-05
0.9086496514 	0.06544270509 	0.02768750589 	5.113059707e-08 	0.02628194345 	2.235108521e-08 	5.01006889e-05
0.910502205 	0.06595826922 	0.02790608941 	5.005329318e-08 	0.02649281374 	2.284005898e-08 	5.050266628e-05
0.9123343142 	0.06646723563 	0.02812181369 	4.895539118e-08 	0.02670280246 	2.325788904e-08 	5.090296315e-05
0.9141462048 	0.06696967141 	0.02833470931 	4.784004963e-08 	0.02691181397 	2.360539502e-08 	5.130139717e-05
0.9159380997 	0.06746564387 	0.02854480665 	4.671047478e-08 	0.02711975728 	2.388363917e-08 	5.169779492e-05
0.9177102197 	0.06795522034 	0.02875213595 	4.556989601e-08 	0.02732654612 	2.409391338e-08 	5.209199192e-05
0.9194627831 	0.06843846815 	0.02895672728 	4.442154806e-08 	0.02753209888 	2.423774984e-08 	5.248383261e-05
0.9211960055 	0.06891545449 	0.02915861048 	4.326864588e-08 	0.02773633861 	2.431692286e-08 	5.28731703e-05
0.9229101006 	0.06938624632 	0.02935781523 	4.211436114e-08 	0.027939193 	2.433345029e-08 	5.325986715e-05
0.9246052793 	0.06985091025 	0.02955437095 	4.096179642e-08 	0.02814059431 	2.428959133e-08 	5.364379404e-05
0.9262817504 	0.07030951242 	0.0297483068 	3.981395928e-08 	0.02834047936 	2.4187842e-08 	5.402483049e-05
0.9279397204 	0.07076211838 	0.02993965165 	3.867373795e-08 	0.0285387894 	2.403092726e-08 	5.440286453e-05
0.9295793934 	0.07120879293 	0.03012843401 	3.754387687e-08 	0.02873547008 	2.382179036e-08 	5.477779257e-05
0.9312009714 	0.07164960003 	0.03031468203 	3.642695177e-08 	0.02893047135 	2.356357994e-08 	5.514951919e-05
0.9328046541 	0.07208460255 	0.03049842337 	3.532534735e-08 	0.02912374734 	2.325963378e-08 	5.551795696e-05
0.9343906389 	0.07251386221 	0.03067968524 	3.424123743e-08 	0.02931525628 	2.291345928e-08 	5.588302623e-05
0.9359591211 	0.07293743931 	0.03085849424 	3.317656451e-08 	0.02950496032 	2.252871124e-08 	5.624465484e-05