0.4709558481 	2.206133669e-05 	-8.676374486e-07 	8.68225956e-12 	2.196240169e-05 	-1.590216718e-10 	4.186644176e-08
0.4709558481 	2.206133669e-05 	-8.676374486e-07 	8.68225956e-12 	2.196240169e-05 	-1.590216718e-10 	4.186644176e-08
0.4711314108 	0.0002549867001 	-3.727508025e-05 	3.686390949e-10 	0.0002447389866 	-1.761954293e-09 	4.665405301e-07
0.4713069734 	0.001566564814 	-0.0004407465092 	4.144378177e-09 	0.001307099596 	-9.11920359e-09 	2.491695119e-06
0.471482536 	0.0058686403 	-0.00218110868 	1.84761077e-08 	0.003861972039 	-2.496164673e-08 	7.361992086e-06
0.4716580986 	0.01492840092 	-0.006107668704 	4.466759439e-08 	0.007740588188 	-4.50027851e-08 	1.475571247e-05
0.4718336613 	0.02760533957 	-0.01161066592 	7.17129286e-08 	0.01208944965 	-6.331422862e-08 	2.304585112e-05
0.4720092239 	0.04051966081 	-0.0171588137 	8.996914899e-08 	0.01626112964 	-7.794238702e-08 	3.099823264e-05
0.4721847865 	0.0514234077 	-0.02180332184 	9.979200166e-08 	0.01998060277 	-8.861784436e-08 	3.80885822e-05
0.4723603491 	0.05994283813 	-0.02541358121 	1.049272206e-07 	0.0231462628 	-9.582309287e-08 	4.412321006e-05
0.4725359118 	0.06647335325 	-0.02817512298 	1.077468606e-07 	0.02576614364 	-1.00504824e-07 	4.911743111e-05
0.4727114744 	0.07150021017 	-0.03029780371 	1.093597329e-07 	0.02790209009 	-1.034745257e-07 	5.318913869e-05
0.472887037 	0.07541773518 	-0.03194920475 	1.103080274e-07 	0.0296345994 	-1.053451719e-07 	5.649178297e-05
0.4730625996 	0.07851419651 	-0.03325212842 	1.108654409e-07 	0.03104282595 	-1.065240324e-07 	5.917625417e-05
0.4732381623 	0.08099510492 	-0.03429430303 	1.111773457e-07 	0.03219431426 	-1.07259802e-07 	6.137131093e-05
0.4734137249 	0.08300752064 	-0.03513843084 	1.113257376e-07 	0.03314290517 	-1.077015304e-07 	6.317958885e-05
0.4735892875 	0.08465796906 	-0.03582980515 	1.113596984e-07 	0.03393036562 	-1.079405244e-07 	6.468070732e-05
0.4737648501 	0.08602472972 	-0.03640162278 	1.113102733e-07 	0.03458888718 	-1.080346522e-07 	6.593603245e-05
0.4739404128 	0.08716618149 	-0.03687859113 	1.111980996e-07 	0.03514333506 	-1.080216793e-07 	6.699296421e-05
0.4741159754 	0.08812649746 	-0.03727937645 	1.110375105e-07 	0.03561302406 	-1.079268154e-07 	6.788832198e-05
0.474291538 	0.08893956261 	-0.0376182796 	1.108388288e-07 	0.03601306678 	-1.077672078e-07 	6.865091461e-05
0.4744671006 	0.08963169901 	-0.03790639744 	1.106097021e-07 	0.03635538464 	-1.075547217e-07 	6.930346758e-05
0.4746426632 	0.09022359074 	-0.03815244257 	1.103559205e-07 	0.03664946454 	-1.072977067e-07 	6.98640656e-05
0.4748182259 	0.09073165928 	-0.03836332359 	1.100819226e-07 	0.03690291761 	-1.07002118e-07 	7.034721759e-05
0.4749937885 	0.09116907456 	-0.03854458493 	1.097911829e-07 	0.03712191906 	-1.066723079e-07 	7.076469522e-05
0.4751693511 	0.09154648532 	-0.03870068247 	1.094863603e-07 	0.03731146684 	-1.06311381e-07 	7.112602599e-05
0.4753449137 	0.09187255038 	-0.03883530488 	1.091696779e-07 	0.03747581563 	-1.059219936e-07 	7.143932045e-05
0.4755204764 	0.09215454236 	-0.03895139435 	1.088426951e-07 	0.03761812703 	-1.05505417e-07 	7.171060553e-05
0.475696039 	0.09239767238 	-0.03905138448 	1.085066932e-07 	0.03774207791 	-1.050647033e-07 	7.194689036e-05
0.4758716016 	0.09260967588 	-0.03913820435 	1.081641346e-07 	0.03784812398 	-1.045967656e-07 	7.214904364e-05
0.4760471642 	0.09278587135 	-0.03920903254 	1.07808628e-07 	0.03794095386 	-1.041063533e-07 	7.23260032e-05
0.4762227269 	0.09298002968 	-0.03928971878 	1.074241729e-07 	0.0380245314 	-1.035060293e-07 	7.248532523e-05
0.4764955107 	0.09317206272 	-0.03936872106 	1.069197895e-07 	0.03811222077 	-1.027258582e-07 	7.265248554e-05
0.4767734216 	0.09331689382 	-0.03942501565 	1.063117613e-07 	0.03819334924 	-1.01827404e-07 	7.280713895e-05
0.4770565557 	0.09343522071 	-0.03947162829 	1.056835068e-07 	0.03825239306 	-1.008620035e-07 	7.291969288e-05
0.4773450114 	0.09351681624 	-0.03950291568 	1.050222317e-07 	0.03829612801 	-9.983624046e-08 	7.300306384e-05
0.4776388886 	0.09357006597 	-0.03952197829 	1.043311462e-07 	0.0383234087 	-9.874253987e-08 	7.305506843e-05
0.4779382892 	0.09359662128 	-0.03952997125 	1.036098536e-07 	0.03833742148 	-9.758248624e-08 	7.308178068e-05
0.4782433171 	0.09359937112 	-0.03952787357 	1.028579455e-07 	0.03833895774 	-9.635329418e-08 	7.308470922e-05
0.4785540779 	0.09358045269 	-0.03951668782 	1.020752526e-07 	0.03832942037 	-9.505361018e-08 	7.306652835e-05
0.4788706795 	0.09354174208 	-0.03949714606 	1.012612473e-07 	0.03830970663 	-9.36812372e-08 	7.302894846e-05
0.4791932316 	0.09348484896 	-0.03946993522 	1.004154458e-07 	0.03828069622 	-9.223408596e-08 	7.297364656e-05
0.4795218461 	0.09341113974 	-0.03943561618 	9.953722149e-08 	0.03824311224 	-9.070987218e-08 	7.290200105e-05
0.4798566368 	0.09332179587 	-0.03939468204 	9.862589558e-08 	0.03819759268 	-8.910623498e-08 	7.281522812e-05
0.48019772 	0.09321783193 	-0.03934755326 	9.768070953e-08 	0.0381446873 	-8.742071115e-08 	7.271437576e-05
0.4805452138 	0.09310012569 	-0.03929459432 	9.670084243e-08 	0.03808487494 	-8.565075302e-08 	7.260035678e-05
0.4808992388 	0.0929694359 	-0.03923611988 	9.568541097e-08 	0.03801857235 	-8.379373351e-08 	7.247396561e-05
0.4812599177 	0.09282641989 	-0.03917240256 	9.463347487e-08 	0.03794614293 	-8.184695342e-08 	7.233589502e-05
0.4816273755 	0.09267164723 	-0.03910367848 	9.354404017e-08 	0.03786790387 	-7.980764779e-08 	7.218674962e-05
0.4820017397 	0.09250561155 	-0.03903015231 	9.241606249e-08 	0.03778413203 	-7.767299223e-08 	7.20270572e-05
0.48238314 	0.0923287404 	-0.03895200129 	9.124845041e-08 	0.03769506905 	-7.544010923e-08 	7.185727841e-05
0.4827717088 	0.09214140361 	-0.03886937879 	9.004006898e-08 	0.03760092563 	-7.310607459e-08 	7.167781489e-05
0.4831675807 	0.09194392042 	-0.03878241723 	8.878974297e-08 	0.03750188524 	-7.066792452e-08 	7.148901637e-05
0.4835708931 	0.09173656552 	-0.03869123063 	8.749626051e-08 	0.03739810721 	-6.812266326e-08 	7.129118661e-05
0.4839817856 	0.09151957425 	-0.03859591677 	8.615837694e-08 	0.03728972955 	-6.546727164e-08 	7.108458867e-05
0.4844004009 	0.09129314711 	-0.03849655905 	8.477481883e-08 	0.03717687127 	-6.269871677e-08 	7.086944942e-05
0.4848268841 	0.09105745358 	-0.0383932281 	8.334428853e-08 	0.03705963447 	-5.981396302e-08 	7.064596349e-05
0.485261383 	0.09081263551 	-0.03828598316 	8.186546895e-08 	0.03693810617 	-5.680998465e-08 	7.041429678e-05
0.4857040484 	0.09055881002 	-0.03817487329 	8.033702872e-08 	0.03681235997 	-5.368378045e-08 	7.017458956e-05
0.4861550336 	0.09029607204 	-0.03805993844 	7.875762817e-08 	0.03668245742 	-5.043239016e-08 	6.992695921e-05
0.4866144951 	0.09002449661 	-0.03794121038 	7.712592538e-08 	0.03654844944 	-4.70529137e-08 	6.967150275e-05
0.4870825921 	0.0897441408 	-0.03781871349 	7.544058331e-08 	0.03641037741 	-4.354253281e-08 	6.940829909e-05
0.487559487 	0.08945504547 	-0.03769246551 	7.370027747e-08 	0.03626827436 	-3.989853564e-08 	6.913741117e-05
0.4880453452 	0.08915723691 	-0.03756247818 	7.190370393e-08 	0.0361221659 	-3.611834481e-08 	6.885888784e-05
0.4885403351 	0.08885072816 	-0.0374287578 	7.004958867e-08 	0.03597207127 	-3.21995488e-08 	6.857276576e-05
0.4890446283 	0.08853552031 	-0.03729130578 	6.813669733e-08 	0.03581800421 	-2.813993725e-08 	6.827907113e-05
0.4895583997 	0.08821160369 	-0.03715011909 	6.616384594e-08 	0.03565997386 	-2.393754031e-08 	6.797782135e-05
0.4900818274 	0.08787895889 	-0.03700519068 	6.412991254e-08 	0.03549798561 	-1.959067238e-08 	6.766902672e-05
0.4906150929 	0.08753755774 	-0.03685650994 	6.203384939e-08 	0.03533204199 	-1.50979805e-08 	6.735269206e-05
0.4911583811 	0.08718736425 	-0.03670406297 	5.987469628e-08 	0.03516214349 	-1.045849753e-08 	6.702881831e-05
0.4917118805 	0.08682833543 	-0.03654783304 	5.765159457e-08 	0.03498828948 	-5.67170036e-09 	6.669740424e-05
0.4922757829 	0.08646042212 	-0.03638780082 	5.536380184e-08 	0.03481047902 	-7.375732738e-10 	6.635844808e-05
0.4928502838 	0.08608356977 	-0.03622394474 	5.301070715e-08 	0.03462871183 	4.343323377e-09 	6.601194931e-05
0.4934355824 	0.08569771921 	-0.03605624131 	5.059184697e-08 	0.03444298922 	9.569779237e-09 	6.56579104e-05
0.4940318817 	0.08530280731 	-0.03588466537 	4.810692126e-08 	0.03425331505 	1.493985487e-08 	6.529633871e-05
0.4946393885 	0.08489876777 	-0.03570919039 	4.555580976e-08 	0.03405969677 	2.045079768e-08 	6.492724844e-05
0.4952583133 	0.0844855318 	-0.03552978876 	4.29385883e-08 	0.03386214647 	2.609895321e-08 	6.455066266e-05
0.4958888709 	0.08406302881 	-0.03534643206 	4.025554446e-08 	0.03366068204 	3.187967191e-08 	6.416661546e-05
0.4965312797 	0.08363118713 	-0.03515909135 	3.75071931e-08 	0.03345532831 	3.778721292e-08 	6.377515419e-05
0.4971857627 	0.08318993469 	-0.03496773742 	3.469428994e-08 	0.03324611832 	4.381464442e-08 	6.33763418e-05
0.4978525466 	0.08273919984 	-0.03477234116 	3.181784568e-08 	0.0330330946 	4.995374275e-08 	6.297025938e-05
0.4985318627 	0.08227891175 	-0.03457287355 	2.887913251e-08 	0.03281631036 	5.619489239e-08 	6.255700838e-05
0.4992239466 	0.08180900198 	-0.03436930681 	2.587970575e-08 	0.03259583152 	6.252697789e-08 	6.213671442e-05
0.4999290382 	0.08132940359 	-0.03416161232 	2.282137202e-08 	0.03237173572 	6.893731709e-08 	6.170952554e-05
0.5006473819 	0.08084005485 	-0.03394976693 	1.97062882e-08 	0.03214412139 	7.541145234e-08 	6.127562936e-05
0.501379227 	0.08034089629 	-0.03373373906 	1.653672772e-08 	0.03191308718 	8.193341333e-08 	6.083521395e-05
0.502124827 	0.07983186171 	-0.03351351843 	1.331556163e-08 	0.03167880166 	8.848460542e-08 	6.038860063e-05
0.5028844406 	0.07931294515 	-0.03328906843 	1.004544423e-08 	0.03144132964 	9.504668795e-08 	5.993591296e-05
0.5036583311 	0.07878390152 	-0.03306035429 	6.729281402e-09 	0.03120106891 	1.015945637e-07 	5.947790922e-05
0.5044467669 	0.078245472 	-0.03282758476 	3.373889951e-09 	0.03095765026 	1.081127604e-07 	5.901388563e-05
0.5052500214 	0.07769550575 	-0.03258965451 	-3.404488838e-11 	0.03071192285 	1.145624135e-07 	5.85454609e-05
0.506068373 	0.07706968635 	-0.0323195883 	-3.900294072e-09 	0.03043052047 	1.217363155e-07 	5.800902975e-05
0.507324668 	0.07628780602 	-0.03198224578 	-8.658420012e-09 	0.03008574888 	1.302255612e-07 	5.735179926e-05
0.5085949819 	0.07541917865 	-0.03160714473 	-1.383224853e-08 	0.02971333524 	1.389871974e-07 	5.664187536e-05
0.5098794711 	0.07454499896 	-0.03123027936 	-1.893938003e-08 	0.02934350769 	1.471607014e-07 	5.593688126e-05
0.5111782938 	0.07366221587 	-0.03085007095 	-2.399352024e-08 	0.02897795991 	1.546476389e-07 	5.524004559e-05
0.5124916099 	0.07277253386 	-0.03046713006 	-2.897474104e-08 	0.02861652615 	1.613878099e-07 	5.45510524e-05
0.5138195812 	0.07187606802 	-0.03008163714 	-3.387046564e-08 	0.02826026391 	1.673064094e-07 	5.387191755e-05
0.5151623712 	0.07097340658 	-0.02969378457 	-3.866858763e-08 	0.02790967416 	1.723425438e-07 	5.320359604e-05
0.5165201452 	0.0700650457 	-0.0293038136 	-4.335684165e-08 	0.0275654836 	1.764362275e-07 	5.254747318e-05
0.5178930705 	0.0691515125 	-0.02891192917 	-4.792459088e-08 	0.02722832393 	1.795353588e-07 	5.190475314e-05
0.5192813161 	0.06823334477 	-0.02851835452 	-5.236187548e-08 	0.02689885633 	1.81594357e-07 	5.127669631e-05
0.520685053 	0.06731108495 	-0.02812330238 	-5.666009876e-08 	0.02657771986 	1.82575911e-07 	5.066452095e-05
0.522104454 	0.0663852857 	-0.02772698669 	-6.0811879e-08 	0.02626554165 	1.82451473e-07 	5.006942251e-05
0.523539694 	0.06545650577 	-0.02732961655 	-6.481124544e-08 	0.0259629256 	1.812020181e-07 	4.949255221e-05
0.5249909497 	0.06452531093 	-0.02693139735 	-6.86536674e-08 	0.02567044796 	1.788185555e-07 	4.893500855e-05
0.5264583998 	0.06359227252 	-0.02653252901 	-7.233611762e-08 	0.02538865102 	1.753025095e-07 	4.839782526e-05
0.527942225 	0.06265796696 	-0.02613320536 	-7.585709347e-08 	0.02511803735 	1.706659193e-07 	4.788196038e-05
0.5294426081 	0.06172297489 	-0.02573361306 	-7.921662136e-08 	0.02485906426 	1.649314475e-07 	4.73882857e-05
0.5309597337 	0.06078788049 	-0.0253339307 	-8.241623604e-08 	0.02461213864 	1.5813219e-07 	4.691757684e-05
0.5324937889 	0.05985327082 	-0.02493432791 	-8.545893719e-08 	0.02437761228 	1.503112821e-07 	4.647050442e-05
0.5340449624 	0.05891973511 	-0.02453496456 	-8.834912411e-08 	0.02415577784 	1.415213047e-07 	4.60476263e-05
0.5356134452 	0.05798786418 	-0.02413598998 	-9.10925094e-08 	0.02394686546 	1.318235015e-07 	4.564938125e-05
0.5371994306 	0.05705824979 	-0.02373754227 	-9.369601406e-08 	0.02375104032 	1.212868225e-07 	4.527608411e-05
0.5388031139 	0.056131484 	-0.0233397478 	-9.616764594e-08 	0.02356840093 	1.099868157e-07 	4.492792267e-05
0.5404246925 	0.05520815853 	-0.02294272065 	-9.851636412e-08 	0.02339897844 	9.800439859e-08 	4.460495632e-05
0.5420643661 	0.0542888641 	-0.02254656231 	-1.007519325e-07 	0.02324273686 	8.542453706e-08 	4.430711644e-05
0.5437223366 	0.05337418968 	-0.02215136139 	-1.028847653e-07 	0.02309957423 	7.233487204e-08 	4.403420867e-05
0.5453988083 	0.05246472171 	-0.02175719353 	-1.049257679e-07 	0.0229693247 	5.882432808e-08 	4.378591687e-05
0.5470939875 	0.05156104329 	-0.02136412135 	-1.068861761e-07 	0.02285176151 	4.498174258e-08 	4.356180875e-05
0.5488080831 	0.05066373327 	-0.02097219458 	-1.087773966e-07 	0.02274660069 	3.089455079e-08 	4.3361343e-05
0.5505413061 	0.04977336529 	-0.02058145024 	-1.106108519e-07 	0.02265350551 	1.66475596e-08 	4.318387771e-05
0.5522938699 	0.04889050675 	-0.02019191298 	-1.123978321e-07 	0.02257209146 	2.321837782e-09 	4.302867991e-05
0.5540659904 	0.04801571781 	-0.01980359546 	-1.14149356e-07 	0.02250193175 	-1.200625413e-08 	4.2894936e-05
0.5558578859 	0.0471495503 	-0.01941649888 	-1.15876043e-07 	0.02244256303 	-2.62658777e-08 	4.278176272e-05
0.5576697768 	0.04629254658 	-0.01903061349 	-1.175879979e-07 	0.02239349145 	-4.03923638e-08 	4.268821865e-05
0.5595018865 	0.04544523856 	-0.01864591929 	-1.192947087e-07 	0.02235419865 	-5.432768921e-08 	4.261331566e-05
0.5613544406 	0.04460814659 	-0.01826238667 	-1.210049594e-07 	0.02232414781 	-6.80207845e-08 	4.255603039e-05
0.563227667 	0.04378177849 	-0.01787997718 	-1.22726757e-07 	0.02230278942 	-8.142768062e-08 	4.251531538e-05
0.5651217966 	0.04296662864 	-0.01749864422 	-1.244672732e-07 	0.02228956696 	-9.451150556e-08 	4.24901097e-05
0.5670370626 	0.04216317715 	-0.01711833393 	-1.262327995e-07 	0.02228392206 	-1.072423477e-07 	4.247934895e-05
0.5689737009 	0.04137188914 	-0.01673898585 	-1.28028718e-07 	0.02228529937 	-1.19597e-07 	4.248197447e-05
0.5709319499 	0.04059321415 	-0.01636053384 	-1.298594775e-07 	0.02229315093 	-1.315586148e-07 	4.249694172e-05
0.5729120508 	0.03982758568 	-0.01598290674 	-1.317286032e-07 	0.02230694008 	-1.431162546e-07 	4.252322769e-05
0.5749142474 	0.03907542083 	-0.01560602924 	-1.336386556e-07 	0.02232614487 	-1.542644611e-07 	4.255983735e-05
0.5769387863 	0.03833712014 	-0.01522982256 	-1.355913666e-07 	0.0223502609 	-1.650025674e-07 	4.260580922e-05
0.5789859169 	0.03761306756 	-0.01485420519 	-1.375873434e-07 	0.02237880374 	-1.753346809e-07 	4.266021979e-05
0.5810558911 	0.03690363037 	-0.01447909354 	-1.396268922e-07 	0.02241131097 	-1.852678207e-07 	4.27221876e-05
0.583148964 	0.03620915992 	-0.01410440265 	-1.417080512e-07 	0.02244734301 	-1.948151457e-07 	4.27908747e-05
0.5852653933 	0.0355299898 	-0.01373004564 	-1.438307834e-07 	0.02248648506 	-2.0398353e-07 	4.286549033e-05
0.5874054395 	0.03486644078 	-0.01335593755 	-1.459915799e-07 	0.02252834803 	-2.127938823e-07 	4.294529278e-05
0.5895693664 	0.03421882144 	-0.01298199534 	-1.481840957e-07 	0.02257256571 	-2.21271803e-07 	4.302958396e-05
0.5917574402 	0.03358742002 	-0.0126081322 	-1.504109371e-07 	0.02261879811 	-2.294195236e-07 	4.311771578e-05
0.5939699306 	0.03297251106 	-0.0122342632 	-1.526666223e-07 	0.02266673239 	-2.372622336e-07 	4.320909182e-05
0.5962071099 	0.03237435912 	-0.01186030702 	-1.549431499e-07 	0.0227160784 	-2.448261195e-07 	4.330315903e-05
0.5984692536 	0.03179321597 	-0.01148618339 	-1.572368039e-07 	0.02276656939 	-2.521250372e-07 	4.33994089e-05
0.6007566404 	0.03122932214 	-0.01111181467 	-1.595408685e-07 	0.0228179619 	-2.591805612e-07 	4.349737731e-05
0.6030695519 	0.03068290751 	-0.01073712571 	-1.61849438e-07 	0.02287003418 	-2.660115676e-07 	4.359664154e-05
0.6054082729 	0.03015419222 	-0.01036204425 	-1.641556991e-07 	0.0229225852 	-2.726370134e-07 	4.369681839e-05
0.6077730914 	0.02964338737 	-0.009986501083 	-1.664527293e-07 	0.0229754334 	-2.790745255e-07 	4.379756176e-05
0.6101642987 	0.02915069569 	-0.009610430216 	-1.687332409e-07 	0.02302841548 	-2.853407454e-07 	4.389856033e-05
0.6125821893 	0.02867631219 	-0.009233769042 	-1.709897453e-07 	0.02308138507 	-2.914510213e-07 	4.399953508e-05
0.6150270608 	0.02822042471 	-0.008856458438 	-1.732145504e-07 	0.02313421139 	-2.974193498e-07 	4.410023673e-05
0.6174992144 	0.02778321443 	-0.008478442841 	-1.753998195e-07 	0.02318677797 	-3.032582514e-07 	4.420044325e-05
0.6199989545 	0.02736485625 	-0.008099670306 	-1.775376053e-07 	0.02323898129 	-3.089787013e-07 	4.429995729e-05
0.622526589 	0.02696551918 	-0.007720092522 	-1.796198919e-07 	0.02329072945 	-3.145900694e-07 	4.439860365e-05
0.625082429 	0.02658536654 	-0.007339664813 	-1.816386322e-07 	0.02334194085 	-3.201000837e-07 	4.449622682e-05
0.6276667894 	0.02622455615 	-0.006958346105 	-1.835857852e-07 	0.02339254298 	-3.255148094e-07 	4.459268854e-05
0.6302799884 	0.02588324046 	-0.006576098874 	-1.854533523e-07 	0.02344247111 	-3.308386455e-07 	4.468786544e-05
0.6329223478 	0.02556156652 	-0.006192889064 	-1.872334126e-07 	0.02349166712 	-3.360743366e-07 	4.47816467e-05
0.6355941931 	0.02525967599 	-0.005808685983 	-1.889181562e-07 	0.02354007832 	-3.412229994e-07 	4.48739319e-05
0.6382958531 	0.02497770505 	-0.005423462183 	-1.904999177e-07 	0.02358765635 	-3.462841628e-07 	4.496462884e-05
0.6410276607 	0.02471578425 	-0.005037193306 	-1.91971207e-07 	0.0236343561 	-3.512558214e-07 	4.505365156e-05
0.6437899523 	0.02447403838 	-0.004649857918 	-1.933247396e-07 	0.02368013474 	-3.561344989e-07 	4.514091837e-05
0.646583068 	0.02425258631 	-0.004261437317 	-1.94553465e-07 	0.02372495072 	-3.609153269e-07 	4.522635007e-05
0.6494073518 	0.0240515408 	-0.003871915325 	-1.956505929e-07 	0.02376876291 	-3.655921233e-07 	4.530986829e-05
0.6522631514 	0.0238710084 	-0.003481278059 	-1.966096193e-07 	0.02381152978 	-3.701575022e-07 	4.539139384e-05
0.6551508186 	0.02371108931 	-0.00308951367 	-1.97424342e-07 	0.02385320864 	-3.746029441e-07 	4.547084533e-05
0.658070709 	0.02357187734 	-0.00269661212 	-1.980889013e-07 	0.02389375495 	-3.789189576e-07 	4.554813787e-05
0.6610231822 	0.0234534599 	-0.002302564752 	-1.985977522e-07 	0.02393312169 	-3.83095075e-07 	4.56231818e-05
0.6640086017 	0.02335591824 	-0.001907364529 	-1.989457851e-07 	0.0239712588 	-3.871198965e-07 	4.569588173e-05
0.6670273351 	0.02327932744 	-0.001511005399 	-1.99128448e-07 	0.02400811285 	-3.909813892e-07 	4.576613581e-05
0.6700797543 	0.02322375655 	-0.001113481185 	-1.991412756e-07 	0.02404362669 	-3.946681167e-07 	4.583383506e-05
0.6731662352 	0.02318926941 	-0.0007147856225 	-1.989804356e-07 	0.02407773861 	-3.981651803e-07 	4.589886185e-05
0.6762871577 	0.02317592545 	-0.0003149160263 	-1.986396727e-07 	0.02411038147 	-4.01462061e-07 	4.596108822e-05
0.6794429063 	0.02318377888 	8.613360317e-05 	-1.98119121e-07 	0.024141487 	-4.045464203e-07 	4.6020384e-05
0.6826338695 	0.02321288085 	0.0004883779648 	-1.974211345e-07 	0.02417098067 	-4.073991893e-07 	4.607660713e-05
0.6858604404 	0.02326328191 	0.0008918259545 	-1.965361552e-07 	0.02419877936 	-4.100115723e-07 	4.612959916e-05
0.6891230163 	0.02333503005 	0.001296483892 	-1.954608704e-07 	0.0242248005 	-4.123705954e-07 	4.617920268e-05
0.6924219988 	0.02342817328 	0.001702364133 	-1.941969831e-07 	0.0242489563 	-4.144604225e-07 	4.622525035e-05
0.6957577944 	0.0235427619 	0.002109481531 	-1.927422017e-07 	0.02427115269 	-4.162697821e-07 	4.626756284e-05
0.6991308138 	0.02367884893 	0.002517853878 	-1.910957063e-07 	0.02429129331 	-4.177855445e-07 	4.630595646e-05
0.7025414724 	0.02383649247 	0.00292750228 	-1.892566239e-07 	0.0243092779 	-4.189956271e-07 	4.634024009e-05
0.7059901901 	0.02401575737 	0.00333845163 	-1.872244009e-07 	0.02432500343 	-4.198880287e-07 	4.637021732e-05
0.7094773917 	0.02421671735 	0.00375073103 	-1.849986561e-07 	0.02433836441 	-4.204512666e-07 	4.639568706e-05
0.7130035066 	0.02443945711 	0.004164374257 	-1.825791662e-07 	0.02434925369 	-4.206742031e-07 	4.641644506e-05
0.7165689691 	0.02468407461 	0.004579420234 	-1.799658151e-07 	0.02435756321 	-4.205460991e-07 	4.643228532e-05
0.7201742182 	0.02495068345 	0.004995913488 	-1.771585478e-07 	0.02436318484 	-4.200565561e-07 	4.64430017e-05
0.7238196978 	0.02523941572 	0.005413904784 	-1.741573179e-07 	0.02436601069 	-4.191954977e-07 	4.644838856e-05
0.727505857 	0.02555042423 	0.005833451115 	-1.709620459e-07 	0.02436593444 	-4.179530953e-07 	4.64482432e-05
0.7312331497 	0.0258838856 	0.006254618146 	-1.675725175e-07 	0.02436285481 	-4.163197475e-07 	4.644237257e-05
0.7350020349 	0.02623900043 	0.006676353677 	-1.639981736e-07 	0.02435670629 	-4.142916365e-07 	4.643065178e-05
0.7387709215 	0.02661255187 	0.007095189748 	-1.602719611e-07 	0.02434752663 	-4.118839638e-07 	4.641315281e-05
0.7424982157 	0.02700080695 	0.007507775431 	-1.564310628e-07 	0.02433544831 	-4.091251454e-07 	4.639012816e-05
0.7461843763 	0.02740193755 	0.007913267364 	-1.524932169e-07 	0.02432061523 	-4.06036618e-07 	4.63618522e-05
0.7498298574 	0.02781512364 	0.008311921849 	-1.484659532e-07 	0.02430316627 	-4.02632821e-07 	4.632858962e-05
0.7534351078 	0.0282396123 	0.008703988453 	-1.443560472e-07 	0.02428324634 	-3.989272249e-07 	4.629061671e-05
0.7570005716 	0.02867471111 	0.009089708079 	-1.401696368e-07 	0.0242610042 	-3.949325246e-07 	4.624821701e-05
0.7605266877 	0.02911978333 	0.009469313839 	-1.3591226e-07 	0.02423659195 	-3.906605966e-07 	4.620168047e-05
0.7640138905 	0.02957424258 	0.009843031205 	-1.315889175e-07 	0.0242101655 	-3.861224717e-07 	4.61513043e-05
0.7674626093 	0.03003754835 	0.01021107829 	-1.27204127e-07 	0.02418188435 	-3.813283344e-07 	4.609739258e-05
0.770873269 	0.03050920175 	0.01057366614 	-1.227619807e-07 	0.02415191148 	-3.762875286e-07 	4.604025596e-05
0.7742462894 	0.03098874167 	0.0109309989 	-1.182661821e-07 	0.0241204131 	-3.710085794e-07 	4.59802113e-05
0.777582086 	0.03147574137 	0.01128327423 	-1.137201669e-07 	0.02408755854 	-3.654992019e-07 	4.591758137e-05
0.7808810695 	0.03196980484 	0.0116306832 	-1.091272175e-07 	0.02405352012 	-3.597662758e-07 	4.585269469e-05
0.7841436462 	0.03247056407 	0.01197341067 	-1.044900914e-07 	0.02401847306 	-3.538161563e-07 	4.578588524e-05
0.787370218 	0.03297767701 	0.01231163611 	-9.981113793e-08 	0.02398259518 	-3.476545547e-07 	4.571749204e-05
0.7905611821 	0.03349082453 	0.01264553326 	-9.509300503e-08 	0.02394606694 	-3.412863275e-07 	4.564785904e-05
0.7937169314 	0.03400970782 	0.01297527018 	-9.033828005e-08 	0.02390907136 	-3.347157954e-07 	4.557733519e-05
0.7968378547 	0.0345340467 	0.01330100965 	-8.554927182e-08 	0.02387179393 	-3.279467763e-07 	4.550627406e-05
0.7999243362 	0.03506357767 	0.01362290933 	-8.072830066e-08 	0.0238344225 	-3.209826022e-07 	4.543503371e-05
0.8029767561 	0.03559805218 	0.01394112196 	-7.587766386e-08 	0.02379714711 	-3.138261913e-07 	4.536397646e-05
0.8059954902 	0.03613723506 	0.01425579547 	-7.099968139e-08 	0.02376015997 	-3.064800912e-07 	4.529346869e-05
0.8089809102 	0.03668090313 	0.01456707317 	-6.609672101e-08 	0.02372365526 	-2.989465496e-07 	4.522388057e-05
0.8119333839 	0.03722884383 	0.01487509385 	-6.117122506e-08 	0.02368782905 	-2.91227576e-07 	4.515558586e-05
0.8148532749 	0.03778085408 	0.0151799919 	-5.622573488e-08 	0.0236528791 	-2.833250109e-07 	4.508896154e-05
0.8177409426 	0.03833673916 	0.01548189744 	-5.126291322e-08 	0.0236190047 	-2.752405941e-07 	4.502438753e-05
0.8205967427 	0.03889631177 	0.01578093639 	-4.628556535e-08 	0.0235864065 	-2.669760368e-07 	4.496224629e-05
0.8234210268 	0.03945939108 	0.01607723057 	-4.129665789e-08 	0.02355528622 	-2.58533095e-07 	4.490292238e-05
0.8262141429 	0.04002580197 	0.01637089776 	-3.629933612e-08 	0.02352584646 	-2.499136436e-07 	4.484680203e-05
0.8289764348 	0.04059537425 	0.01666205178 	-3.12969395e-08 	0.02349829042 	-2.411197528e-07 	4.479427255e-05
0.8317082427 	0.041167942 	0.01695080249 	-2.62930151e-08 	0.02347282153 	-2.321537646e-07 	4.474572178e-05
0.8344099031 	0.04174334299 	0.01723725591 	-2.129132943e-08 	0.0234496432 	-2.230183699e-07 	4.470153742e-05
0.8370817486 	0.04232141811 	0.01752151416 	-1.629587822e-08 	0.02342895835 	-2.137166852e-07 	4.466210636e-05
0.8397241082 	0.04290201087 	0.01780367556 	-1.131089426e-08 	0.0234109691 	-2.042523289e-07 	4.462781384e-05
0.8423373074 	0.04348496699 	0.01808383457 	-6.340853234e-09 	0.02339587625 	-1.946294959e-07 	4.459904269e-05
0.844921668 	0.044070134 	0.01836208185 	-1.390477345e-09 	0.02338387889 	-1.848530304e-07 	4.457617237e-05
0.8474775082 	0.04465736085 	0.01863850423 	3.535263096e-09 	0.02337517381 	-1.749284951e-07 	4.455957808e-05
0.8500051427 	0.04524649766 	0.01891318468 	8.431150317e-09 	0.02336995505 	-1.648622381e-07 	4.454962967e-05
0.8525048829 	0.04583739539 	0.01918620236 	1.329172205e-08 	0.02336841329 	-1.546614539e-07 	4.454669064e-05
0.8549770366 	0.04642990563 	0.0194576325 	1.811127691e-08 	0.02337073527 	-1.443342396e-07 	4.455111698e-05
0.8574219081 	0.04702388039 	0.01972754647 	2.288388201e-08 	0.0233771032 	-1.338896453e-07 	4.456325603e-05
0.8598397987 	0.0476191719 	0.0199960117 	2.76033831e-08 	0.02338769411 	-1.233377161e-07 	4.458344525e-05
0.862231006 	0.04821563249 	0.02026309165 	3.226341713e-08 	0.02340267921 	-1.126895273e-07 	4.461201101e-05
0.8645958245 	0.04881311443 	0.02052884582 	3.685742741e-08 	0.02342222323 	-1.0195721e-07 	4.464926734e-05
0.8669345455 	0.04941146985 	0.02079332965 	4.137868111e-08 	0.02344648374 	-9.115396665e-08 	4.469551461e-05
0.8692474569 	0.05001055061 	0.02105659457 	4.5820289e-08 	0.02347561049 	-8.029407752e-08 	4.47510383e-05
0.8715348435 	0.05061020829 	0.02131868791 	5.017522815e-08 	0.02350974475 	-6.939289372e-08 	4.48161077e-05
0.8737969871 	0.05121029411 	0.0215796529 	5.443636672e-08 	0.02354901863 	-5.846682174e-08 	4.489097462e-05
0.8760341663 	0.05181065889 	0.02183952863 	5.859648805e-08 	0.02359355443 	-4.753328987e-08 	4.497587223e-05
0.8782466565 	0.05241115302 	0.02209835008 	6.264833344e-08 	0.02364346401 	-3.661071324e-08 	4.507101377e-05
0.8804347301 	0.05301162648 	0.02235614806 	6.658458446e-08 	0.02369884824 	-2.571844982e-08 	4.51765915e-05
0.8825986568 	0.05361192878 	0.02261294921 	7.039805727e-08 	0.02375979631 	-1.487669868e-08 	4.529277546e-05
0.8847387028 	0.05421190905 	0.02286877604 	7.408122578e-08 	0.02382638536 	-4.106661439e-09 	4.54197127e-05
0.8868551318 	0.05481141605 	0.02312364685 	7.762764898e-08 	0.02389867966 	6.570743547e-09 	4.555752573e-05
0.8889482045 	0.05541029767 	0.02337757581 	8.102804419e-08 	0.023976731 	1.713207325e-08 	4.570631328e-05
0.8910181784 	0.05600840216 	0.02363057314 	8.428008095e-08 	0.0240605771 	2.756276931e-08 	4.586614725e-05
0.8930653087 	0.05660557056 	0.0238826424 	8.736408883e-08 	0.02415024535 	3.782194592e-08 	4.603707985e-05
0.8950898473 	0.05720165271 	0.02413378576 	9.028270655e-08 	0.02424574378 	4.789621044e-08 	4.621912641e-05
0.8970920436 	0.05779650918 	0.02438400746 	9.305749703e-08 	0.02434706175 	5.778369812e-08 	4.641226661e-05
0.8990721441 	0.05838998219 	0.02463330117 	9.56550082e-08 	0.02445418586 	6.741759054e-08 	4.661647494e-05
0.9010303927 	0.05898191375 	0.02488165376 	9.806171293e-08 	0.02456708342 	7.679113012e-08 	4.683168906e-05
0.9029670306 	0.05957215258 	0.02512905292 	1.002805734e-07 	0.02468570498 	8.590124174e-08 	4.705781473e-05
0.9048822962 	0.06016054398 	0.02537548195 	1.023026957e-07 	0.02480999098 	9.47077926e-08 	4.729473839e-05
0.9067764254 	0.06074693486 	0.02562092034 	1.041274772e-07 	0.02493986489 	1.031927782e-07 	4.754231415e-05
0.9086496514 	0.06133117203 	0.02586534451 	1.057507591e-07 	0.02507523711 	1.113338983e-07 	4.780037124e-05
0.910502205 	0.0619131025 	0.02610872748 	1.071702019e-07 	0.02521600417 	1.191116864e-07 	4.806871238e-05
0.9123343142 	0.06249257355 	0.02635103932 	1.083832225e-07 	0.02536204951 	1.265070194e-07 	4.834711538e-05
0.9141462048 	0.06306943281 	0.0265922471 	1.093878996e-07 	0.02551324378 	1.33502124e-07 	4.863533369e-05
0.9159380997 	0.0636435284 	0.02683231516 	1.101827078e-07 	0.02566944545 	1.400805133e-07 	4.893309748e-05
0.9177102197 	0.06421470896 	0.02707120525 	1.107666632e-07 	0.02583050132 	1.462271492e-07 	4.924011474e-05
0.9194627831 	0.06478282381 	0.0273088767 	1.111393189e-07 	0.02599624722 	1.519285163e-07 	4.955607249e-05
0.9211960055 	0.06534772307 	0.02754528659 	1.113008105e-07 	0.02616650865 	1.57172735e-07 	4.988063808e-05
0.9229101006 	0.06590925763 	0.02778038992 	1.112518838e-07 	0.02634110157 	1.619495614e-07 	5.021346073e-05
0.9246052793 	0.0664672796 	0.02801413995 	1.109938537e-07 	0.02651983319 	1.662505087e-07 	5.055417286e-05
0.9262817504 	0.06702164128 	0.02824648775 	1.105292384e-07 	0.02670250292 	1.700689965e-07 	5.090239214e-05
0.9279397204 	0.067572196 	0.02847738273 	1.098607877e-07 	0.02688890307 	1.733999949e-07 	5.125772264e-05
0.9295793934 	0.06811880057 	0.02870677409 	1.089910788e-07 	0.02707881904 	1.762404155e-07 	5.161975525e-05
0.9312009714 	0.06866131296 	0.02893460969 	1.079238295e-07 	0.02727203085 	1.785892648e-07 	5.198807068e-05
0.9328046541 	0.06919959179 	0.02916083591 	1.066635809e-07 	0.02746831423 	1.804472638e-07 	5.236224135e-05
0.9343906389 	0.06973349762 	0.02938539846 	1.052153896e-07 	0.02766744115 	1.818169423e-07 	5.274183259e-05