0.4709558481 	0.07935070056 	-4.80028055e-06 	1.054309116e-11
0.4709558481 	0.07935070056 	-4.80028055e-06 	1.054309116e-11
0.4711314108 	0.2181110607 	-3.305822511e-05 	4.586512687e-11
0.4713069734 	0.4349814009 	-9.678625908e-05 	7.149754646e-11
0.471482536 	0.6465969764 	-7.624119973e-05 	-6.99043544e-11
0.4716580986 	0.844385069 	7.354755418e-05 	-2.636492283e-10
0.4718336613 	1.018888439 	0.0001481813237 	-2.454340543e-10
0.4720092239 	1.165740254 	7.126450874e-05 	-1.608399688e-10
0.4721847865 	1.286734519 	-8.122619088e-06 	-2.049529706e-10
0.4723603491 	1.386486109 	-2.502224025e-05 	-3.02608532e-10
0.4725359118 	1.469625896 	-1.673558473e-05 	-3.831844284e-10
0.4727114744 	1.539886388 	-7.879828233e-06 	-4.507225011e-10
0.472887037 	1.600088999 	-2.453451597e-06 	-5.1479164e-10
0.4730625996 	1.652335681 	6.681774026e-07 	-5.788206087e-10
0.4732381623 	1.698198407 	2.628380291e-06 	-6.434377277e-10
0.4734137249 	1.738866213 	4.000521963e-06 	-7.086040512e-10
0.4735892875 	1.775251059 	5.050565202e-06 	-7.742294087e-10
0.4737648501 	1.80806242 	5.91375629e-06 	-8.402519751e-10
0.4739404128 	1.837859802 	6.666072073e-06 	-9.066287874e-10
0.4741159754 	1.865090062 	7.351917627e-06 	-9.733263407e-10
0.474291538 	1.890114255 	7.997557427e-06 	-1.04031711e-09
0.4744671006 	1.913227238 	8.618609673e-06 	-1.107577925e-09
0.4746426632 	1.93467217 	9.224933943e-06 	-1.175088911e-09
0.4748182259 	1.954651394 	9.821597037e-06 	-1.242832333e-09
0.4749937885 	1.973334701 	1.041563329e-05 	-1.310792561e-09
0.4751693511 	1.990865682 	1.100095801e-05 	-1.378953962e-09
0.4753449137 	2.00736664 	1.160472882e-05 	-1.44730474e-09
0.4755204764 	2.022942467 	1.215943752e-05 	-1.515823639e-09
0.475696039 	2.037683699 	1.281430312e-05 	-1.584509855e-09
0.4758716016 	2.051668718 	1.322223068e-05 	-1.653314554e-09
0.4760471642 	2.064966998 	1.395641915e-05 	-1.722333627e-09
0.4762227269 	2.079347392 	1.515958597e-05 	-1.801118037e-09
0.4764955107 	2.096277832 	1.530877642e-05 	-1.899500341e-09
0.4767734216 	2.11392263 	1.61372291e-05 	-2.009306203e-09
0.4770565557 	2.130755103 	1.751057499e-05 	-2.121527496e-09
0.4773450114 	2.146850365 	1.836895837e-05 	-2.235957162e-09
0.4776388886 	2.16227614 	1.947084282e-05 	-2.352725115e-09
0.4779382892 	2.177091426 	2.050148081e-05 	-2.471809014e-09
0.4782433171 	2.191348291 	2.160120062e-05 	-2.593251133e-09
0.4785540779 	2.205092886 	2.271528621e-05 	-2.717064936e-09
0.4788706795 	2.218366259 	2.386328188e-05 	-2.843276356e-09
0.4791932316 	2.231205097 	2.503917383e-05 	-2.971909187e-09
0.4795218461 	2.243642298 	2.624599315e-05 	-3.102990489e-09
0.4798566368 	2.255707479 	2.748390748e-05 	-3.236548704e-09
0.48019772 	2.26742739 	2.875392275e-05 	-3.372614305e-09
0.4805452138 	2.278826273 	3.005681075e-05 	-3.5112197e-09
0.4808992388 	2.289926159 	3.139340991e-05 	-3.652399335e-09
0.4812599177 	2.300747134 	3.27645642e-05 	-3.796189769e-09
0.4816273755 	2.311307554 	3.417113298e-05 	-3.942629776e-09
0.4820017397 	2.32162424 	3.56139943e-05 	-4.091760396e-09
0.48238314 	2.331712642 	3.709404357e-05 	-4.243625039e-09
0.4827717088 	2.341586983 	3.861219618e-05 	-4.398269585e-09
0.4831675807 	2.35126038 	4.016938797e-05 	-4.555742456e-09
0.4835708931 	2.36074496 	4.17665766e-05 	-4.716094717e-09
0.4839817856 	2.37005195 	4.340474247e-05 	-4.879380174e-09
0.4844004009 	2.379191761 	4.508488987e-05 	-5.045655464e-09
0.4848268841 	2.388174066 	4.680804806e-05 	-5.214980143e-09
0.485261383 	2.39700786 	4.857527237e-05 	-5.387416792e-09
0.4857040484 	2.405701522 	5.038764538e-05 	-5.563031097e-09
0.4861550336 	2.414262864 	5.224627809e-05 	-5.741891933e-09
0.4866144951 	2.422699178 	5.415231116e-05 	-5.924071463e-09
0.4870825921 	2.431017276 	5.610691618e-05 	-6.109645206e-09
0.487559487 	2.439223527 	5.811129695e-05 	-6.298692107e-09
0.4880453452 	2.44732389 	6.016669084e-05 	-6.491294618e-09
0.4885403351 	2.455323942 	6.227437013e-05 	-6.687538739e-09
0.4890446283 	2.463228906 	6.443564341e-05 	-6.88751408e-09
0.4895583997 	2.471043673 	6.665185695e-05 	-7.091313889e-09
0.4900818274 	2.478772829 	6.892439611e-05 	-7.299035072e-09
0.4906150929 	2.486420666 	7.125468674e-05 	-7.510778207e-09
0.4911583811 	2.493991206 	7.364419651e-05 	-7.726647526e-09
0.4917118805 	2.501488217 	7.609443621e-05 	-7.946750879e-09
0.4922757829 	2.508915224 	7.860696105e-05 	-8.171199678e-09
0.4928502838 	2.516275526 	8.118337175e-05 	-8.400108811e-09
0.4934355824 	2.523572207 	8.382531559e-05 	-8.63359652e-09
0.4940318817 	2.530808148 	8.653448728e-05 	-8.871784254e-09
0.4946393885 	2.537986038 	8.931262968e-05 	-9.114796469e-09
0.4952583133 	2.545108381 	9.216153417e-05 	-9.3627604e-09
0.4958888709 	2.552177509 	9.508304102e-05 	-9.615805775e-09
0.4965312797 	2.559195586 	9.807903899e-05 	-9.874064477e-09
0.4971857627 	2.566164623 	0.0001011514644 	-1.013767015e-08
0.4978525466 	2.573086476 	0.0001043023043 	-1.040675777e-08
0.4985318627 	2.579962861 	0.0001075335731 	-1.068146308e-08
0.4992239466 	2.586795358 	0.0001108473934 	-1.096192204e-08
0.4999290382 	2.593585416 	0.0001142457175 	-1.124827024e-08
0.5006473819 	2.600334359 	0.0001177312399 	-1.154064192e-08
0.501379227 	2.607043396 	0.0001213047371 	-1.18391696e-08
0.502124827 	2.613713619 	0.0001249724393 	-1.214398174e-08
0.5028844406 	2.620346015 	0.0001287257697 	-1.245520142e-08
0.5036583311 	2.626941471 	0.0001325890418 	-1.277295002e-08
0.5044467669 	2.633500742 	0.0001365125037 	-1.309733379e-08
0.5052500214 	2.640024652 	0.0001405875547 	-1.342856752e-08
0.506068373 	2.647338243 	0.0001453628564 	-1.381023266e-08
0.507324668 	2.656178666 	0.0001511396689 	-1.428642104e-08
0.5085949819 	2.665614804 	0.0001576825467 	-1.481316334e-08
0.5098794711 	2.67483477 	0.0001644404807 	-1.534675213e-08
0.5111782938 	2.683850806 	0.0001712399951 	-1.588672425e-08
0.5124916099 	2.69267438 	0.0001782080661 	-1.643283421e-08
0.5138195812 	2.701315833 	0.0001852897805 	-1.698471921e-08
0.5151623712 	2.70978458 	0.0001925110533 	-1.754200082e-08
0.5165201452 	2.718089195 	0.0001998604532 	-1.810424639e-08
0.5178930705 	2.726237483 	0.000207340992 	-1.867098587e-08
0.5192813161 	2.734236551 	0.000214950028 	-1.924170823e-08
0.520685053 	2.742092868 	0.0002226865734 	-1.981586353e-08
0.522104454 	2.749812321 	0.0002305486142 	-2.039286254e-08
0.523539694 	2.757400258 	0.0002385339294 	-2.097207686e-08
0.5249909497 	2.764861529 	0.000246639793 	-2.155283866e-08
0.5264583998 	2.772200528 	0.0002548630122 	-2.213444025e-08
0.527942225 	2.779421221 	0.0002631998741 	-2.271613354e-08
0.5294426081 	2.786527177 	0.00027164611 	-2.32971293e-08
0.5309597337 	2.793521596 	0.0002801968584 	-2.387659638e-08
0.5324937889 	2.800407329 	0.0002888466261 	-2.445366079e-08
0.5340449624 	2.807186906 	0.0002975892505 	-2.502740482e-08
0.5356134452 	2.813862547 	0.0003064178616 	-2.559686613e-08
0.5371994306 	2.82043619 	0.0003153248444 	-2.616103694e-08
0.5388031139 	2.826909497 	0.000324301802 	-2.671886336e-08
0.5404246925 	2.833283878 	0.0003333395197 	-2.726924489e-08
0.5420643661 	2.839560499 	0.0003424279309 	-2.781103425e-08
0.5437223366 	2.845740299 	0.0003515560842 	-2.834303748e-08
0.5453988083 	2.851824001 	0.000360712114 	-2.886401461e-08
0.5470939875 	2.857812123 	0.0003698832129 	-2.93726807e-08
0.5488080831 	2.863704992 	0.0003790556093 	-2.986770757e-08
0.5505413061 	2.869502754 	0.0003882145487 	-3.034772628e-08
0.5522938699 	2.875205384 	0.0003973442801 	-3.081133029e-08
0.5540659904 	2.8808127 	0.0004064280497 	-3.125707953e-08
0.5558578859 	2.88632437 	0.0004154481009 	-3.168350549e-08
0.5576697768 	2.891739929 	0.0004243856824 	-3.208911716e-08
0.5595018865 	2.897058786 	0.0004332210658 	-3.247240821e-08
0.5613544406 	2.90228024 	0.0004419335726 	-3.283186507e-08
0.563227667 	2.907403489 	0.0004505016128 	-3.316597622e-08
0.5651217966 	2.912427646 	0.0004589027343 	-3.347324252e-08
0.5670370626 	2.917351751 	0.0004671136853 	-3.375218849e-08
0.5689737009 	2.922174787 	0.0004751104896 	-3.40013746e-08
0.5709319499 	2.926895694 	0.000482868535 	-3.421941029e-08
0.5729120508 	2.931513384 	0.0004903626762 	-3.440496757e-08
0.5749142474 	2.936026756 	0.0004975673487 	-3.455679539e-08
0.5769387863 	2.940434715 	0.0005044567012 	-3.467373338e-08
0.5789859169 	2.944736186 	0.0005110047358 	-3.475472564e-08
0.5810558911 	2.948930131 	0.0005171854521 	-3.47988366e-08
0.583148964 	2.953015566 	0.0005229730185 	-3.480526278e-08
0.5852653933 	2.956991578 	0.0005283419449 	-3.477334447e-08
0.5874054395 	2.960857338 	0.0005332672449 	-3.470257774e-08
0.5895693664 	2.964612117 	0.0005377246181 	-3.459262406e-08
0.5917574402 	2.968255299 	0.0005416906355 	-3.444332002e-08
0.5939699306 	2.971786394 	0.0005451429096 	-3.425468294e-08
0.5962071099 	2.975205046 	0.0005480602672 	-3.402691504e-08
0.5984692536 	2.978511041 	0.0005504229286 	-3.376040727e-08
0.6007566404 	2.981704318 	0.0005522126764 	-3.345573523e-08
0.6030695519 	2.984784968 	0.0005534130136 	-3.311365057e-08
0.6054082729 	2.987753244 	0.000554009307 	-3.273506317e-08
0.6077730914 	2.990609556 	0.0005539889068 	-3.232103744e-08
0.6101642987 	2.99335447 	0.0005533412404 	-3.187274186e-08
0.6125821893 	2.995988707 	0.0005520578671 	-3.139152466e-08
0.6150270608 	2.998513131 	0.0005501326114 	-3.087862162e-08
0.6174992144 	3.00092874 	0.0005475613411 	-3.033570997e-08
0.6199989545 	3.003236657 	0.0005443422444 	-2.976434507e-08
0.622526589 	3.005438112 	0.0005404758028 	-2.916594136e-08
0.625082429 	3.007534432 	0.0005359645139 	-2.85423058e-08
0.6276667894 	3.009527021 	0.000530813089 	-2.789505651e-08
0.6302799884 	3.011417344 	0.0005250282851 	-2.722587541e-08
0.6329223478 	3.01320691 	0.0005186188483 	-2.653640084e-08
0.6355941931 	3.014897251 	0.0005115954132 	-2.582824953e-08
0.6382958531 	3.016489906 	0.0005039704045 	-2.510298635e-08
0.6410276607 	3.017986398 	0.0004957579272 	-2.436211686e-08
0.6437899523 	3.019388219 	0.0004869736517 	-2.360707433e-08
0.646583068 	3.020696811 	0.000477634696 	-2.283921141e-08
0.6494073518 	3.021913547 	0.0004677595068 	-2.205979245e-08
0.6522631514 	3.023039715 	0.0004573677419 	-2.126998772e-08
0.6551508186 	3.024076499 	0.0004464801544 	-2.047086921e-08
0.658070709 	3.025024968 	0.0004351184812 	-1.966340781e-08
0.6610231822 	3.025886059 	0.0004233053366 	-1.884847177e-08
0.6640086017 	3.026660563 	0.0004110641114 	-1.802682647e-08
0.6670273351 	3.027349113 	0.0003984188781 	-1.719913488e-08
0.6700797543 	3.027952173 	0.0003853943039 	-1.636596006e-08
0.6731662352 	3.028470023 	0.0003720155695 	-1.552776547e-08
0.6762871577 	3.028902757 	0.0003583082976 	-1.468492365e-08
0.6794429063 	3.029250263 	0.0003442984815 	-1.383770515e-08
0.6826338695 	3.029512224 	0.0003300124374 	-1.298631875e-08
0.6858604404 	3.029688102 	0.000315476714 	-1.213082577e-08
0.6891230163 	3.029777136 	0.00030071815 	-1.127140605e-08
0.6924219988 	3.029778333 	0.0002857637017 	-1.040779216e-08
0.6957577944 	3.029690457 	0.0002706404219 	-9.539999386e-09
0.6991308138 	3.029512028 	0.000255375598 	-8.668000835e-09
0.7025414724 	3.029241313 	0.0002399965517 	-7.791362196e-09
0.7059901901 	3.028876319 	0.0002245306678 	-6.909971408e-09
0.7094773917 	3.028414786 	0.0002090054235 	-6.023498166e-09
0.7130035066 	3.027854184 	0.0001934483535 	-5.131650891e-09
0.7165689691 	3.027191699 	0.000177887047 	-4.234098494e-09
0.7201742182 	3.02642423 	0.0001623491632 	-3.330517451e-09
0.7238196978 	3.025548381 	0.0001468624529 	-2.420587823e-09
0.727505857 	3.024560448 	0.0001314550733 	-1.504006768e-09
0.7312331497 	3.023456411 	0.0001161555886 	-5.805023848e-10
0.7350020349 	3.022235317 	0.0001010318986 	3.47660354e-10
0.7387709215 	3.020905184 	8.62335589e-05 	1.272742827e-09
0.7424982157 	3.019477495 	7.189796245e-05 	2.187039744e-09
0.7461843763 	3.017957868 	5.806814813e-05 	3.088255598e-09
0.7498298574 	3.016348378 	4.474617212e-05 	3.976468695e-09
0.7534351078 	3.014650963 	3.193225324e-05 	4.851664018e-09
0.7570005716 	3.01286744 	1.962494562e-05 	5.713742016e-09
0.7605266877 	3.010999521 	7.821607979e-06 	6.562530543e-09
0.7640138905 	3.009048821 	-3.481451536e-06 	7.397787369e-09
0.7674626093 	3.007016871 	-1.428882904e-05 	8.21921225e-09
0.770873269 	3.004905121 	-2.460592993e-05 	9.026453564e-09
0.7742462894 	3.002714949 	-3.4438869e-05 	9.81910901e-09
0.777582086 	3.000447666 	-4.379438111e-05 	1.059673565e-08
0.7808810695 	2.998104517 	-5.267974584e-05 	1.135885569e-08
0.7841436462 	2.995686688 	-6.110272118e-05 	1.210496074e-08
0.787370218 	2.993195306 	-6.907148427e-05 	1.283451783e-08
0.7905611821 	2.990631441 	-7.659458001e-05 	1.354697411e-08
0.7937169314 	2.987996108 	-8.368087561e-05 	1.424176198e-08
0.7968378547 	2.985290271 	-9.033952059e-05 	1.491830369e-08
0.7999243362 	2.982514842 	-9.657991141e-05 	1.557601612e-08
0.8029767561 	2.979670681 	-0.0001024116601 	1.621431522e-08
0.8059954902 	2.9767586 	-0.0001078445662 	1.683262065e-08
0.8089809102 	2.973779365 	-0.0001128885916 	1.743036019e-08
0.8119333839 	2.970733693 	-0.0001175538378 	1.800697419e-08
0.8148532749 	2.967622256 	-0.0001218505249 	1.856191994e-08
0.8177409426 	2.964445683 	-0.0001257889724 	1.909467601e-08
0.8205967427 	2.961204561 	-0.0001293795816 	1.960474646e-08
0.8234210268 	2.957899431 	-0.0001326328182 	2.009166493e-08
0.8262141429 	2.9545308 	-0.0001355591965 	2.055499863e-08
0.8289764348 	2.951099131 	-0.0001381692637 	2.099435208e-08
0.8317082427 	2.947604852 	-0.0001404735852 	2.140937066e-08
0.8344099031 	2.944048355 	-0.0001424827297 	2.17997439e-08
0.8370817486 	2.940429995 	-0.0001442072551 	2.216520846e-08
0.8397241082 	2.936750097 	-0.0001456576942 	2.250555077e-08
0.8423373074 	2.933008952 	-0.000146844541 	2.28206095e-08
0.844921668 	2.929206818 	-0.0001477782365 	2.311027703e-08
0.8474775082 	2.925343927 	-0.0001484691562 	2.337450161e-08
0.8500051427 	2.921420482 	-0.0001489275954 	2.361328411e-08
0.8525048829 	2.917436656 	-0.0001491637632 	2.382668626e-08
0.8549770366 	2.913392598 	-0.0001491877601 	2.401481895e-08
0.8574219081 	2.909288431 	-0.0001490095763 	2.417791279e-08
0.8598397987 	2.905124253 	-0.0001486390162 	2.43161428e-08
0.862231006 	2.900900139 	-0.0001480858255 	2.442977387e-08
0.8645958245 	2.896616139 	-0.0001473595942 	2.451920751e-08
0.8669345455 	2.892272283 	-0.0001464696801 	2.458478958e-08
0.8692474569 	2.887868574 	-0.0001454253299 	2.462695617e-08
0.8715348435 	2.883404998 	-0.0001442355921 	2.464617887e-08
0.8737969871 	2.878881515 	-0.0001429093336 	2.464298482e-08
0.8760341663 	2.874298064 	-0.0001414552262 	2.461790993e-08
0.8782466565 	2.869654561 	-0.0001398817422 	2.457153921e-08
0.8804347301 	2.864950899 	-0.0001381971484 	2.450450595e-08
0.8825986568 	2.860186947 	-0.0001364095037 	2.441746346e-08
0.8847387028 	2.85536255 	-0.0001345266525 	2.431106239e-08
0.8868551318 	2.850477526 	-0.0001325562238 	2.418597483e-08
0.8889482045 	2.845531667 	-0.0001305056265 	2.404291445e-08
0.8910181784 	2.840524738 	-0.0001283820489 	2.388257961e-08
0.8930653087 	2.83545647 	-0.0001261924594 	2.370569106e-08
0.8950898473 	2.830326567 	-0.0001239436052 	2.351296936e-08
0.8970920436 	2.825134695 	-0.0001216420129 	2.33051405e-08
0.8990721441 	2.819880484 	-0.00011929399 	2.30829301e-08
0.9010303927 	2.814563528 	-0.0001169056252 	2.284706283e-08
0.9029670306 	2.809183374 	-0.0001144827905 	2.25982605e-08
0.9048822962 	2.803739526 	-0.0001120311427 	2.23372412e-08
0.9067764254 	2.798231439 	-0.0001095561254 	2.206471853e-08
0.9086496514 	2.792658514 	-0.0001070629704 	2.178140132e-08
0.910502205 	2.787020094 	-0.0001045567002 	2.148799344e-08
0.9123343142 	2.781315461 	-0.0001020421287 	2.118519388e-08
0.9141462048 	2.775543828 	-9.952386372e-05 	2.087369692e-08
0.9159380997 	2.769704337 	-9.700630747e-05 	2.055419217e-08
0.9177102197 	2.763796048 	-9.449365791e-05 	2.022736462e-08
0.9194627831 	2.757817939 	-9.198990939e-05 	1.989389428e-08
0.9211960055 	2.751768892 	-8.949885313e-05 	1.955445558e-08
0.9229101006 	2.74564769 	-8.702407738e-05 	1.920971618e-08
0.9246052793 	2.739453006 	-8.456896749e-05 	1.886033523e-08
0.9262817504 	2.733183397 	-8.213670569e-05 	1.85069609e-08
0.9279397204 	2.726837289 	-7.973027089e-05 	1.815022708e-08
0.9295793934 	2.720412971 	-7.735243849e-05 	1.779074932e-08
0.9312009714 	2.713908582 	-7.500578028e-05 	1.742911972e-08
0.9328046541 	2.707322098 	-7.269266463e-05 	1.706590105e-08
0.9343906389 	2.700651318 	-7.041525712e-05 	1.67016199e-08
0.9359591211 	2.69389385 	-6.817552169e-05 	1.633675904e-08
0.937510294 	2.687047092 	-6.597522247e-05 	1.597174909e-08
0.9390443485 	2.68010822 	-6.381592664e-05 	1.560695968e-08
0.9405614735 	2.673074162 	-6.16990081e-05 	1.524269026e-08
0.942061856 	2.665941582 	-5.962565271e-05 	1.487916089e-08
0.9435456805 	2.658706853 	-5.759686421e-05 	1.45165034e-08
0.9450131299 	2.651366033 	-5.561347274e-05 	1.415475312e-08
0.946464385 	2.643914837 	-5.36761438e-05 	1.379384188e-08
0.9478996243 	2.636348607 	-5.178538668e-05 	1.343359264e-08
0.9493190246 	2.628662275 	-4.994158369e-05 	1.30737163e-08
0.9507227608 	2.620850325 	-4.814493014e-05 	1.271381144e-08
0.9521110058 	2.612906755 	-4.639570711e-05 	1.235336757e-08
0.9534839303 	2.604825024 	-4.46934594e-05 	1.199177256e-08
0.9548417036 	2.596598003 	-4.30395985e-05 	1.162832523e-08
0.9561844929 	2.588217916 	-4.143023896e-05 	1.126225347e-08
0.9575124634 	2.579676266 	-3.987581912e-05 	1.089273883e-08
0.9588257788 	2.570963771 	-3.835060295e-05 	1.05189452e-08
0.9601246008 	2.562070277 	-3.690809428e-05 	1.014006753e-08
0.9614090893 	2.552984563 	-3.542514666e-05 	9.755355201e-09
0.9626794024 	2.5436947 	-3.406859151e-05 	9.364341836e-09
0.9639356968 	2.534999875 	-3.296194144e-05 	9.000514937e-09
0.9647540487 	2.527812318 	-3.19227297e-05 	8.701351045e-09
0.9655573034 	2.521404072 	-3.108166774e-05 	8.436086195e-09
0.9663457395 	2.514964895 	-3.031895778e-05 	8.171163203e-09
0.9671196303 	2.508494024 	-2.954750137e-05 	7.906740984e-09
0.9678792442 	2.501990771 	-2.881645966e-05 	7.64307837e-09
0.9686248445 	2.49545433 	-2.810365747e-05 	7.380469923e-09
0.9693566897 	2.488883805 	-2.741863293e-05 	7.119237446e-09
0.9700750337 	2.482278201 	-2.675663246e-05 	6.859731598e-09
0.9707801255 	2.475636411 	-2.611812326e-05 	6.602323264e-09
0.9714722095 	2.468957218 	-2.550167475e-05 	6.347400225e-09
0.9721515258 	2.462239279 	-2.490653205e-05 	6.095360548e-09
0.9728183099 	2.455481126 	-2.433173061e-05 	5.846607127e-09
0.9734727929 	2.448681152 	-2.377636807e-05 	5.601541899e-09
0.9741152019 	2.441837608 	-2.323952554e-05 	5.360560454e-09
0.9747457596 	2.434948593 	-2.272029173e-05 	5.124046925e-09
0.9753646845 	2.428012049 	-2.221776129e-05 	4.89236931e-09
0.9759721914 	2.421025747 	-2.173103771e-05 	4.665875255e-09
0.9765684907 	2.413987287 	-2.125923595e-05 	4.444888362e-09
0.9771537895 	2.406894079 	-2.080148458e-05 	4.22970505e-09
0.9777282904 	2.399743343 	-2.035692802e-05 	4.020591965e-09
0.9782921928 	2.392532088 	-1.992472869e-05 	3.817783965e-09
0.9788456922 	2.385257112 	-1.950406894e-05 	3.621482662e-09
0.9793889805 	2.377914977 	-1.909415297e-05 	3.43185549e-09
0.979922246 	2.370502009 	-1.869420851e-05 	3.249035292e-09
0.9804456737 	2.36301427 	-1.830348832e-05 	3.073120354e-09
0.9809594451 	2.355447553 	-1.792127164e-05 	2.904174898e-09
0.9814637383 	2.347797357 	-1.754686531e-05 	2.742229935e-09
0.9819587281 	2.34005887 	-1.717960483e-05 	2.58728447e-09
0.9824445862 	2.332226947 	-1.681885513e-05 	2.439306983e-09
0.9829214811 	2.324296088 	-1.646401125e-05 	2.298237173e-09
0.9833895781 	2.31626041 	-1.611449875e-05 	2.163987872e-09
0.9838490396 	2.308113617 	-1.576977398e-05 	2.036447112e-09
0.9843000247 	2.299848969 	-1.542932416e-05 	1.915480329e-09
0.98474269 	2.291459246 	-1.509266723e-05 	1.800932583e-09
0.9851771888 	2.282936705 	-1.475935165e-05 	1.692630847e-09
0.9856036719 	2.274273038 	-1.442895589e-05 	1.590386282e-09
0.9860222871 	2.265459319 	-1.410108787e-05 	1.493996469e-09
0.9864331796 	2.256485948 	-1.37753842e-05 	1.403247606e-09
0.9868364919 	2.247342586 	-1.345150924e-05 	1.317916604e-09
0.9872323637 	2.238018079 	-1.31291541e-05 	1.237773096e-09
0.9876209323 	2.228500382 	-1.280803534e-05 	1.162581343e-09
0.9880023326 	2.218776459 	-1.248789379e-05 	1.092102005e-09
0.9883766967 	2.208832175 	-1.216849266e-05 	1.026093784e-09
0.9887441544 	2.198652179 	-1.18496165e-05 	9.64314948e-10
0.9891048331 	2.188219755 	-1.15310679e-05 	9.065246936e-10
0.9894588579 	2.177516666 	-1.121266766e-05 	8.524843874e-10
0.9898063516 	2.166522959 	-1.089425075e-05 	8.019586716e-10
0.9901474347 	2.155216751 	-1.057565492e-05 	7.547164146e-10
0.9904822253 	2.143573973 	-1.025677939e-05 	7.105315437e-10
0.9908108397 	2.131568069 	-9.937290095e-06 	6.691837779e-10
0.9911333916 	2.119169648 	-9.617658362e-06 	6.30459161e-10
0.9914499931 	2.106346071 	-9.295567997e-06 	5.94150542e-10
0.9917607538 	2.093060953 	-8.977457807e-06 	5.600576947e-10
0.9920657815 	2.079273595 	-8.644944846e-06 	5.279882398e-10
0.9923651819 	2.064938251 	-8.351835747e-06 	4.977546381e-10
0.992659059 	2.050003328 	-7.962086246e-06 	4.691928951e-10
0.9929475145 	2.03441038 	-7.783638429e-06 	4.421093055e-10
0.9932306485 	2.018092342 	-7.074866553e-06 	4.164532053e-10
0.9935085592 	2.000974823 	-6.874367405e-06 	3.917096142e-10
0.9937813429 	1.984539109 	-7.26309637e-06 	3.698514863e-10
0.9939569055 	1.97056998 	-6.504789528e-06 	3.530332564e-10
0.9941324681 	1.957644273 	-6.149327353e-06 	3.384054999e-10
0.9943080307 	1.944043248 	-6.105603584e-06 	3.237334008e-10
0.9944835934 	1.929697977 	-5.812834177e-06 	3.092022041e-10
0.994659156 	1.914530711 	-5.611779644e-06 	2.947704168e-10
0.9948347186 	1.898451688 	-5.355793526e-06 	2.804169308e-10
0.9950102812 	1.881356953 	-5.110648031e-06 	2.661308278e-10
0.9951858439 	1.863125366 	-4.849576761e-06 	2.51900617e-10
0.9953614065 	1.843614784 	-4.57822803e-06 	2.37723437e-10
0.9955369691 	1.822657244 	-4.289398289e-06 	2.235977038e-10
0.9957125317 	1.80005273 	-3.977646206e-06 	2.095260638e-10
0.9958880943 	1.775561093 	-3.632636191e-06 	1.955142441e-10
0.996063657 	1.748891412 	-3.238055069e-06 	1.815718988e-10
0.9962392196 	1.719687854 	-2.766669186e-06 	1.677130536e-10
0.9964147822 	1.687510619 	-2.17272795e-06 	1.539573781e-10
0.9965903448 	1.65180992 	-1.378130613e-06 	1.403327352e-10
0.9967659075 	1.611890009 	-2.432803364e-07 	1.268806036e-10
0.9969414701 	1.566858921 	1.505127868e-06 	1.136543144e-10
0.9971170327 	1.515557895 	4.43083232e-06 	1.006346627e-10
0.9972925953 	1.456462985 	9.513579891e-06 	8.724664689e-11
0.997468158 	1.387552679 	1.71172859e-05 	7.098238904e-11
0.9976437206 	1.306148067 	2.127655779e-05 	4.605208816e-11
0.9978192832 	1.208782465 	-2.818064432e-06 	1.511803883e-11
0.9979948458 	1.091336975 	-7.773492103e-05 	2.461657658e-11
0.9981704085 	0.950099854 	-0.0001270396322 	9.474852002e-11
0.9983459711 	0.7843758706 	-4.226500202e-05 	1.017633708e-10
0.9985215337 	0.5989311376 	7.685769759e-05 	2.863113877e-12
0.9986970963 	0.402290232 	7.80101873e-05 	-4.912232528e-11
0.998872659 	0.2015844757 	2.350816186e-05 	-2.332344916e-11
0.9990482216 	0.08491361007 	3.311769114e-06 	-5.195793419e-12
0.9990482216 	0.08491361007 	3.311769114e-06 	-5.195793419e-12
