0.3810449493 	0.09033802903 	0.01159157809 	-6.035265424e-06
0.3810449493 	0.09033802903 	0.01159157809 	-6.035265424e-06
0.3812213909 	0.2636082063 	0.03372452384 	-1.887826796e-05
0.3813978397 	0.5244546534 	0.06703147361 	-3.800977279e-05
0.381574295 	0.7756792594 	0.09929464449 	-5.530874801e-05
0.3817507564 	1.004571262 	0.1287992623 	-6.987952303e-05
0.3819272234 	1.200005675 	0.1537903046 	-8.102983679e-05
0.3821036954 	1.359781529 	0.1740417343 	-8.916492857e-05
0.3822801719 	1.488952235 	0.1904367731 	-9.506945117e-05
0.3824566525 	1.594337758 	0.2038542998 	-9.933259336e-05
0.3826331365 	1.681698826 	0.2149686843 	-0.0001023912749
0.3828096235 	1.755330673 	0.2243134039 	-0.0001045599447
0.382986113 	1.818352114 	0.2322896028 	-0.000106053504
0.3831626043 	1.873032901 	0.2391912036 	-0.0001070214481
0.3833390971 	1.921046277 	0.245234378 	-0.0001075708968
0.3835155909 	1.963646155 	0.2505807066 	-0.0001077808175
0.383692085 	2.001788239 	0.255353187 	-0.0001077107953
0.3838685789 	2.036212758 	0.259647039 	-0.0001074066886
0.3840450723 	2.067501614 	0.2635371002 	-0.0001069044162
0.3842215645 	2.09611846 	0.2670829948 	-0.0001062325657
0.384398055 	2.12243732 	0.2703328186 	-0.0001054142305
0.3845745433 	2.146763364 	0.2733258148 	-0.0001044683215
0.384751029 	2.169348264 	0.2760943491 	-0.0001034105504
0.3849275114 	2.1904017 	0.2786653908 	-0.000102254099
0.3851039901 	2.210100102 	0.2810616375 	-0.0001010102455
0.3852804646 	2.228593349 	0.2833023717 	-9.968852834e-05
0.3854569344 	2.246009928 	0.2854041217 	-9.829731316e-05
0.385633399 	2.262460984 	0.2873811111 	-9.684399306e-05
0.3858098578 	2.278042048 	0.2892458853 	-9.533381527e-05
0.3859863103 	2.292833302 	0.2910083721 	-9.377100172e-05
0.3861627561 	2.306903458 	0.2926779332 	-9.216015578e-05
0.3863391946 	2.322120561 	0.2944763293 	-9.056093293e-05
0.3866133237 	2.340030661 	0.2965773175 	-8.785653575e-05
0.3868925839 	2.358683783 	0.2987516954 	-8.506623024e-05
0.3871770685 	2.376456536 	0.3008081151 	-8.214213292e-05
0.3874668729 	2.393422635 	0.3027548457 	-7.908838331e-05
0.3877620936 	2.409648328 	0.3046011161 	-7.590878247e-05
0.3880628288 	2.425191324 	0.3063539081 	-7.2606659e-05
0.3883691783 	2.440102292 	0.3080197802 	-6.918504021e-05
0.3886812435 	2.45442594 	0.3096043141 	-6.564668152e-05
0.3889991275 	2.468201763 	0.3111124972 	-6.199413226e-05
0.3893229347 	2.481464795 	0.312548714 	-5.822977783e-05
0.3896527714 	2.494246188 	0.3139168565 	-5.435588012e-05
0.3899887454 	2.506573724 	0.3152203782 	-5.037461126e-05
0.3903309662 	2.518472251 	0.3164623538 	-4.628808287e-05
0.3906795449 	2.529964052 	0.3176455258 	-4.20983715e-05
0.3910345942 	2.541069171 	0.3187723466 	-3.780754059e-05
0.3913962286 	2.551805686 	0.319845014 	-3.341765959e-05
0.391764564 	2.562189954 	0.3208655027 	-2.893082071e-05
0.3921397182 	2.572236815 	0.321835591 	-2.434915357e-05
0.3925218105 	2.58195978 	0.322756885 	-1.967483814e-05
0.3929109619 	2.591371192 	0.3236308391 	-1.491011626e-05
0.3933072949 	2.600482362 	0.3244587774 	-1.005730193e-05
0.3937109339 	2.609303703 	0.3252418935 	-5.118790943e-06
0.3941220045 	2.61784481 	0.3259813098 	-9.706923621e-08
0.394129973 	2.618002296 	0.325994578 	3.886130834e-07
0.3945400737 	2.626119838 	0.3266798158 	-4.921414059e-06
0.3949668698 	2.634189071 	0.3273412545 	-1.003185598e-05
0.3954119652 	2.642093959 	0.3279685175 	-1.538340043e-05
0.395865298 	2.649782401 	0.3285572634 	-2.082213685e-05
0.3963270188 	2.657215633 	0.3291044931 	-2.634674561e-05
0.3967972809 	2.664401108 	0.3296110525 	-3.195601781e-05
0.3972762401 	2.671345944 	0.3300777008 	-3.764877413e-05
0.3977640554 	2.678056914 	0.3305051644 	-4.342386361e-05
0.3982608883 	2.684540506 	0.330894132 	-4.928016455e-05
0.3987669034 	2.690802955 	0.331245261 	-5.52165837e-05
0.399282268 	2.696850273 	0.3315591819 	-6.123205605e-05
0.3998071528 	2.702688276 	0.3318365011 	-6.732554373e-05
0.4003417311 	2.708322608 	0.3320778044 	-7.34960349e-05
0.4008861797 	2.713758756 	0.3322836592 	-7.974254213e-05
0.4014406782 	2.719002072 	0.332454617 	-8.60641005e-05
0.4020054097 	2.724057782 	0.3325912152 	-9.245976553e-05
0.4025805604 	2.728930999 	0.3326939782 	-9.89286107e-05
0.4031663199 	2.733626735 	0.3327634194 	-0.000105469725
0.4037628812 	2.738149906 	0.3328000416 	-0.0001120822101
0.4043704407 	2.74250534 	0.3328043384 	-0.0001187651776
0.4049891984 	2.746697784 	0.3327767943 	-0.0001255177458
0.4056193577 	2.750731903 	0.3327178876 	-0.000132339037
0.4062611258 	2.754612291 	0.3326280817 	-0.0001392281745
0.4069147136 	2.758343458 	0.3325078479 	-0.0001461842774
0.4075803356 	2.761929857 	0.3323575882 	-0.0001532064611
0.4082582104 	2.765385543 	0.3321772351 	-0.0001460956188
0.4089563963 	2.768733729 	0.3319656334 	-0.0001381953207
0.4096771504 	2.771976067 	0.3317222935 	-0.0001300716378
0.4104111267 	2.775094034 	0.3314487124 	-0.0001218647958
0.411158564 	2.778081131 	0.3311460896 	-0.0001135778131
0.411919705 	2.780941821 	0.3308149279 	-0.0001052125525
0.4126947969 	2.783680476 	0.3304556774 	-9.677086002e-05
0.4134840914 	2.786301337 	0.3300687803 	-8.825457959e-05
0.4142878445 	2.78880853 	0.3296546751 	-7.966554971e-05
0.4151063168 	2.791206011 	0.3292137312 	-7.100563063e-05
0.4159397736 	2.793497754 	0.3287463661 	-6.22766801e-05
0.4167884849 	2.795958735 	0.3281924995 	-5.346052872e-05
0.4180905889 	2.798786051 	0.3274654941 	-4.016669568e-05
0.419406252 	2.801628549 	0.3266353373 	-2.693527316e-05
0.4207356172 	2.804236856 	0.3257657161 	-1.379009452e-05
0.4220788289 	2.806642503 	0.3248548757 	-7.34563315e-07
0.4221548793 	2.806764676 	0.3248023747 	-4.113132866e-06
0.4234639132 	2.80887134 	0.3239016849 	-1.240999299e-05
0.4248663094 	2.810923973 	0.3229097269 	-2.547082911e-05
0.4262832195 	2.812801619 	0.3218862134 	-3.841722175e-05
0.4277147966 	2.814516359 	0.3208336602 	-5.124603665e-05
0.4291611958 	2.816080069 	0.3197537264 	-6.395417935e-05
0.4306225742 	2.81750332 	0.3186479057 	-7.65386331e-05
0.4320990907 	2.818795536 	0.3175175819 	-8.899644596e-05
0.4335909064 	2.81996522 	0.3163638101 	-0.0001013247363
0.4350981844 	2.821023545 	0.3151835725 	-0.0001135177124
0.4366434922 	2.821981177 	0.3139707605 	-0.0001258074254
0.4382166345 	2.822839881 	0.3127281132 	-0.000131297837
0.4398059559 	2.823599369 	0.3114630852 	-0.0001175877176
0.4414116291 	2.824263311 	0.3101788051 	-0.0001040278384
0.4430338293 	2.824836557 	0.3088759814 	-9.062107188e-05
0.4446727339 	2.825323492 	0.3075552689 	-7.737019646e-05
0.4463285227 	2.825728125 	0.3062171711 	-6.427788692e-05
0.4480013782 	2.826054726 	0.3048590279 	-5.134568563e-05
0.4497078613 	2.826307179 	0.3034740442 	-3.841595277e-05
0.4514512468 	2.826486925 	0.3020618101 	-2.547968053e-05
0.4532124669 	2.82659468 	0.3006300675 	-1.273558146e-05
0.454991715 	2.826632628 	0.2991830669 	-1.867938072e-07
0.4550186889 	2.826632165 	0.2991611091 	-1.546300369e-06
0.4567876948 	2.826601871 	0.2977234813 	-1.202303102e-05
0.4586020882 	2.82650596 	0.2962493342 	-2.403708221e-05
0.4604351201 	2.826346949 	0.2947599319 	-3.585562532e-05
0.462291103 	2.826125245 	0.2932485394 	-4.750974016e-05
0.4641986841 	2.825840747 	0.2917091411 	-5.922315677e-05
0.4661257233 	2.825495106 	0.2901497673 	-7.070829773e-05
0.4680724357 	2.825091177 	0.2885769993 	-8.196589805e-05
0.4700390397 	2.824630304 	0.2869912136 	-9.299499199e-05
0.4720257568 	2.824113862 	0.2853924955 	-0.0001037947921
0.4740328119 	2.823541708 	0.2837777724 	-0.0001143622523
0.4760774571 	2.822911669 	0.2821397934 	-0.0001022165971
0.478163013 	2.822223584 	0.2804779997 	-8.991521288e-05
0.4802697826 	2.821480708 	0.2788000955 	-7.786082568e-05
0.4823980057 	2.820685508 	0.277110145 	-6.605619391e-05
0.4845479263 	2.819838688 	0.2754082677 	-5.450127405e-05
0.4867197918 	2.818939345 	0.273691826 	-4.319502114e-05
0.488928055 	2.817983676 	0.2719537262 	-3.204196189e-05
0.4911816255 	2.816970507 	0.2701921791 	-2.100420843e-05
0.4934580691 	2.815903707 	0.2684147282 	-1.024224392e-05
0.4957035467 	2.81481238 	0.2666678823 	-2.862367262e-06
0.4957576181 	2.814786082 	0.2666258592 	-2.421072581e-07
0.4980792332 	2.813616406 	0.2648266737 	-1.036899774e-05
0.5004245514 	2.812392305 	0.2630106129 	-2.022917238e-05
0.5028227957 	2.81110862 	0.2611703165 	-2.998257125e-05
0.5052529341 	2.80976741 	0.2593101634 	-3.948763588e-05
0.5077077682 	2.808373331 	0.2574370889 	-4.870313993e-05
0.5101875913 	2.806927185 	0.2555524396 	-5.763197646e-05
0.5126927018 	2.805425267 	0.2536522013 	-6.627502285e-05
0.5152453314 	2.80386149 	0.251729433 	-7.473685742e-05
0.5178375627 	2.802236081 	0.249785662 	-8.295781324e-05
0.5204561288 	2.800553764 	0.2478276042 	-9.087324663e-05
0.5231013502 	2.798816117 	0.2458575317 	-8.411630863e-05
0.5257735529 	2.797017729 	0.2438705718 	-7.46435511e-05
0.5285003312 	2.795151748 	0.2418598453 	-6.533645797e-05
0.5312618722 	2.793220295 	0.2398291759 	-5.630590289e-05
0.5340515049 	2.791228427 	0.2377846423 	-4.758243896e-05
0.53686958 	2.789174903 	0.2357254832 	-3.915927805e-05
0.5397256397 	2.787052625 	0.233645663 	-3.099547984e-05
0.5426344385 	2.784857917 	0.2315415893 	-2.305686953e-05
0.5455728418 	2.78259323 	0.2294188776 	-1.54375965e-05
0.5485412272 	2.780260093 	0.2272828457 	-8.093648018e-06
0.5515410631 	2.777835648 	0.2251229076 	-1.081090385e-06
0.5520281168 	2.777424826 	0.2247705411 	-2.298244933e-05
0.5546006518 	2.775253073 	0.2229090232 	-5.651615279e-06
0.5576913108 	2.772482424 	0.2206293294 	-1.186366564e-05
0.5608136116 	2.769559245 	0.2182971765 	-1.752987866e-05
0.5639687067 	2.766545218 	0.2159298409 	-2.286040244e-05
0.567184494 	2.763499068 	0.2135404527 	-2.808345985e-05
0.5704332106 	2.760460534 	0.2111427858 	-3.303974369e-05
0.5737152938 	2.757435667 	0.2087377575 	-3.755077263e-05
0.5770372296 	2.754404537 	0.2063144081 	-4.152987173e-05
0.5804142413 	2.75135295 	0.2038657707 	-4.504523104e-05
0.5838259791 	2.74828821 	0.2013980139 	-4.824024096e-05
0.5872729134 	2.745225573 	0.1989179933 	-5.136717271e-05
0.5907705878 	2.742182364 	0.1964297343 	-5.464718678e-05
0.5943140224 	2.739184038 	0.1939428565 	-5.812086727e-05
0.5978940924 	2.736253063 	0.1914672373 	-5.41529573e-05
0.6015149511 	2.73339367 	0.1890024919 	-5.018105297e-05
0.6051922863 	2.7305976 	0.1865431895 	-4.621650967e-05
0.6089077541 	2.727851517 	0.1840875422 	-4.223946582e-05
0.612661888 	2.725123899 	0.1816267214 	-3.830015698e-05
0.6164727598 	2.722382913 	0.1791505386 	-3.443233829e-05
0.6203260974 	2.719625182 	0.1766635124 	-3.070661008e-05
0.6242196901 	2.716852998 	0.1741702842 	-2.718290744e-05
0.6281668391 	2.714060583 	0.1716680606 	-2.38814686e-05
0.6321607674 	2.711246472 	0.1691581567 	-2.083409966e-05
0.6361966073 	2.708409579 	0.1666425754 	-1.804924716e-05
0.6402856089 	2.705545936 	0.164119736 	-1.550242224e-05
0.6444231319 	2.702654794 	0.1615908087 	-1.318903608e-05
0.6486042948 	2.699735334 	0.1590573883 	-1.109151194e-05
0.6528401147 	2.696783994 	0.1565184485 	-9.180277704e-06
0.6571245484 	2.693800275 	0.1539754729 	-7.452352466e-06
0.6614544254 	2.690782617 	0.151429585 	-5.89161606e-06
0.6658416149 	2.687727094 	0.1488795461 	-4.478181405e-06
0.6702766106 	2.684632965 	0.1463269486 	-3.215434751e-06
0.6747608143 	2.681497695 	0.1437722027 	-2.089643275e-06
0.6793018053 	2.678325854 	0.1412207564 	-1.095258678e-06
0.6838407313 	2.675142614 	0.1386948722 	-2.422615445e-07
0.68533741 	2.674086069 	0.1378683448 	-4.909756573e-05
0.6883321244 	2.671971951 	0.1362149744 	-4.576917705e-07
0.6927764795 	2.668820044 	0.1337852453 	-1.023392663e-06
0.6971701987 	2.665685245 	0.1314041474 	-1.477176804e-06
0.7015195371 	2.662564917 	0.1290692692 	-1.833093559e-06
0.7058210368 	2.659458234 	0.126779375 	-2.094447677e-06
0.7100738481 	2.65636388 	0.1245331367 	-2.273449165e-06
0.7142840845 	2.653279637 	0.1223282706 	-2.379021962e-06
0.7184469364 	2.650205399 	0.1201640332 	-2.414456129e-06
0.7225632872 	2.6471402 	0.1180392562 	-2.390543661e-06
0.7266374089 	2.644082382 	0.1159520406 	-2.312784654e-06
0.730665764 	2.641031971 	0.1139017549 	-2.185073451e-06
0.7346493111 	2.637988192 	0.1118873606 	-2.016199248e-06
0.7385913566 	2.634949791 	0.109907304 	-1.810049537e-06
0.7424893035 	2.631916857 	0.1079610281 	-1.569951767e-06
0.74634377 	2.62888877 	0.1060476482 	-1.302911763e-06
0.7501578474 	2.625864429 	0.1041658248 	-1.012303989e-06
0.7539294053 	2.622843911 	0.1023150247 	-7.001323277e-07
0.7576589941 	2.619826798 	0.1004945625 	-3.719397117e-07
0.7613487646 	2.616812155 	0.09870333627 	-3.106284721e-08
0.7616645071 	2.616551514 	0.09855083104 	-8.476803128e-06
0.7649978035 	2.613799704 	0.09694093615 	-3.31576434e-07
0.7686063318 	2.610789275 	0.09520662512 	-7.025708377e-07
0.7721756267 	2.607780131 	0.09349951709 	-1.077478521e-06
0.7757060681 	2.604771904 	0.09181890986 	-1.456350199e-06
0.779197407 	2.60176442 	0.09016436989 	-1.836435677e-06
0.7826502185 	2.598757081 	0.08853523902 	-2.214667705e-06
0.7860658461 	2.595749266 	0.08693077996 	-2.590537377e-06
0.7894437099 	2.592740806 	0.08535057051 	-2.963293144e-06
0.7927842666 	2.589731314 	0.0837941605 	-3.330612443e-06
0.7960883722 	2.58672013 	0.08226091561 	-3.690858164e-06
0.7993563864 	2.583706855 	0.08075031948 	-4.044651004e-06
0.8025883531 	2.58069119 	0.07926200541 	-4.390680954e-06
0.8057846993 	2.577672586 	0.07779550801 	-4.727434815e-06
0.8089462876 	2.574650436 	0.07635029189 	-5.054428466e-06
0.812073146 	2.571624375 	0.07492596437 	-5.372207281e-06
0.8151655736 	2.56859401 	0.07352219218 	-5.67972581e-06
0.8182239713 	2.565558728 	0.07213854562 	-5.976035587e-06
0.8212490869 	2.56251793 	0.07077457269 	-6.261233659e-06
0.8242409391 	2.559471202 	0.06942994287 	-6.53575881e-06
0.8271998887 	2.556418074 	0.06810435008 	-6.798949892e-06
0.8301263136 	2.553357906 	0.06679742064 	-7.050246529e-06
0.8330208137 	2.550290077 	0.06550877016 	-7.289841861e-06
0.835883524 	2.547214089 	0.06423809726 	-7.51829784e-06
0.8387147803 	2.5441294 	0.06298512224 	-7.7352528e-06
0.8415149398 	2.541035348 	0.06174952893 	-7.940408949e-06
0.8442844673 	2.537931263 	0.06053098767 	-8.133818724e-06
0.8470236332 	2.534816549 	0.05932921158 	-8.316212244e-06
0.8497327213 	2.531690588 	0.05814394755 	-8.487488263e-06
0.8524120703 	2.528552685 	0.0569749271 	-8.647522821e-06
0.8550620396 	2.525402105 	0.0558218669 	-8.796262862e-06
0.8576830073 	2.52223813 	0.0546844928 	-8.934324893e-06
0.8602752069 	2.51906006 	0.05356257343 	-9.061962898e-06
0.8628389602 	2.51586714 	0.05245587396 	-9.17916418e-06
0.8653745848 	2.512658554 	0.05136415203 	-9.28594659e-06
0.8678824306 	2.509433465 	0.05028716271 	-9.382470921e-06
0.8703627885 	2.506191051 	0.04922467501 	-9.469341497e-06
0.8728159327 	2.502930453 	0.04817648483 	-9.546689079e-06
0.8752421656 	2.499650761 	0.04714237761 	-9.61458898e-06
0.8776417855 	2.496351015 	0.04612214114 	-9.67313548e-06
0.8800151111 	2.493030222 	0.04511556206 	-9.722547311e-06
0.8823624151 	2.489687383 	0.04412243764 	-9.763330016e-06
0.8846839699 	2.486321445 	0.04314258491 	-9.795630003e-06
0.8869800602 	2.482931297 	0.04217581183 	-9.819564676e-06
0.889250967 	2.479515772 	0.04122193205 	-9.835262233e-06
0.8914969771 	2.476073651 	0.04028075899 	-9.842894036e-06
0.8937183629 	2.472603679 	0.0393521104 	-9.842883753e-06
0.8959153816 	2.469104539 	0.03843582117 	-9.835425525e-06
0.8980883014 	2.465574835 	0.03753172293 	-9.820651328e-06
0.9002373876 	2.462013099 	0.03663964883 	-9.798696977e-06
0.9023629021 	2.458417782 	0.03575943737 	-9.769702965e-06
0.9044651126 	2.454787258 	0.03489092589 	-9.733918626e-06
0.9065442628 	2.451119826 	0.03403396198 	-9.335417705e-06
0.9086006046 	2.447413671 	0.03318840077 	-8.947134403e-06
0.9106343886 	2.443666871 	0.03235409409 	-8.571465583e-06
0.9126458621 	2.439877388 	0.03153089926 	-8.208092055e-06
0.9146352699 	2.436043055 	0.03071867687 	-7.85669815e-06
0.9166028579 	2.432161576 	0.02991728764 	-7.51687942e-06
0.9185488579 	2.428230511 	0.02912660158 	-7.188248718e-06
0.9204735065 	2.424247252 	0.02834649286 	-6.870516018e-06
0.9223770377 	2.42020901 	0.02757683532 	-6.563394333e-06
0.9242596827 	2.416112806 	0.02681750663 	-6.266601371e-06
0.9261216705 	2.411955451 	0.02606838955 	-5.97986011e-06
0.9279632281 	2.407733527 	0.02532936684 	-5.70286885e-06
0.9297845769 	2.403443377 	0.02460032662 	-5.435282792e-06
0.9315859373 	2.399081061 	0.02388116406 	-5.176844719e-06
0.9333675279 	2.394642338 	0.02317177408 	-4.927307344e-06
0.9351295652 	2.390122644 	0.0224720551 	-4.686429562e-06
0.9368722632 	2.38551705 	0.02178191011 	-4.453977053e-06
0.9385958333 	2.380820235 	0.02110124548 	-4.22972228e-06
0.9403004852 	2.376026444 	0.02042996933 	-4.01341487e-06
0.9419864243 	2.371129448 	0.01976799587 	-3.804806761e-06
0.9436538552 	2.366122484 	0.01911524496 	-3.6036986e-06
0.9453029805 	2.360998201 	0.01847163602 	-3.409899042e-06
0.9469340003 	2.355748607 	0.01783709836 	-3.223224477e-06
0.9485471127 	2.350364989 	0.01721155169 	-3.043501919e-06
0.9501425136 	2.344837834 	0.01659495435 	-2.870560557e-06
0.9517203967 	2.339156762 	0.01598719533 	-2.704246006e-06
0.9532809531 	2.333310293 	0.01538832768 	-2.544361936e-06
0.954824372 	2.327286242 	0.0147981897 	-2.390818574e-06
0.9563508411 	2.321604003 	0.01426543681 	-2.250302222e-06
0.9573452296 	2.31687349 	0.01383940734 	-2.149885568e-06
0.9583213075 	2.312630164 	0.01346982061 	-2.059863155e-06
0.9592794114 	2.308341717 	0.01310801369 	-1.973273751e-06
0.9602198716 	2.304006895 	0.012753898 	-1.889991415e-06
0.9611430126 	2.299624535 	0.01240728659 	-1.809891005e-06
0.9620491527 	2.29519335 	0.01206806092 	-1.732853512e-06
0.9629386046 	2.290711978 	0.01173607471 	-1.658765213e-06
0.9638116751 	2.286178972 	0.01141119714 	-1.587513381e-06
0.9646686653 	2.281592793 	0.01109329466 	-1.518992093e-06
0.9655098709 	2.276951809 	0.01078223769 	-1.453102393e-06
0.9663355822 	2.272254289 	0.01047789777 	-1.389749364e-06
0.9671460842 	2.267498399 	0.01018014872 	-1.328841859e-06
0.9679416566 	2.262682199 	0.0098888663 	-1.270292257e-06
0.968722574 	2.257803638 	0.009603928161 	-1.214016226e-06
0.969489106 	2.252860544 	0.009325213846 	-1.159932534e-06
0.9702415172 	2.247850625 	0.009052604738 	-1.107962867e-06
0.9709800674 	2.242771457 	0.008785984034 	-1.058031681e-06
0.9717050115 	2.237620482 	0.008525236723 	-1.010066061e-06
0.9724166 	2.232394996 	0.008270249554 	-9.639956049e-07
0.9731150785 	2.227092146 	0.008020911042 	-9.197523184e-07
0.9738006883 	2.221708918 	0.007777111386 	-8.77270511e-07
0.9744736661 	2.216242126 	0.007538742572 	-8.36486726e-07
0.9751342444 	2.210688409 	0.007305698144 	-7.973395369e-07
0.9757826513 	2.205044213 	0.007077873292 	-7.597685837e-07
0.9764191108 	2.199305778 	0.006855165064 	-7.237164547e-07
0.9770438429 	2.193469132 	0.006637472009 	-6.891279912e-07
0.9776570633 	2.187530067 	0.006424694252 	-6.559498949e-07
0.978258984 	2.18148413 	0.006216733539 	-6.24130678e-07
0.9788498128 	2.1753266 	0.006013493194 	-5.936205988e-07
0.979429754 	2.16905247 	0.0058148781 	-5.643716068e-07
0.979999008 	2.162656422 	0.005620794683 	-5.363372858e-07
0.9805577716 	2.156132806 	0.005431150895 	-5.094728008e-07
0.9811062378 	2.149475611 	0.005245856199 	-4.837348455e-07
0.9816445962 	2.142678431 	0.005064821555 	-4.590815905e-07
0.9821730329 	2.135734433 	0.004887959405 	-4.354726338e-07
0.9826917307 	2.128636318 	0.00471518366 	-4.128689522e-07
0.9832008687 	2.121376277 	0.004546409687 	-3.912328537e-07
0.983700623 	2.113945939 	0.004381554294 	-3.705279316e-07
0.9841911664 	2.106336319 	0.004220535723 	-3.507190201e-07
0.9846726686 	2.098537754 	0.004063273636 	-3.317721517e-07
0.9851452959 	2.090539829 	0.003909689104 	-3.136545148e-07
0.9856092119 	2.082331298 	0.003759704602 	-2.963344151e-07
0.9860645769 	2.073899988 	0.003613243997 	-2.797812364e-07
0.9865115485 	2.065232695 	0.003470232545 	-2.639654056e-07
0.9869502811 	2.05631506 	0.003330596872 	-2.48858357e-07
0.9873809266 	2.047131427 	0.003194264943 	-2.344324256e-07
0.987803634 	2.03766468 	0.003061166138 	-2.206608939e-07
0.9882185493 	2.027896053 	0.002931231207 	-2.075180551e-07
0.9886258161 	2.01780491 	0.002804392178 	-1.949790891e-07
0.9890255754 	2.007368484 	0.002680582645 	-1.830200398e-07
0.9894179654 	1.996561572 	0.002559736839 	-1.716178007e-07
0.9898031218 	1.985356182 	0.002441792881 	-1.607500675e-07
0.9901811779 	1.973721096 	0.002326682122 	-1.503954123e-07
0.9905522645 	1.961621381 	0.002214360425 	-1.405329957e-07
0.9909165101 	1.94901775 	0.002104717495 	-1.31143344e-07
0.9912740405 	1.935865871 	0.001997821264 	-1.222060358e-07
0.9916249796 	1.922115491 	0.001893328439 	-1.137053883e-07
0.9919694487 	1.907708879 	0.001791862967 	-1.056161789e-07
0.9923075672 	1.89258206 	0.001692437687 	-9.793474838e-08
0.9926394519 	1.87804745 	0.001603087232 	-9.111015295e-08
0.9928530538 	1.865688329 	0.001532912968 	-8.604054441e-08
0.9930666574 	1.854249178 	0.001471257915 	-8.156765939e-08
0.9932802626 	1.84221032 	0.001409584819 	-7.719637716e-08
0.9934938694 	1.829511572 	0.001348399281 	-7.292141049e-08
0.9937074779 	1.816085068 	0.001287396282 	-6.874537518e-08
0.993921088 	1.801852418 	0.001226714835 	-6.466710043e-08
0.9941346997 	1.786722788 	0.00116629905 	-6.068681631e-08
0.9943483131 	1.770590245 	0.001106178346 	-5.680414752e-08
0.9945619281 	1.753330362 	0.00104635236 	-5.30189252e-08
0.9947755447 	1.734795924 	0.0009868328165 	-4.93309135e-08
0.994989163 	1.714811353 	0.0009276299332 	-4.573987855e-08
0.995202783 	1.693165436 	0.000868758498 	-4.224554553e-08
0.9954164045 	1.669601725 	0.0008102387717 	-3.88475865e-08
0.9956300277 	1.643805676 	0.0007521009392 	-3.554559033e-08
0.9958436526 	1.615387208 	0.0006943919409 	-3.233901894e-08
0.996057279 	1.583856633 	0.0006371873624 	-2.922711856e-08
0.9962709071 	1.548590965 	0.0005806148162 	-2.620867102e-08
0.9964845369 	1.50878599 	0.0005249155503 	-2.328141156e-08
0.9966981683 	1.46338721 	0.000470615745 	-2.044133641e-08
0.9969118013 	1.410989765 	0.0004188822783 	-1.768659018e-08
0.9971254359 	1.349694721 	0.0003714493968 	-1.504202868e-08
0.9973390722 	1.276912377 	0.0003268555992 	-1.263042942e-08
0.9975527102 	1.189131038 	0.0002647394124 	-1.069857634e-08
0.9977663498 	1.081800156 	0.0001392217701 	-8.858070719e-09
0.997979991 	0.9499676853 	-5.516813983e-06 	-5.924896083e-09
0.9981936338 	0.7909062855 	1.722827107e-06 	-2.875958923e-09
0.9984072783 	0.6079387285 	0.0001214442136 	-1.670379998e-09
0.9986209244 	0.4101125492 	0.0001265978609 	-1.202924507e-09
0.9988345722 	0.2061018503 	3.840844143e-05 	-2.346158962e-10
0.9990482216 	0.08581224107 	-1.331766601e-06 	2.637342329e-10
