0.4709558481 	2.184742113e-05 	-8.560530751e-07 	8.164376257e-12 	2.174985984e-05 	-1.500783363e-10 	4.146127792e-08
0.4711314108 	0.0002524634952 	-3.67831628e-05 	3.467348397e-10 	0.0002423839211 	-1.663024775e-09 	4.620511208e-07
0.4713069734 	0.001550341215 	-0.0004352137193 	3.901776354e-09 	0.001294907717 	-8.611565717e-09 	2.468454009e-06
0.471482536 	0.005808144952 	-0.002156423031 	1.742398786e-08 	0.003828582746 	-2.359718493e-08 	7.298342813e-06
0.4716580986 	0.01478783839 	-0.006047931624 	4.220911581e-08 	0.007680357159 	-4.259334456e-08 	1.464089539e-05
0.4718336613 	0.0273802167 	-0.01151467045 	6.789731778e-08 	0.01200467025 	-5.998382762e-08 	2.288423801e-05
0.4720092239 	0.0402362576 	-0.01703829319 	8.531041599e-08 	0.01615672056 	-7.390357696e-08 	3.079919991e-05
0.4721847865 	0.05110806529 	-0.02166957928 	9.471694029e-08 	0.01986184874 	-8.408959705e-08 	3.786220401e-05
0.4723603491 	0.0596106209 	-0.02527291294 	9.965262218e-08 	0.02301781105 	-9.098636475e-08 	4.387834532e-05
0.4725359118 	0.06613182827 	-0.02803064185 	1.02375888e-07 	0.02563137723 	-9.548571991e-08 	4.886052887e-05
0.4727114744 	0.07115326152 	-0.03015113223 	1.039457406e-07 	0.02776330539 	-9.835669522e-08 	5.292457649e-05
0.472887037 	0.07506748523 	-0.03180123636 	1.048805118e-07 	0.02949327107 	-1.001815509e-07 	5.622237189e-05
0.4730625996 	0.07816190139 	-0.03310338832 	1.054420763e-07 	0.03089988205 	-1.013480901e-07 	5.890376337e-05
0.4732381623 	0.08064156041 	-0.03414512088 	1.057695221e-07 	0.03205034882 	-1.020935403e-07 	6.109687278e-05
0.4734137249 	0.08265325846 	-0.034989026 	1.059412722e-07 	0.0329983119 	-1.025602524e-07 	6.290395388e-05
0.4735892875 	0.08430336051 	-0.035680331 	1.060042453e-07 	0.0337854155 	-1.028354887e-07 	6.440439211e-05
0.4737648501 	0.08567004398 	-0.03625219095 	1.059881067e-07 	0.0344437734 	-1.029745728e-07 	6.565940525e-05
0.4739404128 	0.08681161988 	-0.03672928551 	1.059125707e-07 	0.03499820002 	-1.030136135e-07 	6.671629648e-05
0.4741159754 	0.08777221427 	-0.03713026168 	1.057913235e-07 	0.03546797627 	-1.029767156e-07 	6.761182059e-05
0.474291538 	0.08858567846 	-0.03746940644 	1.056342149e-07 	0.03586819172 	-1.028802753e-07 	6.837474247e-05
0.4744671006 	0.08927830971 	-0.0377578064 	1.05448532e-07 	0.03621075181 	-1.027356403e-07 	6.902775721e-05
0.4746426632 	0.08987077345 	-0.03800416641 	1.05239781e-07 	0.03650513223 	-1.025508002e-07 	6.95889281e-05
0.4748182259 	0.09037947694 	-0.0382153891 	1.050121722e-07 	0.03675893608 	-1.023314591e-07 	7.007274879e-05
0.4749937885 	0.09081757914 	-0.03839701426 	1.047689919e-07 	0.03697833273 	-1.020817937e-07 	7.049097978e-05
0.4751693511 	0.0911957203 	-0.03855349424 	1.045127465e-07 	0.03716831594 	-1.018047885e-07 	7.085314058e-05
0.4753449137 	0.09152255266 	-0.03868851476 	1.042455284e-07 	0.03733313678 	-1.015030073e-07 	7.116733491e-05
0.4755204764 	0.09180534328 	-0.0388050159 	1.039688008e-07 	0.03747595515 	-1.011776702e-07 	7.143958643e-05
0.475696039 	0.09204930106 	-0.03890542961 	1.036837474e-07 	0.03760044379 	-1.00831736e-07 	7.167689636e-05
0.4758716016 	0.09226215087 	-0.0389926816 	1.033927762e-07 	0.03770706255 	-1.00462248e-07 	7.188014136e-05
0.4760471642 	0.09243922771 	-0.0390639593 	1.030894487e-07 	0.03780049353 	-1.000740094e-07 	7.205824676e-05
0.4762227269 	0.09263434062 	-0.03914512962 	1.027637206e-07 	0.03788480973 	-9.959530567e-08 	7.221897688e-05
0.4764955107 	0.09282763815 	-0.03922476903 	1.023332198e-07 	0.03797345948 	-9.897330036e-08 	7.238796794e-05
0.4767734216 	0.0929740062 	-0.0392818354 	1.018094326e-07 	0.0380556939 	-9.825758835e-08 	7.25447296e-05
0.4770565557 	0.09309393156 	-0.03932924536 	1.012685069e-07 	0.03811592817 	-9.748609118e-08 	7.265955286e-05
0.4773450114 	0.0931772211 	-0.03936137309 	1.006978117e-07 	0.03816092884 	-9.66655876e-08 	7.274533665e-05
0.4776388886 	0.09323224678 	-0.03938131459 	1.001006385e-07 	0.03818956059 	-9.578907237e-08 	7.279991672e-05
0.4779382892 	0.093260664 	-0.03939022546 	9.947669112e-08 	0.03820500734 	-9.485848898e-08 	7.282936252e-05
0.4782433171 	0.09326536137 	-0.03938908518 	9.882568769e-08 	0.03820806401 	-9.387150441e-08 	7.283518938e-05
0.4785540779 	0.09324847715 	-0.03937889647 	9.814757906e-08 	0.03820013507 	-9.282721034e-08 	7.282007461e-05
0.4788706795 	0.09321188856 	-0.03936039202 	9.74419707e-08 	0.03818212046 	-9.172388172e-08 	7.278573377e-05
0.4791932316 	0.09315720666 	-0.0393342593 	9.670851657e-08 	0.03815490247 	-9.055991678e-08 	7.273384871e-05
0.4795218461 	0.09308579958 	-0.03930105999 	9.594673521e-08 	0.03811920697 	-8.933353418e-08 	7.266580318e-05
0.4798566368 	0.09299885067 	-0.03926128798 	9.51561001e-08 	0.03807567487 	-8.804289081e-08 	7.258281888e-05
0.48019772 	0.09289737664 	-0.03921536467 	9.433601199e-08 	0.03802485894 	-8.668605462e-08 	7.24859496e-05
0.4805452138 	0.09278225762 	-0.03916365555 	9.348581656e-08 	0.03796724117 	-8.526102162e-08 	7.237611411e-05
0.4808992388 	0.09265425489 	-0.03910647637 	9.260480448e-08 	0.03790324152 	-8.376571952e-08 	7.225411301e-05
0.4812599177 	0.09251402848 	-0.0390441009 	9.169221671e-08 	0.03783322676 	-8.219801379e-08 	7.212064541e-05
0.4816273755 	0.09236215085 	-0.03897676652 	9.074724735e-08 	0.03775751746 	-8.055571267e-08 	7.197632244e-05
0.4820017397 	0.09219911867 	-0.03890467917 	8.976904723e-08 	0.03767639398 	-7.883657155e-08 	7.182167854e-05
0.48238314 	0.09202536269 	-0.03882801746 	8.875672668e-08 	0.03759010152 	-7.703829752e-08 	7.165718113e-05
0.4827717088 	0.09184125608 	-0.03874693616 	8.770935851e-08 	0.03749885441 	-7.515855372e-08 	7.148323878e-05
0.4831675807 	0.09164712153 	-0.03866156917 	8.662598102e-08 	0.03740283978 	-7.319496382e-08 	7.130020821e-05
0.4835708931 	0.09144323735 	-0.03857203202 	8.550560069e-08 	0.03730222071 	-7.114511704e-08 	7.110840028e-05
0.4839817856 	0.0912298426 	-0.03847842404 	8.434719536e-08 	0.03719713894 	-6.900657359e-08 	7.090808523e-05
0.4844004009 	0.0910071416 	-0.03838083022 	8.314971717e-08 	0.03708771728 	-6.677687087e-08 	7.069949713e-05
0.4848268841 	0.09077530777 	-0.03827932281 	8.191209596e-08 	0.03697406162 	-6.445353062e-08 	7.048283787e-05
0.485261383 	0.09053448695 	-0.0381739627 	8.063324269e-08 	0.03685626281 	-6.203406717e-08 	7.025828058e-05
0.4857040484 	0.09028480037 	-0.03806480064 	7.931205302e-08 	0.03673439819 	-5.951599724e-08 	7.002597274e-05
0.4861550336 	0.09002634711 	-0.03795187826 	7.794741154e-08 	0.03660853309 	-5.689685109e-08 	6.978603889e-05
0.4866144951 	0.0897592064 	-0.03783522901 	7.653819587e-08 	0.0364787221 	-5.417418573e-08 	6.953858305e-05
0.4870825921 	0.08948343952 	-0.03771487898 	7.508328143e-08 	0.03634501021 	-5.134560012e-08 	6.928369104e-05
0.487559487 	0.0891990916 	-0.03759084758 	7.358154674e-08 	0.03620743394 	-4.840875262e-08 	6.902143242e-05
0.4880453452 	0.08890619312 	-0.03746314823 	7.203187891e-08 	0.03606602225 	-4.536138123e-08 	6.875186245e-05
0.4885403351 	0.08860476132 	-0.03733178886 	7.043317979e-08 	0.03592079755 	-4.220132654e-08 	6.847502381e-05
0.4890446283 	0.08829480144 	-0.03719677247 	6.878437288e-08 	0.03577177652 	-3.892655792e-08 	6.81909483e-05
0.4895583997 	0.08797630782 	-0.03705809758 	6.708441067e-08 	0.03561897095 	-3.553520298e-08 	6.789965841e-05
0.4900818274 	0.08764926498 	-0.03691575864 	6.533228265e-08 	0.03546238859 	-3.202558093e-08 	6.760116892e-05
0.4906150929 	0.0873136485 	-0.0367697464 	6.352702416e-08 	0.03530203393 	-2.83962397e-08 	6.729548836e-05
0.4911583811 	0.08696942596 	-0.03662004829 	6.166772588e-08 	0.03513790896 	-2.464599747e-08 	6.698262056e-05
0.4917118805 	0.08661655768 	-0.03646664877 	5.975354399e-08 	0.03497001404 	-2.077398859e-08 	6.666256616e-05
0.4922757829 	0.08625499754 	-0.03630952956 	5.77837113e-08 	0.03479834861 	-1.677971414e-08 	6.633532415e-05
0.4928502838 	0.08588469372 	-0.03614867003 	5.575754878e-08 	0.0346229121 	-1.266309758e-08 	6.60008934e-05
0.4934355824 	0.08550558932 	-0.0359840474 	5.367447797e-08 	0.03444370473 	-8.424545216e-09 	6.565927436e-05
0.4940318817 	0.08511762312 	-0.0358156371 	5.153403401e-08 	0.03426072841 	-4.065011863e-09 	6.531047063e-05
0.4946393885 	0.08472073018 	-0.03564341293 	4.93358792e-08 	0.03407398764 	4.139283465e-10 	6.495449082e-05
0.4952583133 	0.08431484253 	-0.03546734742 	4.707981697e-08 	0.03388349047 	5.010006285e-09 	6.459135027e-05
0.4958888709 	0.08389988977 	-0.03528741201 	4.476580609e-08 	0.03368924952 	9.720177089e-09 	6.422107303e-05
0.4965312797 	0.08347579972 	-0.03510357736 	4.239397534e-08 	0.03349128302 	1.454053534e-08 	6.384369386e-05
0.4971857627 	0.08304249907 	-0.03491581356 	3.996463741e-08 	0.0332896159 	1.946622587e-08 	6.345926028e-05
0.4978525466 	0.08259991409 	-0.03472409051 	3.747830414e-08 	0.033084281 	2.449135156e-08 	6.306783489e-05
0.4985318627 	0.08214797104 	-0.03452837784 	3.493569638e-08 	0.0328753201 	2.960887993e-08 	6.266949733e-05
0.4992239466 	0.08168659757 	-0.03432864609 	3.233776709e-08 	0.03266278576 	3.48105409e-08 	6.226434781e-05
0.4999290382 	0.08121572191 	-0.03412486464 	2.968568242e-08 	0.03244674032 	4.008675559e-08 	6.185250515e-05
0.5006473819 	0.08073527643 	-0.03391700788 	2.698090846e-08 	0.03222726463 	4.542644742e-08 	6.143412349e-05
0.501379227 	0.08024519472 	-0.03370504159 	2.422503236e-08 	0.03200443782 	5.081723009e-08 	6.100935365e-05
0.502124827 	0.07974540274 	-0.03348895209 	2.142015838e-08 	0.03177840557 	5.624449256e-08 	6.057847336e-05
0.5028844406 	0.07923588432 	-0.03326869961 	1.856825963e-08 	0.03154921004 	6.169370158e-08 	6.014156299e-05
0.5036583311 	0.07871638792 	-0.03304424585 	1.567157994e-08 	0.03131721786 	6.71447696e-08 	5.969932142e-05
0.5044467669 	0.0781876281 	-0.03281579112 	1.273553616e-08 	0.0310820407 	7.258528006e-08 	5.925100838e-05
0.5052500214 	0.07764748745 	-0.03258224669 	9.749390882e-09 	0.03084447908 	7.798326043e-08 	5.879814991e-05
0.506068373 	0.07703282032 	-0.03231715911 	6.355931258e-09 	0.03057217303 	8.400429541e-08 	5.82790589e-05
0.507324668 	0.07626470152 	-0.03198595007 	2.167143142e-09 	0.03023818514 	9.115294676e-08 	5.764238514e-05
0.5085949819 	0.07541108799 	-0.03161752779 	-2.402071547e-09 	0.02987692545 	9.856210726e-08 	5.695372377e-05
0.5098794711 	0.07455177682 	-0.03124726361 	-6.924160616e-09 	0.02951753094 	1.055108553e-07 	5.626861794e-05
0.5111782938 	0.07368375194 	-0.03087359437 	-1.140842619e-08 	0.02916157199 	1.119186609e-07 	5.559006125e-05
0.5124916099 	0.07280864946 	-0.03049710372 	-1.583587525e-08 	0.02880880677 	1.177352051e-07 	5.49175927e-05
0.5138195812 	0.07192654853 	-0.03011795434 	-2.019340377e-08 	0.02846019784 	1.228971569e-07 	5.425304719e-05
0.5151623712 	0.07103799182 	-0.0297363213 	-2.446812211e-08 	0.02811616799 	1.273517117e-07 	5.359723067e-05
0.5165201452 	0.07014343373 	-0.02935242831 	-2.864690119e-08 	0.02777736627 	1.31045953e-07 	5.295138044e-05
0.5178930705 	0.06924336065 	-0.02896646479 	-3.271787142e-08 	0.027444356 	1.339325637e-07 	5.231657029e-05
0.5192813161 	0.06833827135 	-0.0285786393 	-3.666969514e-08 	0.02711773751 	1.359687274e-07 	5.169394467e-05
0.520685053 	0.06742867134 	-0.02818915168 	-4.049217564e-08 	0.02679809884 	1.371176176e-07 	5.108462454e-05
0.522104454 	0.06651507848 	-0.02779820456 	-4.417618542e-08 	0.02648602655 	1.373488814e-07 	5.048972801e-05
0.523539694 	0.06559801905 	-0.0274059976 	-4.771387551e-08 	0.02618209542 	1.366393739e-07 	4.991035081e-05
0.5249909497 	0.06467802877 	-0.02701272871 	-5.10987469e-08 	0.02588686486 	1.349737137e-07 	4.934755931e-05
0.5264583998 	0.06375565134 	-0.02661859238 	-5.432574803e-08 	0.0256008731 	1.323447584e-07 	4.880237951e-05
0.527942225 	0.06283143794 	-0.02622377912 	-5.73913346e-08 	0.02532463184 	1.287539526e-07 	4.82757869e-05
0.5294426081 	0.06190594631 	-0.02582847437 	-6.02935117e-08 	0.0250586209 	1.242115369e-07 	4.776869613e-05
0.5309597337 	0.06097973994 	-0.02543285766 	-6.303185042e-08 	0.02480328294 	1.187366048e-07 	4.7281951e-05
0.5324937889 	0.06005338726 	-0.02503710166 	-6.560748042e-08 	0.02455901843 	1.12356997e-07 	4.681631495e-05
0.5340449624 	0.05912746083 	-0.02464137124 	-6.802305818e-08 	0.02432618102 	1.051090279e-07 	4.637246214e-05
0.5356134452 	0.05820253657 	-0.02424582268 	-7.028271138e-08 	0.02410507341 	9.703704548e-08 	4.595096958e-05
0.5371994306 	0.05727919291 	-0.02385060285 	-7.239196098e-08 	0.02389594369 	8.819282859e-08 	4.555231021e-05
0.5388031139 	0.05635801009 	-0.02345584843 	-7.435762265e-08 	0.02369898246 	7.863483305e-08 	4.517684736e-05
0.5404246925 	0.05543956933 	-0.02306168535 	-7.618768966e-08 	0.02351432064 	6.842730347e-08 	4.48248306e-05
0.5420643661 	0.05452445208 	-0.02266822814 	-7.78911999e-08 	0.02334202811 	5.763927171e-08 	4.449639315e-05
0.5437223366 	0.0536132392 	-0.02227557956 	-7.947809007e-08 	0.02318211317 	4.634346776e-08 	4.419155084e-05
0.5453988083 	0.05270651012 	-0.02188383019 	-8.095904031e-08 	0.02303452291 	3.461517179e-08 	4.391020278e-05
0.5470939875 	0.05180484202 	-0.02149305821 	-8.234531238e-08 	0.02289914437 	2.253103842e-08 	4.365213365e-05
0.5488080831 	0.0509088089 	-0.0211033293 	-8.364858479e-08 	0.02277580658 	1.016792478e-08 	4.341701755e-05
0.5505413061 	0.05001898068 	-0.02071469658 	-8.488078831e-08 	0.02266428337 	-2.398246646e-09 	4.320442331e-05
0.5522938699 	0.04913592218 	-0.02032720076 	-8.605394466e-08 	0.02256429684 	-1.50935615e-08 	4.30138212e-05
0.5540659904 	0.04826019217 	-0.01994087032 	-8.718001167e-08 	0.02247552151 	-2.784709761e-08 	4.284459075e-05
0.5558578859 	0.0473923423 	-0.01955572181 	-8.827073704e-08 	0.02239758891 	-4.059179778e-08 	4.269602955e-05
0.5576697768 	0.0465329161 	-0.01917176027 	-8.933752296e-08 	0.02233009261 	-5.326521481e-08 	4.256736285e-05
0.5595018865 	0.04568244792 	-0.01878897968 	-9.039130336e-08 	0.02227259357 	-6.581011721e-08 	4.245775369e-05
0.5613544406 	0.0448414619 	-0.01840736356 	-9.144243499e-08 	0.02222462554 	-7.817494978e-08 	4.236631329e-05
0.563227667 	0.04401047103 	-0.01802688553 	-9.250060337e-08 	0.02218570063 	-9.031414833e-08 	4.22921116e-05
0.5651217966 	0.04318997616 	-0.01764751003 	-9.357474358e-08 	0.02215531478 	-1.02188313e-07 	4.223418773e-05
0.5670370626 	0.04238046519 	-0.01726919299 	-9.467297686e-08 	0.02213295305 	-1.137642479e-07 	4.219156004e-05
0.5689737009 	0.04158241228 	-0.01689188258 	-9.5802561e-08 	0.02211809467 	-1.250148812e-07 	4.216323585e-05
0.5709319499 	0.04079627719 	-0.01651551998 	-9.696985711e-08 	0.02211021785 	-1.359190735e-07 	4.214822045e-05
0.5729120508 	0.04002250469 	-0.01614004013 	-9.818030534e-08 	0.02210880412 	-1.464613476e-07 	4.214552547e-05
0.5749142474 	0.03926152421 	-0.0157653725 	-9.943842461e-08 	0.0221133423 	-1.566315132e-07 	4.21541765e-05
0.5769387863 	0.0385137495 	-0.01539144183 	-1.007477929e-07 	0.02212333203 	-1.664243247e-07 	4.21732197e-05
0.5789859169 	0.03777957843 	-0.01501816891 	-1.021111132e-07 	0.02213828693 	-1.758388922e-07 	4.220172791e-05
0.5810558911 	0.03705939329 	-0.01464547132 	-1.03530096e-07 	0.02215773692 	-1.848786233e-07 	4.223880499e-05
0.583148964 	0.03635355976 	-0.01427326367 	-1.05005971e-07 	0.02218123101 	-1.935495876e-07 	4.228359126e-05
0.5852653933 	0.03566242954 	-0.01390145955 	-1.065391287e-07 	0.02220833834 	-2.018617541e-07 	4.233526537e-05
0.5874054395 	0.03498634035 	-0.01352997188 	-1.081281569e-07 	0.0222386489 	-2.098277171e-07 	4.239304572e-05
0.5895693664 	0.03432561177 	-0.01315871081 	-1.097722807e-07 	0.02227177686 	-2.174607285e-07 	4.245619682e-05
0.5917574402 	0.03368054969 	-0.01278758646 	-1.114694437e-07 	0.02230735957 	-2.247772235e-07 	4.252402734e-05
0.5939699306 	0.03305144836 	-0.01241651036 	-1.132161538e-07 	0.02234505711 	-2.31794519e-07 	4.259588934e-05
0.5962071099 	0.03243858891 	-0.01204539456 	-1.15009257e-07 	0.02238455348 	-2.385302201e-07 	4.267118039e-05
0.5984692536 	0.03184224087 	-0.01167415243 	-1.168446615e-07 	0.02242555579 	-2.450028726e-07 	4.27493422e-05
0.6007566404 	0.03126266275 	-0.01130269897 	-1.187179228e-07 	0.02246779408 	-2.512311129e-07 	4.282986011e-05
0.6030695519 	0.03070010304 	-0.01093095118 	-1.206240251e-07 	0.02251102052 	-2.57233546e-07 	4.291226173e-05
0.6054082729 	0.03015480101 	-0.01055882834 	-1.225575506e-07 	0.02255500874 	-2.630284226e-07 	4.29961155e-05
0.6077730914 	0.02962698759 	-0.01018625232 	-1.24512674e-07 	0.02259955284 	-2.686334521e-07 	4.308102894e-05
0.6101642987 	0.02911688622 	-0.009813147779 	-1.264832256e-07 	0.02264446645 	-2.740655989e-07 	4.316664677e-05
0.6125821893 	0.02862471364 	-0.009439442374 	-1.284627231e-07 	0.02268958161 	-2.793409191e-07 	4.325264879e-05
0.6150270608 	0.0281506806 	-0.009065066938 	-1.304444145e-07 	0.02273474764 	-2.844744141e-07 	4.33387478e-05
0.6174992144 	0.02769499262 	-0.008689955604 	-1.324213143e-07 	0.02277982998 	-2.894799089e-07 	4.342468728e-05
0.6199989545 	0.0272578505 	-0.008314045911 	-1.343862411e-07 	0.02282470897 	-2.943699485e-07 	4.351023909e-05
0.622526589 	0.02683945092 	-0.007937278879 	-1.363318522e-07 	0.02286927859 	-2.991557145e-07 	4.359520118e-05
0.625082429 	0.02643998685 	-0.007559599054 	-1.38250678e-07 	0.02291344531 	-3.038469578e-07 	4.367939523e-05
0.6276667894 	0.0260596479 	-0.007180954524 	-1.401351553e-07 	0.0229571268 	-3.084519473e-07 	4.376266428e-05
0.6302799884 	0.02569862061 	-0.006801296917 	-1.41977659e-07 	0.02300025072 	-3.129774345e-07 	4.384487046e-05
0.6329223478 	0.02535708858 	-0.006420581363 	-1.437705341e-07 	0.02304275355 	-3.174286316e-07 	4.392589268e-05
0.6355941931 	0.02503523255 	-0.006038766437 	-1.455061255e-07 	0.02308457941 	-3.21809204e-07 	4.400562439e-05
0.6382958531 	0.02473323047 	-0.005655814078 	-1.471768083e-07 	0.0231256789 	-3.261212748e-07 	4.408397143e-05
0.6410276607 	0.02445125736 	-0.005271689483 	-1.487750169e-07 	0.02316600798 	-3.303654432e-07 	4.416084986e-05
0.6437899523 	0.02418948518 	-0.004886360979 	-1.502932732e-07 	0.02320552692 	-3.345408139e-07 	4.423618396e-05
0.646583068 	0.02394808272 	-0.004499799874 	-1.517242144e-07 	0.02324419929 	-3.386450383e-07 	4.430990423e-05
0.6494073518 	0.02372721527 	-0.00411198028 	-1.530606202e-07 	0.0232819909 	-3.42674367e-07 	4.438194556e-05
0.6522631514 	0.02352704447 	-0.003722878925 	-1.542954383e-07 	0.02331886896 	-3.466237126e-07 	4.445224538e-05
0.6551508186 	0.023347728 	-0.003332474934 	-1.554218101e-07 	0.02335480114 	-3.50486721e-07 	4.45207421e-05
0.658070709 	0.02318941935 	-0.002940749597 	-1.564330921e-07 	0.02338975475 	-3.542558542e-07 	4.458737341e-05
0.6610231822 	0.02305226764 	-0.002547686108 	-1.573228848e-07 	0.02342369606 	-3.579224748e-07 	4.465207498e-05
0.6640086017 	0.02293641742 	-0.002153269317 	-1.580850295e-07 	0.02345658948 	-3.614769476e-07 	4.471477898e-05
0.6670273351 	0.02284200851 	-0.001757485339 	-1.587137014e-07 	0.02348839716 	-3.649087449e-07 	4.477541326e-05
0.6700797543 	0.02276917617 	-0.001360321663 	-1.592031471e-07 	0.02351907806 	-3.682065478e-07 	4.483389957e-05
0.6731662352 	0.02271805082 	-0.0009617667692 	-1.595480999e-07 	0.02354858852 	-3.713586862e-07 	4.48901547e-05
0.6762871577 	0.02268875904 	-0.0005618087633 	-1.59742712e-07 	0.02357687842 	-3.743522228e-07 	4.494408312e-05
0.6794429063 	0.02268142239 	-0.0001604390012 	-1.597833954e-07 	0.0236038969 	-3.771742946e-07 	4.499558785e-05
0.6826338695 	0.02269615805 	0.0002423563163 	-1.596681189e-07 	0.02362959003 	-3.798120684e-07 	4.50445661e-05
0.6858604404 	0.02273308267 	0.0006465974016 	-1.593905231e-07 	0.02365389214 	-3.822511267e-07 	4.509089268e-05
0.6891230163 	0.02279230915 	0.001052295931 	-1.589463721e-07 	0.02367673893 	-3.844779943e-07 	4.513444501e-05
0.6924219988 	0.02287394842 	0.001459464277 	-1.583336019e-07 	0.02369806205 	-3.864792271e-07 	4.51750928e-05
0.6957577944 	0.02297811224 	0.001868121141 	-1.575487891e-07 	0.02371778537 	-3.882408415e-07 	4.521269094e-05
0.6991308138 	0.02310491261 	0.002278286554 	-1.565893892e-07 	0.02373583072 	-3.897493749e-07 	4.524709038e-05
0.7025414724 	0.02325446418 	0.002689983803 	-1.554529657e-07 	0.02375211542 	-3.909914516e-07 	4.527813355e-05
0.7059901901 	0.02342688545 	0.003103239518 	-1.541374009e-07 	0.02376655368 	-3.91953999e-07 	4.530565688e-05
0.7094773917 	0.02362230078 	0.003518084259 	-1.526407886e-07 	0.02377905668 	-3.9262423e-07 	4.532949108e-05
0.7130035066 	0.02384084215 	0.003934552996 	-1.50961433e-07 	0.0237895335 	-3.929897025e-07 	4.53494628e-05
0.7165689691 	0.02408265139 	0.004352685648 	-1.49097803e-07 	0.02379789171 	-3.930383238e-07 	4.536539589e-05
0.7201742182 	0.02434788231 	0.004772527595 	-1.470484987e-07 	0.02380403836 	-3.927583584e-07 	4.537711311e-05
0.7238196978 	0.02463670352 	0.005194130386 	-1.448121993e-07 	0.02380788026 	-3.921384265e-07 	4.538443683e-05
0.727505857 	0.02494930056 	0.005617551765 	-1.423876451e-07 	0.02380932533 	-3.911674826e-07 	4.538719154e-05
0.7312331497 	0.02528587898 	0.006042858296 	-1.397734917e-07 	0.02380828635 	-3.89834603e-07 	4.538521095e-05
0.7350020349 	0.02564564869 	0.006468986449 	-1.369763876e-07 	0.02380470453 	-3.881336857e-07 	4.5378383e-05
0.7387709215 	0.02602534196 	0.006892427079 	-1.340226593e-07 	0.02379859944 	-3.860757713e-07 	4.536674501e-05
0.7424982157 	0.02642112506 	0.007309782296 	-1.309428958e-07 	0.02379006755 	-3.836845358e-07 	4.535048087e-05
0.7461843763 	0.02683107681 	0.007720185891 	-1.277524201e-07 	0.02377922542 	-3.809781733e-07 	4.532981274e-05
0.7498298574 	0.02725429856 	0.008123884047 	-1.244583923e-07 	0.02376619322 	-3.779691921e-07 	4.530496975e-05
0.7534351078 	0.02768996041 	0.00852111719 	-1.210673182e-07 	0.02375109828 	-3.746695452e-07 	4.52761946e-05
0.7570005716 	0.02813729489 	0.008912117907 	-1.175851495e-07 	0.02373407269 	-3.710905851e-07 	4.524373909e-05
0.7605266877 	0.02859559234 	0.009297111773 	-1.140173191e-07 	0.02371525291 	-3.672430224e-07 	4.520786336e-05
0.7640138905 	0.02906419572 	0.00967631742 	-1.103687855e-07 	0.02369478028 	-3.631368908e-07 	4.516883683e-05
0.7674626093 	0.02954249615 	0.01004994675 	-1.066441133e-07 	0.0236728008 	-3.587815125e-07 	4.512693784e-05
0.770873269 	0.03002992875 	0.01041820513 	-1.028474029e-07 	0.02364946501 	-3.54185509e-07 	4.508245335e-05
0.7742462894 	0.03052596872 	0.01078129154 	-9.898277283e-08 	0.02362492778 	-3.493567616e-07 	4.503567855e-05
0.777582086 	0.03103012764 	0.01113939858 	-9.505387253e-08 	0.02359934811 	-3.443024989e-07 	4.49869166e-05
0.7808810695 	0.03154195057 	0.01149271304 	-9.106347453e-08 	0.02357288896 	-3.390293967e-07 	4.49364781e-05
0.7841436462 	0.03206101328 	0.01184141616 	-8.701482436e-08 	0.02354571694 	-3.335433868e-07 	4.488468069e-05
0.787370218 	0.03258691885 	0.01218568341 	-8.291120682e-08 	0.02351800237 	-3.278497571e-07 	4.483184901e-05
0.7905611821 	0.03311929512 	0.0125256846 	-7.875546282e-08 	0.02348991903 	-3.21953275e-07 	4.477831435e-05
0.7937169314 	0.03365779258 	0.01286158423 	-7.455045936e-08 	0.023461644 	-3.158581796e-07 	4.472441429e-05
0.7968378547 	0.03420208207 	0.01319354157 	-7.029900956e-08 	0.02343335752 	-3.095682519e-07 	4.46704924e-05
0.7999243362 	0.03475185287 	0.01352171081 	-6.600393588e-08 	0.02340524278 	-3.030868463e-07 	4.461689789e-05
0.8029767561 	0.03530681082 	0.01384624118 	-6.166809525e-08 	0.02337748576 	-2.964169567e-07 	4.456398529e-05
0.8059954902 	0.0358666767 	0.01416727708 	-5.729440965e-08 	0.02335027501 	-2.895612737e-07 	4.451211405e-05
0.8089809102 	0.03643118468 	0.01448495816 	-5.288589351e-08 	0.02332380149 	-2.825222488e-07 	4.446164815e-05
0.8119333839 	0.0370000809 	0.01479941943 	-4.84456789e-08 	0.02329825826 	-2.753021612e-07 	4.441295565e-05
0.8148532749 	0.03757312224 	0.01511079135 	-4.397703846e-08 	0.02327384031 	-2.679031863e-07 	4.436640827e-05
0.8177409426 	0.0381500751 	0.01541919989 	-3.948340616e-08 	0.02325074426 	-2.603274674e-07 	4.432238078e-05
0.8205967427 	0.03873071443 	0.01572476664 	-3.496839575e-08 	0.02322916805 	-2.525771892e-07 	4.428125051e-05
0.8234210268 	0.03931482268 	0.01602760879 	-3.043581703e-08 	0.02320931059 	-2.446546526e-07 	4.424339669e-05
0.8262141429 	0.03990218897 	0.01632783928 	-2.588968958e-08 	0.0231913715 	-2.365623512e-07 	4.420919979e-05
0.8289764348 	0.04049260833 	0.01662556675 	-2.133425403e-08 	0.02317555061 	-2.283030481e-07 	4.417904078e-05
0.8317082427 	0.04108588093 	0.01692089563 	-1.677398112e-08 	0.02316204764 	-2.198798524e-07 	4.415330036e-05
0.8344099031 	0.04168181149 	0.01721392615 	-1.22135781e-08 	0.02315106168 	-2.11296296e-07 	4.413235807e-05
0.8370817486 	0.04228020869 	0.01750475436 	-7.657992579e-09 	0.02314279078 	-2.025564082e-07 	4.411659143e-05
0.8397241082 	0.04288088469 	0.01779347213 	-3.112413731e-09 	0.02313743138 	-1.936647892e-07 	4.410637493e-05
0.8423373074 	0.04348365462 	0.01808016717 	1.417729018e-09 	0.02313517784 	-1.846266795e-07 	4.410207906e-05
0.844921668 	0.04408833626 	0.01836492305 	5.926770052e-09 	0.02313622181 	-1.754480272e-07 	4.410406916e-05
0.8474775082 	0.04469474961 	0.01864781915 	1.040881424e-08 	0.02314075168 	-1.661355491e-07 	4.411270434e-05
0.8500051427 	0.04530271667 	0.01892893071 	1.485774641e-08 	0.02314895194 	-1.566967876e-07 	4.412833631e-05
0.8525048829 	0.04591206111 	0.01920832878 	1.926724327e-08 	0.02316100255 	-1.471401603e-07 	4.415130813e-05
0.8549770366 	0.04652260811 	0.01948608025 	2.363078814e-08 	0.0231770783 	-1.374750026e-07 	4.418195298e-05
0.8574219081 	0.04713418411 	0.01976224781 	2.794168831e-08 	0.02319734813 	-1.277116027e-07 	4.42205929e-05
0.8598397987 	0.04774661673 	0.02003688997 	3.219309462e-08 	0.02322197443 	-1.17861226e-07 	4.426753747e-05
0.862231006 	0.04835973458 	0.02031006101 	3.637802396e-08 	0.02325111239 	-1.079361312e-07 	4.432308252e-05
0.8645958245 	0.04897336722 	0.02058181104 	4.048938347e-08 	0.0232849093 	-9.79495757e-08 	4.438750884e-05
0.8669345455 	0.04958734506 	0.02085218594 	4.451999741e-08 	0.02332350389 	-8.791580804e-08 	4.446108085e-05
0.8692474569 	0.0502014993 	0.02112122739 	4.846263626e-08 	0.02336702565 	-7.785005203e-08 	4.454404541e-05
0.8715348435 	0.05081566192 	0.02138897289 	5.231004444e-08 	0.02341559416 	-6.776847345e-08 	4.463663051e-05
0.8737969871 	0.05142966566 	0.02165545573 	5.605498454e-08 	0.02346931854 	-5.768814342e-08 	4.47390441e-05
0.8760341663 	0.052043344 	0.02192070507 	5.96902288e-08 	0.0235282968 	-4.762699414e-08 	4.485147304e-05
0.8782466565 	0.05265653121 	0.02218474591 	6.320873266e-08 	0.02359261525 	-3.760372118e-08 	4.497408189e-05
0.8804347301 	0.05326906233 	0.02244759917 	6.66032339e-08 	0.02366234812 	-2.763791426e-08 	4.510701213e-05
0.8825986568 	0.05388077327 	0.02270928166 	6.986747213e-08 	0.02373755679 	-1.774895282e-08 	4.525038076e-05
0.8847387028 	0.05449150041 	0.02296980619 	7.299286033e-08 	0.02381829012 	-7.958373942e-09 	4.540428093e-05
0.8868551318 	0.05510108163 	0.02322918175 	7.597679247e-08 	0.02390458301 	1.719772474e-09 	4.556877915e-05
0.8889482045 	0.05570934978 	0.02348741113 	7.880206654e-08 	0.02399645966 	1.124933357e-08 	4.574392158e-05
0.8910181784 	0.05631614655 	0.02374449571 	8.14702265e-08 	0.02409392587 	2.061743342e-08 	4.592971926e-05
0.8930653087 	0.05692132424 	0.02400043836 	8.399925387e-08 	0.02419696942 	2.982065662e-08 	4.612614892e-05
0.8950898473 	0.05752472043 	0.0242552324 	8.636138188e-08 	0.02430557401 	3.880055568e-08 	4.633317944e-05
0.8970920436 	0.05812617394 	0.02450886518 	8.854470814e-08 	0.02441970494 	4.755008494e-08 	4.655074473e-05
0.8990721441 	0.05872553072 	0.02476132464 	9.055110308e-08 	0.02453931144 	5.606533592e-08 	4.677874796e-05
0.9010303927 	0.05932263503 	0.0250125947 	9.237327074e-08 	0.02466433233 	6.431093782e-08 	4.701707253e-05
0.9029670306 	0.05991733383 	0.0252626559 	9.401083494e-08 	0.02479469031 	7.227047728e-08 	4.726557107e-05
0.9048822962 	0.06050947528 	0.02551148606 	9.546054791e-08 	0.02493029535 	7.992388805e-08 	4.752407195e-05
0.9067764254 	0.06109890907 	0.02575906006 	9.672078059e-08 	0.02507104403 	8.725367284e-08 	4.779237805e-05
0.9086496514 	0.06168548643 	0.02600535017 	9.778977493e-08 	0.02521682039 	9.424271627e-08 	4.807026832e-05
0.910502205 	0.06226906022 	0.02625032616 	9.866641621e-08 	0.02536749627 	1.008751863e-07 	4.835749841e-05
0.9123343142 	0.06284948501 	0.02649395549 	9.934998633e-08 	0.02552293187 	1.071364343e-07 	4.865380188e-05
0.9141462048 	0.06342661713 	0.02673620347 	9.98403012e-08 	0.02568297643 	1.130132049e-07 	4.895889129e-05
0.9159380997 	0.06400031482 	0.02697703346 	1.00137704e-07 	0.0258474688 	1.184935225e-07 	4.927245946e-05
0.9177102197 	0.06457043821 	0.02721640702 	1.002429522e-07 	0.02601623824 	1.235672058e-07 	4.959418093e-05
0.9194627831 	0.0651368495 	0.02745428415 	1.001579529e-07 	0.02618910515 	1.282253528e-07 	4.99237133e-05
0.9211960055 	0.06569941276 	0.02769062331 	9.988295593e-08 	0.02636588191 	1.324614788e-07 	5.026069895e-05
0.9229101006 	0.06625799377 	0.0279253815 	9.942000966e-08 	0.02654637379 	1.362700433e-07 	5.060476663e-05
0.9246052793 	0.06681246121 	0.02815851492 	9.877584056e-08 	0.02673037937 	1.396450514e-07 	5.09555324e-05
0.9262817504 	0.06736268697 	0.02838997929 	9.795355173e-08 	0.02691769136 	1.425844582e-07 	5.131260112e-05
0.9279397204 	0.06790854491 	0.02861972938 	9.695554733e-08 	0.02710809788 	1.450883644e-07 	5.167556887e-05
0.9295793934 	0.06844991107 	0.02884771924 	9.578694773e-08 	0.02730138325 	1.471576469e-07 	5.204402451e-05
0.9312009714 	0.06898666414 	0.02907390257 	9.445278491e-08 	0.02749732875 	1.487950355e-07 	5.241755109e-05
0.9328046541 	0.06951868546 	0.02929823279 	9.295867998e-08 	0.02769571346 	1.50004533e-07 	5.279572747e-05
0.9343906389 	0.0700458591 	0.02952066324 	9.131068265e-08 	0.02789631501 	1.507917871e-07 	5.31781298e-05
0.9359591211 	0.07056807188 	0.02974114724 	8.951524331e-08 	0.02809891045 	1.511638639e-07 	5.356433301e-05