0.4709477638 	1.951574015e-05 	-7.334199562e-07 	-1.050869274e-12 	1.943301435e-05 	2.026106341e-11 	3.704472648e-08
0.4711221554 	0.0002254657305 	-3.153500198e-05 	1.231781787e-10 	0.0002171781961 	-4.742969941e-10 	4.140020032e-07
0.471296547 	0.001372608171 	-0.0003745265737 	2.266421364e-09 	0.001161335464 	-4.122855649e-09 	2.21382817e-06
0.4714709388 	0.005134173382 	-0.001880946951 	1.18974043e-08 	0.003458282209 	-1.318268805e-08 	6.592447071e-06
0.4716453306 	0.01320430915 	-0.005374943526 	2.970029832e-08 	0.0070103406 	-2.382862963e-08 	1.336365761e-05
0.4718197225 	0.02483655249 	-0.01043232069 	4.450561748e-08 	0.0110649554 	-3.084193872e-08 	2.109288033e-05
0.4719941144 	0.03705344599 	-0.01569038242 	4.731448781e-08 	0.01500674853 	-3.325413452e-08 	2.86070336e-05
0.4721685065 	0.04760861594 	-0.02019428078 	4.111457088e-08 	0.01856358183 	-3.146902449e-08 	3.538734644e-05
0.4723428986 	0.05597254557 	-0.02374424776 	3.212975309e-08 	0.0216253437 	-2.632696448e-08 	4.122391554e-05
0.4725172908 	0.06243680086 	-0.02648173379 	2.34897905e-08 	0.02418328983 	-1.916511471e-08 	4.610007182e-05
0.4726916831 	0.06743761776 	-0.02859686989 	1.603456414e-08 	0.02628485229 	-1.101410219e-08 	5.010623397e-05
0.4728660755 	0.0713475745 	-0.03024835302 	9.771680746e-09 	0.02799981897 	-2.567936256e-09 	5.337543711e-05
0.4730404679 	0.07444539992 	-0.03155497394 	4.474605626e-09 	0.02940038094 	5.767373472e-09 	5.604529749e-05
0.4732148605 	0.07693223276 	-0.03260262884 	-1.072225797e-10 	0.03054999573 	1.378112023e-08 	5.82367828e-05
0.4733892531 	0.07895301603 	-0.03345316259 	-4.183775121e-09 	0.0315001921 	2.136633958e-08 	6.004812116e-05
0.4735636458 	0.08061321168 	-0.03415145761 	-7.916078644e-09 	0.03229141963 	2.846459243e-08 	6.155642075e-05
0.4737380385 	0.08199055296 	-0.03473050836 	-1.141688028e-08 	0.03295509961 	3.503193543e-08 	6.282157924e-05
0.4739124314 	0.08314313099 	-0.03521492199 	-1.477457488e-08 	0.03351564187 	4.106898356e-08 	6.38901286e-05
0.4740868243 	0.08411496087 	-0.0356233109 	-1.803177299e-08 	0.03399208526 	4.657198114e-08 	6.479836212e-05
0.4742612173 	0.08493982412 	-0.03596993676 	-2.114084877e-08 	0.03439937417 	5.154371688e-08 	6.557476798e-05
0.4744356104 	0.08564396904 	-0.03626587154 	-2.405170923e-08 	0.03474934036 	5.609028769e-08 	6.62419008e-05
0.4746100035 	0.08624804767 	-0.03651981828 	-2.676549004e-08 	0.0350514116 	6.026224063e-08 	6.681773254e-05
0.4747843968 	0.08676847374 	-0.03673868321 	-2.929881726e-08 	0.0353131559 	6.405751294e-08 	6.731668993e-05
0.4749587901 	0.08721841346 	-0.03692801032 	-3.166515478e-08 	0.03554072425 	6.751063621e-08 	6.775049846e-05
0.4751331835 	0.08760851667 	-0.03709225673 	-3.387154543e-08 	0.03573909987 	7.065057334e-08 	6.812865752e-05
0.475307577 	0.08794744647 	-0.03723511094 	-3.592371913e-08 	0.03591252346 	7.351176229e-08 	6.845925108e-05
0.4754819705 	0.08824247579 	-0.03735951799 	-3.782479787e-08 	0.03606415794 	7.61282672e-08 	6.874830854e-05
0.4756563641 	0.08849883953 	-0.03746791296 	-3.957589297e-08 	0.03619765252 	7.853222455e-08 	6.900278632e-05
0.4758307578 	0.08872419983 	-0.03756320677 	-4.118018156e-08 	0.0363135189 	8.075533868e-08 	6.922365984e-05
0.4760051516 	0.08891407362 	-0.03764267397 	-4.26323339e-08 	0.03641638762 	8.28204679e-08 	6.941975621e-05
0.4761795455 	0.08912331021 	-0.03773294426 	-4.410224434e-08 	0.03651186385 	8.498906378e-08 	6.960176045e-05
0.4764505135 	0.08933492529 	-0.03782425768 	-4.572759472e-08 	0.03661469647 	8.759944957e-08 	6.979778801e-05
0.4767265746 	0.0895028847 	-0.03789488522 	-4.719900651e-08 	0.03671294751 	9.029763699e-08 	6.998508178e-05
0.4770078244 	0.08964517163 	-0.0379562539 	-4.840491985e-08 	0.03678998171 	9.292757937e-08 	7.013193039e-05
0.4772943605 	0.08975194847 	-0.03800290466 	-4.93560592e-08 	0.03685248496 	9.55139696e-08 	7.025107896e-05
0.4775862823 	0.08983149988 	-0.03803790915 	-5.008346189e-08 	0.03689941226 	9.808421981e-08 	7.034053543e-05
0.477883691 	0.08988555149 	-0.03806243817 	-5.061484072e-08 	0.03693392032 	1.006542315e-07 	7.040631738e-05
0.4781866897 	0.08991701711 	-0.03807748518 	-5.097929926e-08 	0.03695682845 	1.032380611e-07 	7.044998664e-05
0.4784953834 	0.08992806923 	-0.0380840619 	-5.120291962e-08 	0.03696954445 	1.058459519e-07 	7.047422687e-05
0.4788098793 	0.08992061689 	-0.03808291326 	-5.130929756e-08 	0.03697298029 	1.084866198e-07 	7.048077654e-05
0.4791302864 	0.08989630288 	-0.0380747372 	-5.131875618e-08 	0.03696802677 	1.11167104e-07 	7.047133375e-05
0.4794567158 	0.08985652766 	-0.03806010673 	-5.124840287e-08 	0.03695541917 	1.138933307e-07 	7.044730017e-05
0.4797892807 	0.08980250716 	-0.03803952693 	-5.11124617e-08 	0.03693580724 	1.166702032e-07 	7.040991438e-05
0.4801280965 	0.08973529134 	-0.03801343073 	-5.092271126e-08 	0.0369097528 	1.195017523e-07 	7.036024736e-05
0.4804732805 	0.08965579429 	-0.03798219525 	-5.068873478e-08 	0.03687774634 	1.22390907e-07 	7.029923416e-05
0.4808249525 	0.08956481192 	-0.03794614836 	-5.041869078e-08 	0.03684021692 	1.253399961e-07 	7.022769266e-05
0.4811832346 	0.08946304224 	-0.03790557625 	-5.011867916e-08 	0.03679753725 	1.2834849e-07 	7.014633335e-05
0.4815482508 	0.08935108754 	-0.03786072668 	-4.979449248e-08 	0.03675004088 	1.314193563e-07 	7.005579206e-05
0.4819201278 	0.08922947284 	-0.03781182036 	-4.945040573e-08 	0.03669801593 	1.345493964e-07 	6.995661805e-05
0.4822991814 	0.08909863631 	-0.03775903372 	-4.906541577e-08 	0.03664169793 	1.377215788e-07 	6.98492603e-05
0.4826854948 	0.08895897687 	-0.03770252289 	-4.863795695e-08 	0.03658130499 	1.409404157e-07 	6.973413456e-05
0.4830790692 	0.0888108906 	-0.0376424529 	-4.819050378e-08 	0.03651704755 	1.44216977e-07 	6.961164203e-05
0.4834800412 	0.08865470847 	-0.03757896101 	-4.77307923e-08 	0.03644910871 	1.475506306e-07 	6.948213171e-05
0.4838885498 	0.08849070902 	-0.03751215931 	-4.72613929e-08 	0.03637764053 	1.509376007e-07 	6.934589349e-05
0.4843047367 	0.08831914051 	-0.03744214827 	-4.678572919e-08 	0.03630277605 	1.54374893e-07 	6.920318099e-05
0.4847287461 	0.08814021926 	-0.03736901519 	-4.63062773e-08 	0.03622463254 	1.578593842e-07 	6.905421774e-05
0.4851607251 	0.08795413479 	-0.03729283638 	-4.58252342e-08 	0.03614331237 	1.613877538e-07 	6.889919889e-05
0.4856008235 	0.08776105232 	-0.03721367817 	-4.53443821e-08 	0.03605890475 	1.649566066e-07 	6.873829451e-05
0.486049194 	0.08756111549 	-0.03713159798 	-4.486513349e-08 	0.03597148695 	1.685624847e-07 	6.857165189e-05
0.486505992 	0.08735444846 	-0.0370466452 	-4.438850674e-08 	0.03588112558 	1.722019318e-07 	6.8399398e-05
0.4869713759 	0.08714115782 	-0.036958862 	-4.391507222e-08 	0.03578787768 	1.758715846e-07 	6.822164159e-05
0.4874455071 	0.08692133425 	-0.03686828399 	-4.344504251e-08 	0.03569179172 	1.795681081e-07 	6.803847504e-05
0.4879285501 	0.08669505397 	-0.03677494084 	-4.297861013e-08 	0.03559290847 	1.832883284e-07 	6.784997609e-05
0.4884206723 	0.08646238005 	-0.03667885678 	-4.251619651e-08 	0.03549126181 	1.870292546e-07 	6.76562093e-05
0.4889220444 	0.08622336351 	-0.03658005108 	-4.20582516e-08 	0.03538687945 	1.907878779e-07 	6.74572275e-05
0.4894328402 	0.08597804438 	-0.03647853851 	-4.160507654e-08 	0.03527978358 	1.945612867e-07 	6.7253073e-05
0.489953237 	0.08572645256 	-0.03637432964 	-4.115685193e-08 	0.0351699915 	1.983467419e-07 	6.704377879e-05
0.4904834151 	0.08546860875 	-0.0362674312 	-4.071358785e-08 	0.03505751607 	2.021416456e-07 	6.682936936e-05
0.4910235584 	0.08520452523 	-0.03615784636 	-4.027515287e-08 	0.03494236598 	2.059435241e-07 	6.660986128e-05
0.4915738543 	0.08493420716 	-0.0360455751 	-3.984123562e-08 	0.03482454581 	2.097495258e-07 	6.638526329e-05
0.4921344935 	0.08465765089 	-0.0359306136 	-3.941109988e-08 	0.03470405753 	2.135574175e-07 	6.615557915e-05
0.4927056705 	0.08437482736 	-0.03581295155 	-3.898258323e-08 	0.03458090331 	2.173655818e-07 	6.592081297e-05
0.4932877038 	0.08408566588 	-0.03569255785 	-3.85268747e-08 	0.0344550544 	2.211456271e-07 	6.568090998e-05
0.493881014 	0.0837901158 	-0.0355694028 	-3.801976648e-08 	0.03432648372 	2.248769386e-07 	6.543581853e-05
0.494485476 	0.0834882036 	-0.03544349658 	-3.750034922e-08 	0.03419521323 	2.285911528e-07 	6.518558049e-05
0.4951012995 	0.08317993739 	-0.03531484387 	-3.698069801e-08 	0.03406125944 	2.322987593e-07 	6.493022733e-05
0.4957286979 	0.08286527626 	-0.03518342471 	-3.645936162e-08 	0.03392461534 	2.359974634e-07 	6.466974569e-05
0.4963678888 	0.08254417895 	-0.03504921952 	-3.59356359e-08 	0.03378527259 	2.396876064e-07 	6.440411968e-05
0.4970190939 	0.08221659813 	-0.03491220617 	-3.540832052e-08 	0.03364322363 	2.433694668e-07 	6.41333349e-05
0.4976825391 	0.08188248263 	-0.03477236084 	-3.487632857e-08 	0.03349846104 	2.470436561e-07 	6.385737716e-05
0.4983584543 	0.08154177694 	-0.0346296577 	-3.433852841e-08 	0.03335097783 	2.507109937e-07 	6.357623317e-05
0.499047074 	0.0811944224 	-0.0344840698 	-3.379389869e-08 	0.0332007681 	2.543725761e-07 	6.328989167e-05
0.499748637 	0.08084035583 	-0.03433556691 	-3.32415667e-08 	0.03304782499 	2.580297496e-07 	6.299833959e-05
0.5004633866 	0.08047951264 	-0.03418412133 	-3.268097217e-08 	0.03289214813 	2.616841024e-07 	6.270157624e-05
0.5011915706 	0.08011182399 	-0.03402969435 	-3.211184422e-08 	0.03273372205 	2.653374972e-07 	6.239957209e-05
0.5019334415 	0.07973720686 	-0.03387226435 	-3.153468723e-08 	0.03257258229 	2.689927038e-07 	6.209239492e-05
0.5026892566 	0.07935562742 	-0.03371178181 	-3.095027044e-08 	0.03240864935 	2.726526989e-07 	6.177989317e-05
0.5034592781 	0.07896678725 	-0.0335481879 	-3.035939807e-08 	0.03224215642 	2.76319313e-07 	6.146251137e-05
0.5042438613 	0.07857127149 	-0.0333816438 	-2.9739138e-08 	0.03207256486 	2.79938853e-07 	6.113922272e-05
0.5050436692 	0.0781669358 	-0.03321101825 	-2.903957591e-08 	0.0319004166 	2.833906496e-07 	6.081106031e-05
0.5058585101 	0.07770834227 	-0.03301803144 	-2.822437629e-08 	0.0317013984 	2.868551982e-07 	6.043167629e-05
0.5071094171 	0.07713497316 	-0.03277637163 	-2.736353637e-08 	0.03145537935 	2.917009563e-07 	5.996269561e-05
0.5083742844 	0.07649644983 	-0.03250631093 	-2.643421604e-08 	0.03118671621 	2.967703247e-07 	5.9450549e-05
0.5096532679 	0.07585418433 	-0.03223476151 	-2.552416495e-08 	0.03091582517 	3.018255097e-07 	5.893415538e-05
0.5109465251 	0.07520493975 	-0.03196002572 	-2.460706178e-08 	0.03064368675 	3.067879532e-07 	5.841538392e-05
0.5122542152 	0.07454992074 	-0.03168251468 	-2.370222069e-08 	0.03036957896 	3.116505255e-07 	5.789285828e-05
0.5135764994 	0.07388878467 	-0.03140220619 	-2.281119593e-08 	0.03009393458 	3.164140527e-07 	5.736740349e-05
0.5149135406 	0.07322154259 	-0.03111905569 	-2.189980251e-08 	0.0298165991 	3.210382328e-07 	5.683872497e-05
0.5162662944 	0.07254809163 	-0.0308330417 	-2.087600886e-08 	0.02953760096 	3.254497887e-07 	5.630687699e-05
0.5176342307 	0.07186852939 	-0.03054419587 	-1.981523609e-08 	0.02925699052 	3.297142528e-07 	5.577195549e-05
0.5190174329 	0.07118297289 	-0.03025257908 	-1.876390856e-08 	0.02897486008 	3.338755913e-07 	5.523413647e-05
0.5204160715 	0.07049143386 	-0.02995819526 	-1.772641192e-08 	0.02869124748 	3.379345429e-07 	5.469349201e-05
0.5218303186 	0.06979391411 	-0.02966104794 	-1.670298033e-08 	0.02840619722 	3.4189251e-07 	5.4150107e-05
0.5232603485 	0.06909040928 	-0.02936113586 	-1.569173596e-08 	0.02811975756 	3.457488151e-07 	5.36040734e-05
0.5247063373 	0.06838088891 	-0.02905845187 	-1.468744017e-08 	0.02783198843 	3.495051414e-07 	5.305550546e-05
0.5261686128 	0.06766524275 	-0.02875295002 	-1.363268741e-08 	0.02754290789 	3.531058167e-07 	5.250443759e-05
0.5276479262 	0.0669433964 	-0.02844459271 	-1.246134843e-08 	0.02725254787 	3.564979829e-07 	5.195093069e-05
0.5291437481 	0.06621544134 	-0.02813342232 	-1.125698854e-08 	0.02696104263 	3.597508119e-07 	5.139524069e-05
0.5306562627 	0.0654814508 	-0.02781947288 	-1.005145288e-08 	0.02666852135 	3.628912628e-07 	5.083761382e-05
0.5321856561 	0.06474141512 	-0.02750273957 	-8.843326422e-09 	0.02637508379 	3.65911721e-07 	5.027824028e-05
0.5337321168 	0.06399532579 	-0.02718321717 	-7.627537807e-09 	0.02608083983 	3.688047379e-07 	4.971732952e-05
0.5352958352 	0.06324315922 	-0.02686089856 	-6.399879992e-09 	0.02578592013 	3.715700536e-07 	4.91551306e-05
0.5368770803 	0.06248481032 	-0.02653573734 	-5.103161189e-09 	0.02549041923 	3.741484057e-07 	4.859182375e-05
0.5384767466 	0.06172019763 	-0.02620768947 	-3.654382967e-09 	0.02519444026 	3.764691671e-07 	4.802760556e-05
0.5400942639 	0.06094941957 	-0.02587679631 	-2.13742453e-09 	0.02489819495 	3.785959842e-07 	4.746287968e-05
0.5417298313 	0.06017256723 	-0.0255430952 	-5.852534905e-10 	0.02460189865 	3.805517502e-07 	4.689805658e-05
0.5433836504 	0.0593896495 	-0.02520658307 	1.008097813e-09 	0.02430573808 	3.823191907e-07 	4.633349222e-05
0.5450559248 	0.05860067597 	-0.02486725947 	2.647992811e-09 	0.02400992355 	3.838909247e-07 	4.576958751e-05
0.5467468603 	0.05780560965 	-0.02452510264 	4.36705846e-09 	0.02371465992 	3.852309202e-07 	4.520673296e-05
0.5484571216 	0.05700438296 	-0.02418007073 	6.245218579e-09 	0.02342014017 	3.86264058e-07 	4.464529646e-05
0.5501868379 	0.05619703953 	-0.02383216983 	8.281082573e-09 	0.02312662107 	3.86982718e-07 	4.408576747e-05
0.551935856 	0.0553837126 	-0.0234814462 	1.041925098e-08 	0.02283441285 	3.874222487e-07 	4.352873739e-05
0.5537043912 	0.05456449338 	-0.02312792336 	1.26493574e-08 	0.02254381449 	3.875765385e-07 	4.297477615e-05
0.5554926614 	0.05373943919 	-0.02277160867 	1.497924441e-08 	0.02225512914 	3.874292593e-07 	4.242446163e-05
0.5573008867 	0.05290857493 	-0.02241249337 	1.744008977e-08 	0.02196866175 	3.869441046e-07 	4.187837518e-05
0.5591296733 	0.05207189678 	-0.02205054827 	2.010808866e-08 	0.02168470655 	3.860471452e-07 	4.133707764e-05
0.560979278 	0.05122950097 	-0.02168578414 	2.299591779e-08 	0.02140360786 	3.847168159e-07 	4.080122541e-05
0.5628495219 	0.0503815882 	-0.02131825615 	2.604854654e-08 	0.02112576162 	3.829829967e-07 	4.027157324e-05
0.5647406352 	0.04952833333 	-0.02094800059 	2.925500688e-08 	0.02085155194 	3.808358289e-07 	3.97488534e-05
0.5666528508 	0.0486698809 	-0.02057503747 	3.262272317e-08 	0.02058136542 	3.782598059e-07 	3.923380278e-05
0.5685864042 	0.04780633152 	-0.02019935951 	3.619911451e-08 	0.02031557064 	3.752030798e-07 	3.872712406e-05
0.570542153 	0.04693779736 	-0.0198209516 	4.006868085e-08 	0.02005452909 	3.715906256e-07 	3.822950632e-05
0.572519863 	0.04606455015 	-0.01943986447 	4.418823174e-08 	0.01979866269 	3.674439698e-07 	3.774175385e-05
0.5745196412 	0.04518691529 	-0.0190561623 	4.851977574e-08 	0.01954839705 	3.627753859e-07 	3.726467797e-05
0.5765417339 	0.04430518116 	-0.01866988206 	5.306259889e-08 	0.01930413322 	3.575730507e-07 	3.679904323e-05
0.5785863901 	0.04341961648 	-0.01828104011 	5.784587672e-08 	0.01906625084 	3.518071045e-07 	3.634557329e-05
0.580654223 	0.04253049308 	-0.0178896364 	6.293616618e-08 	0.01883510118 	3.454226291e-07 	3.59049378e-05
0.5827454845 	0.04163820023 	-0.01749570798 	6.833726728e-08 	0.01861104752 	3.384124948e-07 	3.547782925e-05
0.584860081 	0.04074324299 	-0.01709932692 	7.399812271e-08 	0.01839445428 	3.308044563e-07 	3.506494234e-05
0.5869982727 	0.03984613266 	-0.01670054933 	7.990171761e-08 	0.01818564964 	3.226040243e-07 	3.466690265e-05
0.5891603231 	0.03894736155 	-0.01629940103 	8.607000856e-08 	0.01798491475 	3.137959646e-07 	3.428424616e-05
0.5913468362 	0.03804744591 	-0.01589589158 	9.255843366e-08 	0.01779248473 	3.04347168e-07 	3.391742106e-05
0.5935580815 	0.03714703034 	-0.01549006321 	9.936357791e-08 	0.01760857695 	2.942678626e-07 	3.356684172e-05
0.5957940003 	0.03624688775 	-0.01508198899 	1.064314059e-07 	0.01743337672 	2.835974562e-07 	3.323286138e-05
0.5980548679 	0.03534781962 	-0.01467172711 	1.137375535e-07 	0.01726701011 	2.723600933e-07 	3.291572039e-05
0.6003409626 	0.03445062159 	-0.01425929988 	1.213051411e-07 	0.01710952696 	2.605553018e-07 	3.261551374e-05
0.6026530526 	0.03355615313 	-0.01384472188 	1.291814592e-07 	0.01696091304 	2.481705469e-07 	3.233221429e-05
0.6049910812 	0.03266544581 	-0.01342805372 	1.373196177e-07 	0.0168211211 	2.352512599e-07 	3.2065732e-05
0.6073551978 	0.0317796329 	-0.01300936631 	1.456662442e-07 	0.01669004967 	2.218352581e-07 	3.181587343e-05
0.6097456934 	0.03089986862 	-0.01258870055 	1.542069165e-07 	0.01656753514 	2.079412391e-07 	3.158232669e-05
0.6121630337 	0.03002734476 	-0.01216607088 	1.629636865e-07 	0.01645335881 	1.935705446e-07 	3.136467487e-05
0.6146077555 	0.02916337006 	-0.01174150317 	1.719347576e-07 	0.0163472696 	1.7873765e-07 	3.116243935e-05
0.6170797555 	0.02830940895 	-0.01131505594 	1.81048378e-07 	0.01624899329 	1.634932791e-07 	3.097509739e-05
0.6195793382 	0.02746698469 	-0.01088677462 	1.902569045e-07 	0.01615822157 	1.478712466e-07 	3.080206127e-05
0.6221068308 	0.02663762658 	-0.01045666232 	1.995653483e-07 	0.01607460431 	1.318874729e-07 	3.064266353e-05
0.6246630389 	0.0258229444 	-0.01002471922 	2.089879125e-07 	0.01599776765 	1.155513388e-07 	3.04961915e-05
0.6272477691 	0.02502470171 	-0.009590988928 	2.184454029e-07 	0.01592733395 	9.892127278e-08 	3.036192527e-05
0.6298613396 	0.02424471521 	-0.009155509229 	2.278780159e-07 	0.01586291496 	8.202784975e-08 	3.023912478e-05
0.6325040724 	0.02348478708 	-0.008718273772 	2.372798656e-07 	0.01580411329 	6.48833068e-08 	3.012703246e-05
0.6351767681 	0.02274676828 	-0.008279269651 	2.46656662e-07 	0.01575054348 	4.749010133e-08 	3.002491351e-05
0.637879297 	0.02203261657 	-0.007838521493 	2.559315951e-07 	0.01570185012 	2.989664355e-08 	2.993209044e-05
0.6406119808 	0.02134431009 	-0.007396046951 	2.650469414e-07 	0.01565769986 	1.212504372e-08 	2.984792777e-05
0.6433751986 	0.02068379203 	-0.006951825219 	2.739936733e-07 	0.01561778331 	-5.812962222e-09 	2.977183573e-05
0.6461696471 	0.02005301864 	-0.006505832993 	2.827638171e-07 	0.01558182816 	-2.39073855e-08 	2.970329522e-05
0.6489952759 	0.01945398751 	-0.006058076974 	2.912869492e-07 	0.015549607 	-4.211156739e-08 	2.964187274e-05
0.651852433 	0.01888866381 	-0.005608550387 	2.995189632e-07 	0.01552092572 	-6.040561884e-08 	2.958719823e-05
0.6547416225 	0.01835895221 	-0.00515721776 	3.074533357e-07 	0.01549562704 	-7.877323737e-08 	2.953897193e-05
0.6576632951 	0.01786673208 	-0.004704051588 	3.150621633e-07 	0.015473596 	-9.718412634e-08 	2.949697465e-05
0.6606175679 	0.01741384964 	-0.004249040223 	3.222895972e-07 	0.01545475421 	-1.155955759e-07 	2.946105696e-05
0.6636048046 	0.01700206745 	-0.003792151016 	3.291121564e-07 	0.0154390503 	-1.339826961e-07 	2.943112093e-05
0.6666256648 	0.01663306281 	-0.003333335264 	3.355270152e-07 	0.01542646162 	-1.523225927e-07 	2.940712341e-05
0.669680296 	0.01630844643 	-0.002872564707 	3.414893504e-07 	0.01541699402 	-1.705625824e-07 	2.938907554e-05
0.6727690111 	0.01602973103 	-0.002409806509 	3.469662782e-07 	0.01541066506 	-1.886704459e-07 	2.937701078e-05
0.6758923155 	0.01579831265 	-0.001945007304 	3.519534192e-07 	0.01540750445 	-2.066172037e-07 	2.937098578e-05
0.6790506612 	0.01561547819 	-0.001478116628 	3.564323211e-07 	0.01540755362 	-2.243609437e-07 	2.937107951e-05
0.6822442482 	0.0154823993 	-0.001009097712 	3.60369403e-07 	0.01541085282 	-2.418585359e-07 	2.937736871e-05
0.6854734979 	0.01540011188 	-0.0005378841193 	3.637612363e-07 	0.01541743765 	-2.590873073e-07 	2.938992122e-05
0.6887390312 	0.01536952018 	-6.444978759e-05 	3.665945267e-07 	0.01542734187 	-2.760001122e-07 	2.940880141e-05
0.6920410019 	0.01539138394 	0.0004112374566 	3.688712447e-07 	0.01544058988 	-2.92557533e-07 	2.943405579e-05
0.6953798168 	0.0154663227 	0.0008893232039 	3.706041702e-07 	0.01545718647 	-3.087585624e-07 	2.946569352e-05
0.698756113 	0.01559481557 	0.001369880283 	3.717357477e-07 	0.01547713045 	-3.245463758e-07 	2.950371228e-05
0.7021701015 	0.01577718031 	0.001852926125 	3.722539842e-07 	0.01550041207 	-3.398834422e-07 	2.954809353e-05
0.7056221843 	0.01601358677 	0.002338533664 	3.721905513e-07 	0.01552700334 	-3.547628143e-07 	2.959878387e-05
0.7091129689 	0.01630405467 	0.002826780776 	3.715499389e-07 	0.01555687345 	-3.69148545e-07 	2.96557246e-05
0.7126427354 	0.01664844469 	0.003317736723 	3.703280138e-07 	0.01558998901 	-3.830032531e-07 	2.971885207e-05
0.7162118886 	0.01704646946 	0.003811476543 	3.68532447e-07 	0.01562631232 	-3.963050259e-07 	2.978809439e-05
0.7198210316 	0.0174976987 	0.004308085093 	3.661801774e-07 	0.0156658179 	-4.090252329e-07 	2.986340301e-05
0.723470467 	0.01800154819 	0.004807638342 	3.632731619e-07 	0.01570849403 	-4.21120385e-07 	2.994475557e-05
0.7271606282 	0.01855729844 	0.005310217904 	3.598273115e-07 	0.01575434612 	-4.325635177e-07 	3.003216241e-05
0.7308921198 	0.01916409966 	0.005815913513 	3.558628669e-07 	0.01580342017 	-4.433138422e-07 	3.012571119e-05
0.7346652493 	0.01981910393 	0.006323448607 	3.513992938e-07 	0.01585567364 	-4.532975239e-07 	3.022532081e-05
0.7384384104 	0.02051475314 	0.00682862813 	3.465067104e-07 	0.01591074802 	-4.624182578e-07 	3.033030789e-05
0.7421700295 	0.02124226059 	0.007327344944 	3.412669204e-07 	0.01596821263 	-4.705873755e-07 	3.04398514e-05
0.7458604665 	0.02199630478 	0.00781847147 	3.357297896e-07 	0.01602794233 	-4.777863415e-07 	3.055371281e-05
0.7495102185 	0.02277355327 	0.008302217961 	3.299387082e-07 	0.01609001312 	-4.840344624e-07 	3.0672037e-05
0.7531197524 	0.02357090131 	0.008778784068 	3.239278181e-07 	0.01615454462 	-4.893360165e-07 	3.079505197e-05
0.756689452 	0.02438546403 	0.009248353488 	3.177287581e-07 	0.01622167979 	-4.937098955e-07 	3.092303025e-05
0.7602197968 	0.02521457788 	0.009711102053 	3.113745604e-07 	0.01629158602 	-4.971767532e-07 	3.105629096e-05
0.7637112218 	0.02605578336 	0.01016719466 	3.048897782e-07 	0.0163644527 	-4.997452978e-07 	3.119519511e-05
0.7671641163 	0.02690681765 	0.01061678395 	2.982977633e-07 	0.01644047537 	-5.014412011e-07 	3.134011545e-05
0.7705789354 	0.02776561068 	0.01106001631 	2.916231567e-07 	0.01651985755 	-5.022914575e-07 	3.149143995e-05
0.7739561018 	0.02863026719 	0.01149702925 	2.848833636e-07 	0.0166028074 	-5.023132643e-07 	3.164956542e-05
0.7772959987 	0.02949905824 	0.0119279501 	2.780947379e-07 	0.01668952402 	-5.015395298e-07 	3.181487139e-05
0.7805990549 	0.03037041659 	0.01235290139 	2.712754072e-07 	0.01678019948 	-5.00005381e-07 	3.198772402e-05
0.7838656901 	0.03124292009 	0.01277199914 	2.644379273e-07 	0.0168750177 	-4.977370343e-07 	3.216847391e-05
0.7870962757 	0.03211528106 	0.01318535069 	2.575933297e-07 	0.01697414356 	-4.947725217e-07 	3.235743534e-05
0.7902912146 	0.03298634342 	0.01359305969 	2.507548719e-07 	0.01707772449 	-4.911540107e-07 	3.255488939e-05
0.7934509267 	0.03385506902 	0.01399522556 	2.43932365e-07 	0.01718589189 	-4.869162539e-07 	3.276108651e-05
0.7965757693 	0.03472052446 	0.01439194054 	2.371334131e-07 	0.01729875442 	-4.820983362e-07 	3.297623387e-05
0.7996661275 	0.03558188029 	0.01478329348 	2.303670658e-07 	0.01741639711 	-4.76746768e-07 	3.320049353e-05
0.802722403 	0.03643840127 	0.01516937084 	2.236421994e-07 	0.0175388853 	-4.709031571e-07 	3.343399007e-05
0.8057449565 	0.03728943293 	0.01555025416 	2.169643711e-07 	0.01766626288 	-4.646047213e-07 	3.367680713e-05
0.8087341544 	0.03813439975 	0.01592602117 	2.103397646e-07 	0.01779854823 	-4.578981156e-07 	3.392897978e-05
0.811690371 	0.03897280003 	0.0162967484 	2.037764002e-07 	0.01793573942 	-4.508275642e-07 	3.419050432e-05
0.8146139778 	0.03980419484 	0.01666250959 	1.972792385e-07 	0.01807781584 	-4.434298547e-07 	3.446134146e-05
0.8175053211 	0.04062820292 	0.01702337503 	1.908531793e-07 	0.018224735 	-4.35745764e-07 	3.474141022e-05
0.8203647569 	0.041444499 	0.01737941356 	1.84504109e-07 	0.01837643439 	-4.278180037e-07 	3.503059141e-05
0.8231926472 	0.0422528071 	0.01773069302 	1.782379941e-07 	0.01853283578 	-4.196843706e-07 	3.532873592e-05
0.8259893348 	0.04305289297 	0.01807727896 	1.720587219e-07 	0.01869384535 	-4.113772921e-07 	3.563566491e-05
0.8287551595 	0.04384456258 	0.01841923492 	1.659706454e-07 	0.01885935215 	-4.029336614e-07 	3.595116689e-05
0.831490462 	0.0446276599 	0.01875662403 	1.599792159e-07 	0.0190292316 	-3.943885712e-07 	3.627500433e-05
0.8341955884 	0.04540206062 	0.01908950859 	1.540888827e-07 	0.01920334855 	-3.857714809e-07 	3.660691963e-05
0.8368708632 	0.04616766774 	0.01941794914 	1.483030201e-07 	0.01938155678 	-3.771089631e-07 	3.694663405e-05
0.8395166151 	0.04692441112 	0.01974200516 	1.426253239e-07 	0.01956369893 	-3.684300071e-07 	3.729384761e-05
0.8421331699 	0.04767224534 	0.02006173603 	1.370602347e-07 	0.01974960963 	-3.597609654e-07 	3.764824508e-05
0.8447208566 	0.04841114487 	0.02037720051 	1.316111429e-07 	0.01993911789 	-3.5112294e-07 	3.800950048e-05
0.8472799872 	0.0491411013 	0.02068845609 	1.262806204e-07 	0.02013204642 	-3.425350085e-07 	3.837727589e-05
0.8498108765 	0.04986212329 	0.02099555963 	1.210714611e-07 	0.02032821214 	-3.340173218e-07 	3.875122228e-05
0.8523138363 	0.05057423479 	0.02129856782 	1.15986683e-07 	0.02052742841 	-3.255877812e-07 	3.913098386e-05
0.8547891789 	0.0512774718 	0.02159753694 	1.110286521e-07 	0.02072950696 	-3.172601522e-07 	3.951620173e-05
0.8572372056 	0.05197188026 	0.02189252236 	1.061987237e-07 	0.02093425771 	-3.090456213e-07 	3.990651358e-05
0.8596582172 	0.05265751616 	0.02218357884 	1.014983296e-07 	0.02114148883 	-3.009562559e-07 	4.030155368e-05
0.8620525118 	0.05333444447 	0.02247076086 	9.692876279e-08 	0.02135100813 	-2.930026273e-07 	4.07009557e-05
0.8644203861 	0.05400273693 	0.02275412254 	9.249097717e-08 	0.02156262481 	-2.851925858e-07 	4.110435591e-05
0.8667621311 	0.05466247043 	0.02303371736 	8.818487345e-08 	0.02177614981 	-2.775307363e-07 	4.151139391e-05
0.8690780339 	0.05531372701 	0.02330959798 	8.401006946e-08 	0.02199139515 	-2.700225795e-07 	4.192171134e-05
0.8713683797 	0.05595659342 	0.02358181675 	7.996611492e-08 	0.02220817496 	-2.626728495e-07 	4.233495391e-05
0.8736334505 	0.05659115981 	0.0238504255 	7.60521661e-08 	0.02242630659 	-2.554848675e-07 	4.275077342e-05
0.8758735272 	0.05721751863 	0.02411547556 	7.226683779e-08 	0.02264561133 	-2.484594779e-07 	4.316882921e-05
0.8780888836 	0.05783576397 	0.02437701739 	6.860807443e-08 	0.02286591397 	-2.415969683e-07 	4.358878728e-05
0.8802797925 	0.05844599184 	0.02463510088 	6.507382582e-08 	0.02308704295 	-2.348980344e-07 	4.401032058e-05
0.8824465238 	0.05904829954 	0.02488977535 	6.166175316e-08 	0.02330883104 	-2.283627389e-07 	4.443311031e-05
0.8845893445 	0.05964278492 	0.02514108947 	5.836936619e-08 	0.02353111584 	-2.219902741e-07 	4.485684692e-05
0.8867085191 	0.06022954567 	0.02538909129 	5.51937406e-08 	0.02375374034 	-2.157780316e-07 	4.52812311e-05
0.8888043077 	0.06080867931 	0.0256338279 	5.213160864e-08 	0.02397655213 	-2.097239407e-07 	4.57059723e-05
0.8908769682 	0.06138028336 	0.02587534583 	4.917989743e-08 	0.02419940382 	-2.03826048e-07 	4.613078955e-05
0.892926756 	0.06194445472 	0.02611369082 	4.633529424e-08 	0.02442215333 	-1.980821065e-07 	4.655541203e-05
0.8949539235 	0.06250128952 	0.02634890789 	4.359454361e-08 	0.02464466409 	-1.924895258e-07 	4.697957938e-05
0.8969587209 	0.06305088257 	0.02658104134 	4.0954226e-08 	0.02486680546 	-1.870445442e-07 	4.740304257e-05
0.8989413945 	0.06359332746 	0.02681013453 	3.841076862e-08 	0.025088452 	-1.817439179e-07 	4.782556249e-05
0.9009021883 	0.06412871682 	0.02703623007 	3.596084538e-08 	0.02530948365 	-1.76584717e-07 	4.824691024e-05
0.9028413438 	0.06465714181 	0.02725936983 	3.360114256e-08 	0.02552978603 	-1.71563832e-07 	4.86668678e-05
0.9047590998 	0.06517869218 	0.02747959479 	3.132839597e-08 	0.02574925022 	-1.666781878e-07 	4.908522755e-05
0.9066556928 	0.06569345601 	0.02769694523 	2.913948748e-08 	0.02596777313 	-1.619241704e-07 	4.950179295e-05
0.9085313561 	0.06620151955 	0.02791146048 	2.703124988e-08 	0.02618525718 	-1.572980281e-07 	4.991637799e-05
0.9103863205 	0.06670296757 	0.02812317903 	2.500066806e-08 	0.02640160987 	-1.527966819e-07 	5.032880636e-05
0.9122208145 	0.06719788324 	0.0283321386 	2.304500293e-08 	0.0266167442 	-1.484169679e-07 	5.073891218e-05
0.914035064 	0.06768634786 	0.02853837602 	2.116151384e-08 	0.02683057837 	-1.44155786e-07 	5.114653956e-05
0.9158292924 	0.06816844106 	0.0287419273 	1.9347711e-08 	0.02704303579 	-1.400100686e-07 	5.155154243e-05
0.9176037208 	0.06864424044 	0.02894282761 	1.760121504e-08 	0.02725404518 	-1.359762577e-07 	5.195378498e-05
0.9193585675 	0.06911382179 	0.0291411112 	1.591969917e-08 	0.02746354006 	-1.320511769e-07 	5.235314046e-05
0.9210940486 	0.06957725919 	0.02933681146 	1.430109172e-08 	0.02767145865 	-1.282319328e-07 	5.274949108e-05
0.9228103778 	0.07003462479 	0.02952996094 	1.274348899e-08 	0.02787774401 	-1.245155348e-07 	5.31427283e-05
0.9245077665 	0.07048598884 	0.02972059126 	1.12450651e-08 	0.02808234367 	-1.208991004e-07 	5.353275213e-05
0.9261864236 	0.07093141973 	0.02990873316 	9.804207786e-09 	0.0282852096 	-1.173797711e-07 	5.391947097e-05
0.9278465561 	0.07137098373 	0.03009441651 	8.419442349e-09 	0.02848629823 	-1.139543481e-07 	5.430280179e-05
0.9294883681 	0.0718047451 	0.03027767015 	7.089352453e-09 	0.02868556999 	-1.106198406e-07 	5.468266914e-05
0.9311120619 	0.07223276622 	0.03045852204 	5.812727132e-09 	0.0288829891 	-1.073734534e-07 	5.505900484e-05
0.9327178375 	0.07265510731 	0.03063699914 	4.588490247e-09 	0.02907852367 	-1.042122966e-07 	5.543174808e-05
0.9343058925 	0.07307182642 	0.03081312742 	3.41566853e-09 	0.02927214538 	-1.011334542e-07 	5.580084486e-05
0.9358764224 	0.07348297943 	0.03098693181 	2.29337429e-09 	0.02946382919 	-9.813404666e-08 	5.616624748e-05
0.9374296209 	0.07388861987 	0.03115843619 	1.220863371e-09 	0.02965355336 	-9.521103891e-08 	5.652791449e-05