0.4535129604 	1.789178814e-05 	-6.530254698e-07 	1.401768384e-11 	1.797380705e-05 	-2.327263937e-10 	3.426307179e-08
0.4535129604 	1.789178814e-05 	-6.530254698e-07 	1.401768384e-11 	1.797380705e-05 	-2.327263937e-10 	3.426307179e-08
0.4536885212 	0.0002067158408 	-2.889603072e-05 	3.305539452e-10 	0.0002061982111 	-1.154458929e-09 	3.930711001e-07
0.4538640836 	0.001236979496 	-0.0003520460913 	1.856413822e-09 	0.001129812324 	-6.363706776e-10 	2.153736304e-06
0.4540396474 	0.004575919464 	-0.001818736979 	5.324251133e-10 	0.003469652762 	1.592029918e-08 	6.614122504e-06
0.4542152125 	0.01177090543 	-0.005330296748 	-1.813351289e-08 	0.007258379034 	6.826267532e-08 	1.38364878e-05
0.4543907787 	0.02227647684 	-0.01054746282 	-6.145912446e-08 	0.01174917309 	1.551459385e-07 	2.239718942e-05
0.4545663459 	0.03346656628 	-0.01606816149 	-1.160091776e-07 	0.01618537718 	2.530859906e-07 	3.085382741e-05
0.454741914 	0.0432430799 	-0.02083906992 	-1.659089464e-07 	0.0201798014 	3.419987851e-07 	3.846831015e-05
0.4549174829 	0.05104914963 	-0.0246095809 	-2.06043142e-07 	0.02359251303 	4.155385594e-07 	4.497388703e-05
0.4550930523 	0.05711438234 	-0.02751614608 	-2.373747321e-07 	0.02642400902 	4.748263912e-07 	5.037150536e-05
0.4552686222 	0.06182621241 	-0.02975901574 	-2.620180559e-07 	0.02873817249 	5.226845973e-07 	5.478294412e-05
0.4554441925 	0.06552397537 	-0.03150759906 	-2.817375449e-07 	0.0306189626 	5.617492248e-07 	5.836825281e-05
0.4556197629 	0.06846427736 	-0.03288877519 	-2.977552186e-07 	0.03214941116 	5.941229254e-07 	6.128571314e-05
0.4557953335 	0.07083335035 	-0.03399412347 	-3.108972326e-07 	0.0334010797 	6.21406696e-07 	6.367174125e-05
0.455970904 	0.07276587145 	-0.03488948242 	-3.217453669e-07 	0.03443153344 	6.448124483e-07 	6.563607249e-05
0.4561464743 	0.0743600773 	-0.03562258976 	-3.307309653e-07 	0.03528572942 	6.652634229e-07 	6.726440743e-05
0.4563220442 	0.07568850826 	-0.03622851885 	-3.381878302e-07 	0.03599848012 	6.834681509e-07 	6.862310836e-05
0.4564976137 	0.07680544935 	-0.03673341466 	-3.443828463e-07 	0.03659676947 	6.999725176e-07 	6.976361416e-05
0.4566731827 	0.07775207598 	-0.03715705018 	-3.495345703e-07 	0.03710161928 	7.151968477e-07 	7.072599821e-05
0.4568487509 	0.0785600292 	-0.03751458592 	-3.538248675e-07 	0.03752952045 	7.294630838e-07 	7.154169677e-05
0.4570243182 	0.07925392076 	-0.03781779355 	-3.574064092e-07 	0.03789351224 	7.430153296e-07 	7.223556629e-05
0.4571998846 	0.07985311122 	-0.03807592099 	-3.604077179e-07 	0.03820399344 	7.560358817e-07 	7.282742976e-05
0.4573754499 	0.08037298549 	-0.03829630644 	-3.629368726e-07 	0.03846932403 	7.686578605e-07 	7.333322359e-05
0.4575510139 	0.08082589054 	-0.03848484072 	-3.650841226e-07 	0.03869629846 	7.809757288e-07 	7.376589994e-05
0.4577265766 	0.08122181882 	-0.03864626716 	-3.669250114e-07 	0.0388904324 	7.930529784e-07 	7.413597319e-05
0.4579021377 	0.08156889565 	-0.03878449744 	-3.685194317e-07 	0.03905640928 	8.049298936e-07 	7.445237126e-05
0.4580776973 	0.08187394871 	-0.03890269293 	-3.699218987e-07 	0.03919778043 	8.16628569e-07 	7.472186396e-05
0.458253255 	0.08214189355 	-0.03900337591 	-3.711557224e-07 	0.0393184731 	8.281528854e-07 	7.495193773e-05
0.4584288109 	0.08237984133 	-0.03908979137 	-3.722996109e-07 	0.0394194785 	8.395442683e-07 	7.51444821e-05
0.4586043647 	0.08258406084 	-0.03915899387 	-3.732767833e-07 	0.03950495249 	8.506643914e-07 	7.530741927e-05
0.4587799164 	0.08280843799 	-0.03923732144 	-3.738225048e-07 	0.03958006461 	8.61525613e-07 	7.545060386e-05
0.4590526787 	0.0830409115 	-0.03931139965 	-3.761186208e-07 	0.03965389097 	8.789440323e-07 	7.559133742e-05
0.4593305614 	0.08323487863 	-0.0393597183 	-3.772497013e-07 	0.03971515364 	8.951241175e-07 	7.570812109e-05
0.4596136599 	0.08340295728 	-0.03939680863 	-3.784139411e-07 	0.03975244221 	9.110245586e-07 	7.577920348e-05
0.4599020716 	0.08353664577 	-0.03941674502 	-3.794270534e-07 	0.03977156652 	9.262703458e-07 	7.581565971e-05
0.4601958952 	0.08364353546 	-0.03942298681 	-3.803505155e-07 	0.03977208335 	9.407908743e-07 	7.581664495e-05
0.4604952317 	0.08372524972 	-0.03941664869 	-3.811216487e-07 	0.03975729686 	9.544284734e-07 	7.578845779e-05
0.4608001837 	0.08378452137 	-0.0393988482 	-3.817181695e-07 	0.03972827282 	9.670417541e-07 	7.573312991e-05
0.4611108555 	0.0838233858 	-0.03937064747 	-3.820968344e-07 	0.03968661408 	9.784910245e-07 	7.565371676e-05
0.4614273535 	0.08384364689 	-0.03933286465 	-3.822177466e-07 	0.03963341871 	9.886409109e-07 	7.555231161e-05
0.4617497859 	0.08384685576 	-0.03928625637 	-3.820361514e-07 	0.03956975117 	9.973635724e-07 	7.543094357e-05
0.462078263 	0.08383434133 	-0.03923145382 	-3.815068527e-07 	0.03949650936 	1.004538035e-06 	7.529132433e-05
0.4624128968 	0.08380725981 	-0.03916901545 	-3.805837205e-07 	0.03941449615 	1.01005123e-06 	7.513498436e-05
0.4627538017 	0.08376661336 	-0.03909942595 	-3.792210037e-07 	0.03932442 	1.013799135e-06 	7.496327418e-05
0.4631010937 	0.08371327857 	-0.03902311014 	-3.773734524e-07 	0.03922690563 	1.015684362e-06 	7.477738468e-05
0.4634548912 	0.08364801349 	-0.03894044261 	-3.749947329e-07 	0.03912252482 	1.015625529e-06 	7.457840584e-05
0.4638153145 	0.08357151759 	-0.03885176164 	-3.720496032e-07 	0.03901175071 	1.013541231e-06 	7.436723961e-05
0.4641824861 	0.0834842941 	-0.03875731735 	-3.684619969e-07 	0.03889507726 	1.009370668e-06 	7.414482758e-05
0.4645565307 	0.08338689479 	-0.03865735453 	-3.641975337e-07 	0.03877276915 	1.002989913e-06 	7.391167434e-05
0.4649388915 	0.0832796807 	-0.03855196749 	-3.592712171e-07 	0.03864491963 	9.943663119e-07 	7.366795761e-05
0.4653293684 	0.08316277634 	-0.0384412361 	-3.535681264e-07 	0.03851198871 	9.835138912e-07 	7.341455434e-05
0.465727164 	0.08303673407 	-0.03832551953 	-3.470502711e-07 	0.03837443279 	9.703539808e-07 	7.315233453e-05
0.4661324151 	0.08290204165 	-0.03820509994 	-3.39737886e-07 	0.03823255905 	9.54853356e-07 	7.288188373e-05
0.4665452612 	0.08275894804 	-0.03808011352 	-3.315823571e-07 	0.03808664283 	9.37007486e-07 	7.260372687e-05
0.4669658443 	0.08260772018 	-0.03795069994 	-3.225499577e-07 	0.03793689792 	9.167861153e-07 	7.231827146e-05
0.467394309 	0.08244858224 	-0.03781698358 	-3.126058919e-07 	0.03778353593 	8.941760427e-07 	7.202592087e-05
0.4678308029 	0.08228173745 	-0.03767907576 	-3.017149037e-07 	0.03762674138 	8.691615842e-07 	7.172702688e-05
0.4682754759 	0.08210736662 	-0.03753707824 	-2.89842744e-07 	0.03746668493 	8.417332461e-07 	7.142191481e-05
0.4687284811 	0.08192563143 	-0.03739108269 	-2.769548845e-07 	0.03730352056 	8.118838151e-07 	7.111087817e-05
0.4691899741 	0.08173667691 	-0.03724117259 	-2.630171755e-07 	0.03713738852 	7.796092109e-07 	7.079418432e-05
0.4696601137 	0.08154063334 	-0.03708742369 	-2.479955474e-07 	0.03696841595 	7.449075573e-07 	7.047207563e-05
0.4701390614 	0.08133761826 	-0.03692990491 	-2.318561743e-07 	0.03679671812 	7.07778915e-07 	7.014477186e-05
0.470626982 	0.08112773805 	-0.03676867902 	-2.145654727e-07 	0.03662239934 	6.682248199e-07 	6.981247181e-05
0.4711240431 	0.08091108945 	-0.03660380317 	-1.9609019e-07 	0.03644555374 	6.262478701e-07 	6.947535494e-05
0.4716304156 	0.08068776084 	-0.03643532949 	-1.76397474e-07 	0.03626626613 	5.818513329e-07 	6.913358294e-05
0.4721462736 	0.0804578335 	-0.03626330552 	-1.554550281e-07 	0.03608461257 	5.350386209e-07 	6.878730075e-05
0.4726717942 	0.0802213822 	-0.03608777446 	-1.332309849e-07 	0.03590066134 	4.858129907e-07 	6.843663858e-05
0.473207158 	0.07997847742 	-0.03590877631 	-1.096948019e-07 	0.03571447306 	4.341774288e-07 	6.808171198e-05
0.4737525491 	0.0797291819 	-0.03572634529 	-8.481440228e-08 	0.03552610174 	3.801348445e-07 	6.772262389e-05
0.4743081547 	0.07947356547 	-0.03554052045 	-5.856528749e-08 	0.03533559525 	3.23694316e-07 	6.735946557e-05
0.4748741658 	0.07921167258 	-0.03535131364 	-3.090433341e-08 	0.035142979 	2.64845919e-07 	6.699228545e-05
0.4754507766 	0.07894340723 	-0.03515868037 	-1.748109282e-09 	0.03494829693 	2.035696497e-07 	6.662116733e-05
0.4760390304 	0.07866868621 	-0.03496246616 	2.888853738e-08 	0.03475113435 	1.396212854e-07 	6.624532064e-05
0.4766406634 	0.07838715329 	-0.03476247638 	6.123703401e-08 	0.0345515374 	7.299396828e-08 	6.586483338e-05
0.4772535582 	0.07809910816 	-0.03455894157 	9.528023837e-08 	0.03434985228 	3.825674939e-09 	6.548036548e-05
0.4778779252 	0.07780510085 	-0.0343521619 	1.308370436e-07 	0.03414613072 	-6.789287618e-08 	6.509201558e-05
0.4785139785 	0.07750506952 	-0.03414212839 	1.679924935e-07 	0.03394050147 	-1.42067862e-07 	6.470002908e-05
0.4791619364 	0.07719909165 	-0.03392885318 	2.067617618e-07 	0.03373292398 	-2.18756648e-07 	6.430432868e-05
0.479822021 	0.07688720684 	-0.03371235501 	2.4716593e-07 	0.03352342756 	-2.979545474e-07 	6.390497029e-05
0.4804944587 	0.07656946009 	-0.03349264217 	2.892288026e-07 	0.03331201013 	-3.796893733e-07 	6.35019499e-05
0.4811794801 	0.07624589439 	-0.0332697263 	3.329692895e-07 	0.03309867825 	-4.639786364e-07 	6.309528005e-05
0.4818773202 	0.07591655113 	-0.03304361604 	3.784069495e-07 	0.03288343321 	-5.508465375e-07 	6.268496317e-05
0.4825882181 	0.07558146927 	-0.03281431748 	4.255592735e-07 	0.03266627308 	-6.403187059e-07 	6.22709956e-05
0.4833124177 	0.07524068813 	-0.03258184088 	4.744411861e-07 	0.03244720241 	-7.324207332e-07 	6.185338603e-05
0.4840501672 	0.0748942429 	-0.0323461823 	5.250670499e-07 	0.0322262007 	-8.271928553e-07 	6.143209533e-05
0.4848017195 	0.07454215557 	-0.03210736257 	5.774434814e-07 	0.03200331661 	-9.246747531e-07 	6.100721632e-05
0.4855673323 	0.07418451426 	-0.0318653648 	6.315732511e-07 	0.03177841979 	-1.02499451e-06 	6.057850047e-05
0.4863472679 	0.07382096947 	-0.03162008397 	6.875753452e-07 	0.03155179662 	-1.128172559e-06 	6.014649372e-05
0.4871424131 	0.07345209234 	-0.03137159705 	7.454831939e-07 	0.0313224582 	-1.234131779e-06 	5.970931096e-05
0.487955776 	0.07307559365 	-0.03111850034 	8.057409737e-07 	0.0310907016 	-1.341313282e-06 	5.926751846e-05
0.488784347 	0.07264978703 	-0.03083245992 	8.735338037e-07 	0.03082571532 	-1.457160822e-06 	5.876238096e-05
0.4900561769 	0.07211871568 	-0.03047757049 	9.648023295e-07 	0.03050120421 	-1.612743558e-06 	5.814377259e-05
0.4913420125 	0.07152790634 	-0.03008557913 	1.030334481e-06 	0.03015021101 	-1.728727545e-06 	5.747468201e-05
0.492642009 	0.07093476984 	-0.0296943861 	1.071460072e-06 	0.02980110077 	-1.803914205e-06 	5.680918086e-05
0.4939563229 	0.07033621291 	-0.02930217364 	1.108121493e-06 	0.02945461118 	-1.868430542e-06 	5.61486754e-05
0.4952851132 	0.06973350416 	-0.0289094243 	1.140446185e-06 	0.02910976544 	-1.922529867e-06 	5.549130358e-05
0.4966285401 	0.06912614252 	-0.0285160553 	1.168630789e-06 	0.02876703426 	-1.966703181e-06 	5.483796268e-05
0.4979867659 	0.06851402783 	-0.02812180635 	1.192707555e-06 	0.02842550001 	-2.001904757e-06 	5.418690347e-05
0.4993654849 	0.06789624239 	-0.02772619622 	1.212810286e-06 	0.02808492599 	-2.028152847e-06 	5.353767474e-05
0.5007599792 	0.06727309341 	-0.02732947924 	1.229158606e-06 	0.02774566443 	-2.045968326e-06 	5.289094791e-05
0.5021698222 	0.06664568551 	-0.02693223236 	1.241436278e-06 	0.027407669 	-2.055740422e-06 	5.224663469e-05
0.5035951842 	0.06601390838 	-0.02653446269 	1.249774879e-06 	0.02707108649 	-2.057611928e-06 	5.160501487e-05
0.5050362374 	0.06537781847 	-0.02613615523 	1.254222391e-06 	0.02673573333 	-2.052022085e-06 	5.096573853e-05
0.506493156 	0.06473742892 	-0.02573729487 	1.254823797e-06 	0.0264015019 	-2.039336839e-06 	5.032860054e-05
0.5079661163 	0.06409254353 	-0.02533778331 	1.251686496e-06 	0.02606834938 	-2.019935025e-06 	4.969351924e-05
0.5094563425 	0.06344280613 	-0.02493729142 	1.244786975e-06 	0.02573562477 	-1.99425821e-06 	4.905925366e-05
0.5109679966 	0.06278751252 	-0.02453544894 	1.234148467e-06 	0.02540325244 	-1.962273481e-06 	4.842565961e-05
0.5124962823 	0.06212723251 	-0.02413260147 	1.220014182e-06 	0.02507155787 	-1.924733591e-06 	4.779335759e-05
0.5140413844 	0.06146282148 	-0.02372915065 	1.202222449e-06 	0.02474050596 	-1.881958657e-06 	4.716228062e-05
0.5156034901 	0.06079410565 	-0.02332504555 	1.180893562e-06 	0.0244102672 	-1.834136751e-06 	4.653275376e-05
0.5171827887 	0.06012118184 	-0.02292023443 	1.156073255e-06 	0.02408062978 	-1.781641549e-06 	4.590437322e-05
0.5187794715 	0.05944386932 	-0.02251464792 	1.127862706e-06 	0.02375172377 	-1.724715894e-06 	4.527738696e-05
0.5203942656 	0.05876189373 	-0.02210797246 	1.096268906e-06 	0.02342293684 	-1.663710697e-06 	4.465062769e-05
0.5220322396 	0.0580744978 	-0.02169980038 	1.061183668e-06 	0.02309423415 	-1.598372308e-06 	4.4024029e-05
0.5236882315 	0.05738220626 	-0.02129041915 	1.02302005e-06 	0.02276598195 	-1.529511372e-06 	4.339828907e-05
0.525362442 	0.05668595254 	-0.02088023975 	9.817015959e-07 	0.02243819217 	-1.457353936e-06 	4.277343066e-05
0.5270550745 	0.05598560156 	-0.0204691948 	9.373542994e-07 	0.02211106214 	-1.382027793e-06 	4.214982989e-05
0.5287663347 	0.05528117022 	-0.02005721959 	8.900783619e-07 	0.02178459 	-1.303750237e-06 	4.152748325e-05
0.5304964306 	0.0545725377 	-0.01964415946 	8.399555151e-07 	0.02145858952 	-1.222728433e-06 	4.090603573e-05
0.5322487505 	0.0538591672 	-0.01922963536 	7.868937665e-07 	0.02113283961 	-1.138796355e-06 	4.028506587e-05
0.5340229257 	0.05314099598 	-0.0188135943 	7.311272292e-07 	0.02080757845 	-1.052248804e-06 	3.96650277e-05
0.5358166178 	0.05241886034 	-0.01839639541 	6.72895572e-07 	0.02048299528 	-9.635215789e-07 	3.904628197e-05
0.537630045 	0.05169315113 	-0.01797818794 	6.122919811e-07 	0.02015928555 	-8.727011938e-07 	3.842920124e-05
0.5394634285 	0.05096386469 	-0.01755891213 	5.494510775e-07 	0.01983661972 	-7.798829903e-07 	3.781411049e-05
0.5413169919 	0.0502310015 	-0.01713844385 	4.844887992e-07 	0.01951488124 	-6.851787236e-07 	3.720078752e-05
0.543193629 	0.04949417233 	-0.01671646636 	4.173415967e-07 	0.01919394277 	-5.883762797e-07 	3.65889896e-05
0.5450937731 	0.04875333944 	-0.01629289915 	3.482257157e-07 	0.01887404101 	-4.896460767e-07 	3.597916794e-05
0.5470148217 	0.04800935925 	-0.01586809082 	2.774944815e-07 	0.01855543556 	-3.893936435e-07 	3.537181739e-05
0.5489570095 	0.04726277902 	-0.01544222309 	2.052806423e-07 	0.01823832513 	-2.876516002e-07 	3.476731678e-05
0.5509205742 	0.04651364673 	-0.01501526414 	1.317363813e-07 	0.01792300989 	-1.844456882e-07 	3.41662383e-05
0.552905756 	0.04576206259 	-0.01458706933 	5.700456345e-08 	0.01760925505 	-7.980134232e-08 	3.356813436e-05
0.5544172605 	0.04519512876 	-0.01426412726 	5.238506958e-06 	0.01737470652 	-4.093231623e-06 	3.312101968e-05
0.5549169899 	0.04500765815 	-0.014157348 	1.979196417e-08 	0.01729711009 	-2.521985163e-08 	3.297309931e-05
0.5569509921 	0.04425097769 	-0.01372629538 	9.940127308e-08 	0.01698688064 	-1.272335425e-07 	3.238171576e-05
0.5590073931 	0.04349303039 	-0.01329426148 	1.793160076e-07 	0.01667880996 	-2.306802373e-07 	3.179444741e-05
0.5610864451 	0.04273405632 	-0.01286131835 	2.593940023e-07 	0.01637330936 	-3.355416093e-07 	3.121207837e-05
0.5631884037 	0.0419743346 	-0.01242742025 	3.394914421e-07 	0.01607031873 	-4.418269821e-07 	3.063449402e-05
0.5653160348 	0.04121378641 	-0.01199238198 	4.196618849e-07 	0.01576987475 	-5.497949077e-07 	3.006176428e-05
0.5674695637 	0.0404527012 	-0.0115562406 	4.996141553e-07 	0.01547225181 	-6.592517266e-07 	2.949441225e-05
0.5696468135 	0.03969213803 	-0.01111938279 	5.789418648e-07 	0.01517765057 	-7.699044989e-07 	2.893282041e-05
0.5718480523 	0.03893272722 	-0.01068203928 	6.574806224e-07 	0.01488640552 	-8.817395455e-07 	2.837762638e-05
0.5740735515 	0.03817483074 	-0.01024422858 	7.350719262e-07 	0.0145985532 	-9.947742344e-07 	2.782889987e-05
0.5763259274 	0.03741855059 	-0.009805839192 	8.117366192e-07 	0.01431411894 	-1.109239491e-06 	2.72866891e-05
0.5786054411 	0.03666431545 	-0.009366978447 	8.871529289e-07 	0.01403335936 	-1.224884778e-06 	2.675148331e-05
0.5809100742 	0.03591325195 	-0.008928061739 	9.609041427e-07 	0.01375641434 	-1.341400736e-06 	2.622354912e-05
0.5832401115 	0.0351660571 	-0.008489367137 	1.032814489e-06 	0.01348360771 	-1.458709984e-06 	2.570350388e-05
0.5855958414 	0.03442320244 	-0.008050942747 	1.102714514e-06 	0.01321486154 	-1.57678592e-06 	2.519119898e-05
0.5879809209 	0.03368485976 	-0.007612736805 	1.170652034e-06 	0.01295026925 	-1.695805466e-06 	2.468681253e-05
0.590393263 	0.03295184487 	-0.007175037234 	1.236105643e-06 	0.01269002183 	-1.815154924e-06 	2.419070863e-05
0.5928322043 	0.03222536199 	-0.006738304229 	1.298776504e-06 	0.01243419542 	-1.934589881e-06 	2.370303238e-05
0.5952980476 	0.03150605357 	-0.006302750973 	1.358497235e-06 	0.01218295884 	-2.053912904e-06 	2.322410563e-05
0.5977922851 	0.03079440993 	-0.005868415932 	1.41519362e-06 	0.011936213 	-2.173078272e-06 	2.275373948e-05
0.6003168648 	0.0300909841 	-0.00543542714 	1.468649566e-06 	0.01169406553 	-2.291747084e-06 	2.229213909e-05
0.6028692929 	0.02939698879 	-0.005004213992 	1.518404319e-06 	0.01145654667 	-2.409291089e-06 	2.183936214e-05
0.6054498872 	0.02871349009 	-0.004575156485 	1.564273575e-06 	0.01122377168 	-2.525420891e-06 	2.13956283e-05
0.6080591046 	0.02804121248 	-0.00414835301 	1.606124953e-06 	0.01099562391 	-2.639898084e-06 	2.096071526e-05
0.610700678 	0.02738080467 	-0.003723853954 	1.643917487e-06 	0.01077209562 	-2.752544116e-06 	2.053460819e-05
0.6133714062 	0.02673363158 	-0.003302050864 	1.677138313e-06 	0.01055318198 	-2.862490914e-06 	2.011729796e-05
0.6160716229 	0.02610121512 	-0.002883366686 	1.705609948e-06 	0.01033883494 	-2.969447102e-06 	1.970869292e-05
0.6188016662 	0.02548466033 	-0.002467907248 	1.729227377e-06 	0.01012894116 	-3.073125535e-06 	1.930857704e-05
0.6215651523 	0.02488513131 	-0.002055704166 	1.74797023e-06 	0.009923364915 	-3.173376817e-06 	1.891669158e-05
0.6243592387 	0.02430445636 	-0.001647091385 	1.761399358e-06 	0.009722013831 	-3.269409383e-06 	1.853286046e-05
0.6271841974 	0.02374475032 	-0.001242430664 	1.769380365e-06 	0.009524685661 	-3.361076215e-06 	1.815669812e-05
0.630040679 	0.02320780805 	-0.0008417803801 	1.771888341e-06 	0.009331227925 	-3.448277403e-06 	1.778791391e-05
0.6329314886 	0.02269569682 	-0.0004451600476 	1.768863022e-06 	0.009141380621 	-3.530937943e-06 	1.742601218e-05
0.6358542509 	0.02221109288 	-5.283879468e-05 	1.760012169e-06 	0.008954935113 	-3.608660172e-06 	1.707059522e-05
0.638809334 	0.02175692666 	0.0003349505446 	1.745298046e-06 	0.008771568082 	-3.681639747e-06 	1.67210467e-05
0.6417981584 	0.02133595552 	0.0007182477494 	1.724810479e-06 	0.008591073313 	-3.750167097e-06 	1.63769735e-05
0.6448217377 	0.02095137394 	0.001097029821 	1.698440641e-06 	0.008413101284 	-3.814287685e-06 	1.603770935e-05
0.6478787682 	0.02060678611 	0.001471112029 	1.666119402e-06 	0.008237340849 	-3.874235606e-06 	1.570266111e-05
0.6509696362 	0.0203057886 	0.001840455044 	1.627955263e-06 	0.008063486257 	-3.930558686e-06 	1.537124594e-05
0.6540967377 	0.02005192315 	0.002205201981 	1.58411759e-06 	0.007891281052 	-3.983827349e-06 	1.504297495e-05
0.6572588978 	0.01984894764 	0.002565333122 	1.534567835e-06 	0.007720445476 	-4.034185352e-06 	1.471731486e-05
0.6604560787 	0.0197005882 	0.002920788558 	1.479472959e-06 	0.00755068812 	-4.082253535e-06 	1.439371016e-05
0.6636895472 	0.01961014581 	0.003271770049 	1.419142243e-06 	0.007381942921 	-4.128602583e-06 	1.407203491e-05
0.6669601563 	0.01958072367 	0.003618442412 	1.353737633e-06 	0.00721405325 	-4.173340569e-06 	1.375199054e-05
0.6702670102 	0.0196150363 	0.003960840402 	1.28351564e-06 	0.007046966092 	-4.216650266e-06 	1.343347597e-05
0.6736107231 	0.01971517092 	0.004299183652 	1.208914409e-06 	0.006880822518 	-4.258738846e-06 	1.311676015e-05
0.6769932431 	0.01988263045 	0.004633803906 	1.130348875e-06 	0.006715800062 	-4.299373515e-06 	1.280218148e-05
0.6804132742 	0.02011822054 	0.004964887429 	1.048229096e-06 	0.006552158239 	-4.338011981e-06 	1.249023468e-05
0.6838712526 	0.02042202426 	0.005292721801 	9.631486568e-07 	0.00639033064 	-4.374283557e-06 	1.21817463e-05
0.6873691649 	0.02079349688 	0.005617801985 	8.757504407e-07 	0.006230920319 	-4.407429269e-06 	1.187786592e-05
0.6909060268 	0.02123136861 	0.00594046953 	7.866112449e-07 	0.006074530438 	-4.436237498e-06 	1.157974334e-05
0.6944821627 	0.02173376902 	0.006261109143 	6.964480529e-07 	0.005921939539 	-4.459843098e-06 	1.128886268e-05
0.6980992752 	0.02229847338 	0.006580339265 	6.060303175e-07 	0.005774132567 	-4.477085252e-06 	1.100710151e-05
0.7017567755 	0.02292274062 	0.006898612259 	5.160254441e-07 	0.005632031229 	-4.486433028e-06 	1.073621686e-05
0.7054549232 	0.02360351734 	0.007216404278 	4.271740174e-07 	0.00549673221 	-4.486862618e-06 	1.047829933e-05
0.7091953095 	0.02433776506 	0.0075344054 	3.40235694e-07 	0.005369496631 	-4.477146901e-06 	1.023575295e-05
0.712977415 	0.0251221526 	0.007853101802 	2.558445749e-07 	0.005251483645 	-4.455861537e-06 	1.00107874e-05
0.7168016154 	0.02595334237 	0.008173030354 	1.746583337e-07 	0.005144034594 	-4.422231015e-06 	9.805959647e-06
0.7206694186 	0.02682827148 	0.00849489009 	9.731600781e-08 	0.005048555509 	-4.375244395e-06 	9.623949975e-06
0.7245802603 	0.02774121948 	0.008818273919 	2.451079333e-08 	0.004966479531 	-4.313920698e-06 	9.467490347e-06
0.728491219 	0.02868089199 	0.009141005124 	-4.27307212e-08 	0.004899597217 	-4.23907128e-06 	9.339994068e-06
0.7323596049 	0.02963560391 	0.009460935027 	-1.036549033e-07 	0.004849187253 	-4.151572019e-06 	9.243898666e-06
0.7361852235 	0.03059889185 	0.009777547622 	-1.58148299e-07 	0.004815710373 	-4.051957013e-06 	9.180082429e-06
0.7399688599 	0.03156752607 	0.01009132906 	-2.062736435e-07 	0.004799426856 	-3.941243002e-06 	9.149041518e-06
0.7437111026 	0.03253874634 	0.01040264887 	-2.481454445e-07 	0.004800368058 	-3.819980904e-06 	9.150835713e-06
0.747412009 	0.03350993015 	0.01071167985 	-2.839871878e-07 	0.004818510214 	-3.689225801e-06 	9.185419704e-06
0.7510723258 	0.03447908347 	0.0110187688 	-3.139832637e-07 	0.004853872093 	-3.550136725e-06 	9.252829274e-06
0.7546925061 	0.03544443693 	0.01132412082 	-3.383376064e-07 	0.004906265332 	-3.403397131e-06 	9.352705348e-06
0.758272727 	0.03640425315 	0.01162779776 	-3.573444621e-07 	0.00497548738 	-3.250143538e-06 	9.484661811e-06
0.7618136489 	0.03735731029 	0.01193003898 	-3.712486843e-07 	0.005061358912 	-3.091527629e-06 	9.648356818e-06
0.7653157208 	0.03830249877 	0.01223095604 	-3.802840571e-07 	0.005163521009 	-2.928229973e-06 	9.84310617e-06
0.7687791594 	0.03923865838 	0.01253053776 	-3.847652499e-07 	0.005281621611 	-2.761298671e-06 	1.006823874e-05
0.7722045214 	0.04016504942 	0.01282894116 	-3.849649934e-07 	0.005415332074 	-2.591797605e-06 	1.032312805e-05
0.775592316 	0.04108101759 	0.01312623115 	-3.811175543e-07 	0.005564175958 	-2.420331379e-06 	1.060686586e-05
0.7789427553 	0.04198580688 	0.01342235664 	-3.73524222e-07 	0.005727684478 	-2.247756633e-06 	1.091855854e-05
0.7822562941 	0.04287896815 	0.0137173982 	-3.624684551e-07 	0.005905420229 	-2.074993617e-06 	1.125737228e-05
0.7855335223 	0.04376017571 	0.01401140495 	-3.481790477e-07 	0.00609683987 	-1.902580217e-06 	1.162227132e-05
0.788774628 	0.04462900528 	0.01430432357 	-3.309162116e-07 	0.006301385203 	-1.731110653e-06 	1.201219158e-05
0.7919800171 	0.04548515163 	0.01459614469 	-3.109601293e-07 	0.006518542035 	-1.561315162e-06 	1.242615285e-05
0.7951502328 	0.04632853539 	0.01488692521 	-2.885439793e-07 	0.00674774631 	-1.393725305e-06 	1.286307991e-05
0.798285556 	0.04715900916 	0.01517662778 	-2.638709181e-07 	0.006988378808 	-1.228639916e-06 	1.332179233e-05
0.8013863374 	0.04797636818 	0.01546517506 	-2.372005573e-07 	0.007239877107 	-1.066593114e-06 	1.380121799e-05
0.8044530048 	0.04878067863 	0.01575261503 	-2.087653898e-07 	0.007501678923 	-9.080556432e-07 	1.430028501e-05
0.8074859852 	0.04957198909 	0.01603892678 	-1.787373189e-07 	0.007773154538 	-7.531806694e-07 	1.481779299e-05
0.8104855581 	0.05035026835 	0.01632403726 	-1.473238875e-07 	0.008053709214 	-6.022542573e-07 	1.535260817e-05
0.8134520959 	0.05111557714 	0.01660792043 	-1.147399714e-07 	0.008342788989 	-4.556044158e-07 	1.590367457e-05
0.816386033 	0.05186811488 	0.01689059103 	-8.116969228e-08 	0.008639805573 	-3.134345396e-07 	1.646987073e-05
0.8192876894 	0.05260802362 	0.01717200515 	-4.674968685e-08 	0.008944154402 	-1.757471692e-07 	1.705004419e-05
0.8221573933 	0.05333538119 	0.01745208871 	-1.166212534e-08 	0.009255285448 	-4.272474211e-08 	1.764314644e-05
0.8230922397 	0.05357091127 	0.01754390847 	3.154198082e-06 	0.009359818817 	4.147317103e-06 	1.784241609e-05
0.8249954061 	0.05405042339 	0.01773081017 	-2.503901217e-08 	0.009572647428 	-8.639181129e-08 	1.824812658e-05
0.8278021922 	0.05475339927 	0.01800817688 	-6.258421635e-08 	0.009895693376 	-2.110635077e-07 	1.886394194e-05
0.8305780822 	0.05544449238 	0.01828415062 	-1.00299742e-07 	0.0102238896 	-3.308933851e-07 	1.948957516e-05
0.8333234135 	0.05612386799 	0.01855867349 	-1.38040285e-07 	0.01055674371 	-4.458179801e-07 	2.012408761e-05
0.836038525 	0.05679179468 	0.01883173946 	-1.756677291e-07 	0.01089377532 	-5.558019176e-07 	2.076656352e-05
0.8387237968 	0.0574485633 	0.01910333583 	-2.130863915e-07 	0.01123448656 	-6.609443891e-07 	2.141605385e-05
0.8413795096 	0.05809439241 	0.01937341152 	-2.502150879e-07 	0.01157840562 	-7.61365599e-07 	2.207165916e-05
0.8440059901 	0.05872949287 	0.01964192313 	-2.869464767e-07 	0.01192510584 	-8.570874026e-07 	2.273256614e-05
0.8466035617 	0.05935412728 	0.01990885492 	-3.231789767e-07 	0.01227417556 	-9.481498381e-07 	2.339799005e-05
0.8491725713 	0.05996859277 	0.02017419985 	-3.588402324e-07 	0.01262519403 	-1.034679424e-06 	2.406712881e-05
0.8517133075 	0.06057311832 	0.02043791613 	-3.938842497e-07 	0.01297776349 	-1.116848445e-06 	2.47392242e-05
0.8542260787 	0.06116791545 	0.0206999656 	-4.282377998e-07 	0.01333152728 	-1.194729041e-06 	2.541359629e-05
0.8567111938 	0.06175321825 	0.02096032764 	-4.618319347e-07 	0.01368614997 	-1.268400386e-06 	2.608960571e-05
0.85916897 	0.06232930025 	0.02121899892 	-4.946090723e-07 	0.01404129293 	-1.337977362e-06 	2.676660691e-05
0.8615997037 	0.06289639471 	0.0214759542 	-5.265514644e-07 	0.01439662871 	-1.403658396e-06 	2.744397565e-05
0.8640036837 	0.06345468184 	0.02173115343 	-5.576197282e-07 	0.01475187079 	-1.465548492e-06 	2.81211658e-05
0.8663812051 	0.06400437441 	0.02198458302 	-5.877703674e-07 	0.01510675345 	-1.523742918e-06 	2.879767077e-05
0.8687325604 	0.06454568214 	0.02223622858 	-6.169657853e-07 	0.01546101885 	-1.578342464e-06 	2.94729991e-05
0.8710580494 	0.06507883342 	0.02248608606 	-6.451926611e-07 	0.01581441114 	-1.62951063e-06 	3.014666302e-05
0.8733579429 	0.06560398752 	0.02273412258 	-6.724476046e-07 	0.01616670231 	-1.677394692e-06 	3.081822791e-05
0.8756325228 	0.06612131543 	0.02298032308 	-6.987091678e-07 	0.01651768891 	-1.722091014e-06 	3.148730591e-05
0.8778820682 	0.06663097473 	0.0232246705 	-7.239612817e-07 	0.01686718257 	-1.763694826e-06 	3.215353797e-05
0.8801068572 	0.06713314423 	0.02346716267 	-7.481884542e-07 	0.01721500044 	-1.802308058e-06 	3.28165755e-05
0.8823071649 	0.06762799124 	0.02370779236 	-7.714018177e-07 	0.01756096391 	-1.83808612e-06 	3.347607803e-05
0.8844832541 	0.06811562558 	0.02394653217 	-7.93609507e-07 	0.01790492385 	-1.871137819e-06 	3.413176127e-05
0.8866353917 	0.0685961868 	0.02418337944 	-8.148060534e-07 	0.01824674486 	-1.901549978e-06 	3.478336712e-05
0.8887638413 	0.06906978319 	0.02441831854 	-8.349943528e-07 	0.0185863036 	-1.929406185e-06 	3.543066045e-05
0.8908688648 	0.0695365452 	0.02465135072 	-8.54174285e-07 	0.01892348292 	-1.954792992e-06 	3.607341795e-05
0.8929507216 	0.06999659221 	0.02488247292 	-8.723662117e-07 	0.01925816936 	-1.977835263e-06 	3.671142334e-05
0.8950096626 	0.07044999695 	0.0251116656 	-8.895903578e-07 	0.01959027196 	-1.998623039e-06 	3.73445032e-05
0.8970459398 	0.07089685163 	0.02533892799 	-9.058541661e-07 	0.01991971234 	-2.017226304e-06 	3.797250811e-05
0.8990598026 	0.07133723232 	0.02556425337 	-9.211702725e-07 	0.02024641846 	-2.033713718e-06 	3.859530079e-05
0.9010514977 	0.07177121 	0.02578763757 	-9.355522862e-07 	0.02057032803 	-2.048150519e-06 	3.921276246e-05
0.9030212711 	0.07219886771 	0.02600908584 	-9.490187892e-07 	0.02089138065 	-2.060621081e-06 	3.982477798e-05
0.9049693608 	0.07262025281 	0.0262285881 	-9.616007677e-07 	0.02120952677 	-2.071209766e-06 	4.043125291e-05
0.9068960052 	0.07303540282 	0.02644613773 	-9.733186322e-07 	0.02152473374 	-2.07996793e-06 	4.103212501e-05
0.9088014402 	0.07344436896 	0.02666173855 	-9.841890698e-07 	0.0218369707 	-2.086948255e-06 	4.162733543e-05
0.910685899 	0.07384717369 	0.02687538248 	-9.942370117e-07 	0.022146216 	-2.092198377e-06 	4.221684292e-05
0.9125496127 	0.07424385536 	0.02708707452 	-1.003482017e-06 	0.02245245197 	-2.095766545e-06 	4.280061378e-05
0.9143928095 	0.07463444211 	0.02729681558 	-1.011956293e-06 	0.02275566252 	-2.097720523e-06 	4.337861737e-05
0.9162157138 	0.07501893265 	0.02750459626 	-1.019694016e-06 	0.02305584457 	-2.098107238e-06 	4.395084779e-05
0.9180185488 	0.07539733442 	0.02771041761 	-1.026720772e-06 	0.02335300225 	-2.096962077e-06 	4.451731293e-05
0.9198015351 	0.07576964951 	0.02791427931 	-1.033064525e-06 	0.02364714065 	-2.094321721e-06 	4.507802246e-05
0.9215648909 	0.07613586293 	0.02811617554 	-1.038758208e-06 	0.02393827195 	-2.090218709e-06 	4.563299964e-05
0.9233088322 	0.07649596714 	0.02831610813 	-1.043831257e-06 	0.02422641118 	-2.084685824e-06 	4.61822731e-05
0.9250335726 	0.07684994779 	0.02851407613 	-1.048322333e-06 	0.02451157292 	-2.077770578e-06 	4.672587062e-05
0.9267393224 	0.07719776632 	0.02871006976 	-1.052273755e-06 	0.02479378079 	-2.069507089e-06 	4.726383726e-05