0.4709558481 	0.08220713308 	-5.944450576e-06 	9.023707938e-11
0.4709558481 	0.08220713308 	-5.944450576e-06 	9.023707938e-11
0.4711314108 	0.2259543065 	-3.814183578e-05 	3.977985503e-10
0.4713069734 	0.4505297227 	-0.0001051851952 	6.524432274e-10
0.471482536 	0.6692620633 	-7.182584689e-05 	-2.829027987e-10
0.4716580986 	0.8728397887 	9.443141116e-05 	-1.401024645e-09
0.4718336613 	1.051381075 	0.000163851248 	-8.869920073e-10
0.4720092239 	1.200776796 	7.600512203e-05 	-2.149333259e-11
0.4721847865 	1.323378204 	-1.58383259e-06 	-1.014000984e-10
0.4723603491 	1.424223395 	-1.208043348e-05 	-4.810077794e-10
0.4725359118 	1.508172058 	7.220369001e-07 	-7.121787465e-10
0.4727114744 	1.579073003 	1.284262009e-05 	-8.542829197e-10
0.472887037 	1.639809412 	2.121116113e-05 	-9.740079622e-10
0.4730625996 	1.692517946 	2.726289392e-05 	-1.092686109e-09
0.4732381623 	1.73879133 	3.219311564e-05 	-1.213653835e-09
0.4734137249 	1.779831777 	3.657114229e-05 	-1.33661176e-09
0.4735892875 	1.816560069 	4.065615506e-05 	-1.461154373e-09
0.4737648501 	1.84969184 	4.45794544e-05 	-1.58707933e-09
0.4739404128 	1.879791051 	4.841460556e-05 	-1.714278121e-09
0.4741159754 	1.907307865 	5.220427071e-05 	-1.842676692e-09
0.474291538 	1.932605846 	5.597338023e-05 	-1.97222059e-09
0.4744671006 	1.955981782 	5.973652254e-05 	-2.10287014e-09
0.4746426632 	1.977680341 	6.350276057e-05 	-2.234597291e-09
0.4748182259 	1.997905063 	6.727650961e-05 	-2.367380555e-09
0.4749937885 	2.016826694 	7.106431526e-05 	-2.501207418e-09
0.4751693511 	2.034589595 	7.485955267e-05 	-2.636058796e-09
0.4753449137 	2.051316695 	7.868919856e-05 	-2.771941169e-09
0.4755204764 	2.067113401 	8.248476345e-05 	-2.908797341e-09
0.475696039 	2.082070667 	8.639606166e-05 	-3.046691995e-09
0.4758716016 	2.096267224 	9.007340901e-05 	-3.185436721e-09
0.4760471642 	2.109772837 	9.409509689e-05 	-3.325441005e-09
0.4762227269 	2.12438447 	9.906123051e-05 	-3.486214222e-09
0.4764955107 	2.141597088 	0.000103924424 	-3.687842199e-09
0.4767734216 	2.159547895 	0.0001100364706 	-3.914967388e-09
0.4770565557 	2.176684293 	0.0001168321411 	-4.149169971e-09
0.4773450114 	2.193081798 	0.0001232435137 	-4.38981218e-09
0.4776388886 	2.208808494 	0.0001300389782 	-4.637646207e-09
0.4779382892 	2.223923679 	0.0001369036833 	-4.89261924e-09
0.4782433171 	2.23847967 	0.0001439827624 	-5.15507457e-09
0.4785540779 	2.25252283 	0.0001512239713 	-5.425168565e-09
0.4788706795 	2.266094378 	0.0001586503567 	-5.703140896e-09
0.4791932316 	2.279231142 	0.0001662591343 	-5.989209597e-09
0.4795218461 	2.291966132 	0.0001740567859 	-6.283610767e-09
0.4798566368 	2.304329053 	0.0001820469671 	-6.58658383e-09
0.48019772 	2.316346721 	0.0001902342654 	-6.898376097e-09
0.4805452138 	2.328043423 	0.0001986231081 	-7.219241173e-09
0.4808992388 	2.339441223 	0.0002072180667 	-7.549439242e-09
0.4812599177 	2.350560221 	0.0002160237929 	-7.889236837e-09
0.4816273755 	2.361418774 	0.0002250450271 	-8.238906672e-09
0.4820017397 	2.372033696 	0.0002342865994 	-8.598727439e-09
0.48238314 	2.382420417 	0.0002437534267 	-8.968983572e-09
0.4827717088 	2.392593132 	0.0002534505123 	-9.349964972e-09
0.4831675807 	2.402564922 	0.0002633829443 	-9.741966675e-09
0.4835708931 	2.412347871 	0.000273555894 	-1.014528847e-08
0.4839817856 	2.421953154 	0.0002839746133 	-1.056023445e-08
0.4844004009 	2.431391128 	0.0002946444323 	-1.098711252e-08
0.4848268841 	2.440671402 	0.0003055707564 	-1.142623377e-08
0.485261383 	2.449802901 	0.0003167590625 	-1.187791177e-08
0.4857040484 	2.45879393 	0.0003282148949 	-1.23424618e-08
0.4861550336 	2.467652217 	0.0003399438604 	-1.282019995e-08
0.4866144951 	2.476384965 	0.0003519516224 	-1.331144199e-08
0.4870825921 	2.484998888 	0.0003642438948 	-1.381650226e-08
0.487559487 	2.493500249 	0.0003768264337 	-1.433569226e-08
0.4880453452 	2.50189489 	0.0003897050294 	-1.486931911e-08
0.4885403351 	2.510188261 	0.0004028854958 	-1.541768385e-08
0.4890446283 	2.518385444 	0.000416373659 	-1.598107947e-08
0.4895583997 	2.526491179 	0.0004301753443 	-1.655978871e-08
0.4900818274 	2.534509878 	0.0004442963613 	-1.715408172e-08
0.4906150929 	2.542445648 	0.0004587424867 	-1.776421328e-08
0.4911583811 	2.550302303 	0.0004735194456 	-1.839041995e-08
0.4917118805 	2.55808338 	0.0004886328895 	-1.903291677e-08
0.4922757829 	2.56579215 	0.0005040883727 	-1.969189379e-08
0.4928502838 	2.57343163 	0.0005198913251 	-2.036751222e-08
0.4934355824 	2.58100459 	0.0005360470219 	-2.105990034e-08
0.4940318817 	2.588513564 	0.0005525605508 	-2.176914914e-08
0.4946393885 	2.595960856 	0.0005694367748 	-2.249530763e-08
0.4952583133 	2.603348544 	0.0005866802913 	-2.323837795e-08
0.4958888709 	2.61067849 	0.0006042953886 	-2.399831027e-08
0.4965312797 	2.617952341 	0.0006222859957 	-2.477499751e-08
0.4971857627 	2.625171533 	0.0006406556303 	-2.556826994e-08
0.4978525466 	2.632337296 	0.0006594073444 	-2.63778898e-08
0.4985318627 	2.639450655 	0.0006785436408 	-2.720354574e-08
0.4992239466 	2.646512436 	0.0006980664929 	-2.804484842e-08
0.4999290382 	2.653523261 	0.0007179769864 	-2.890132268e-08
0.5006473819 	2.66048356 	0.0007382762009 	-2.977241229e-08
0.501379227 	2.667393563 	0.0007589623344 	-3.065744646e-08
0.502124827 	2.674253307 	0.0007800383517 	-3.155571594e-08
0.5028844406 	2.68106264 	0.0008014905961 	-3.246626217e-08
0.5036583311 	2.68782122 	0.0008233392051 	-3.338840034e-08
0.5044467669 	2.694528489 	0.0008455256921 	-3.432068074e-08
0.5052500214 	2.70118387 	0.0008681412022 	-3.526275996e-08
0.506068373 	2.708624142 	0.0008941358381 	-3.633492198e-08
0.507324668 	2.717584562 	0.0009261429758 	-3.76485752e-08
0.5085949819 	2.727105574 	0.0009613755402 	-3.907093953e-08
0.5098794711 	2.736361069 	0.0009968189971 	-4.047546973e-08
0.5111782938 	2.74536216 	0.001032235877 	-4.185637781e-08
0.5124916099 	2.754119122 	0.001067705332 	-4.320999294e-08
0.5138195812 	2.762641039 	0.001103114167 	-4.453113956e-08
0.5151623712 	2.77093603 	0.001138432948 	-4.581551691e-08
0.5165201452 	2.779011353 	0.001173591849 	-4.705864233e-08
0.5178930705 	2.7868735 	0.001208534989 	-4.825635244e-08
0.5192813161 	2.79452829 	0.001243199719 	-4.940468144e-08
0.520685053 	2.801980949 	0.001277524491 	-5.049997363e-08
0.522104454 	2.809236185 	0.001311446375 	-5.153891398e-08
0.523539694 	2.816298259 	0.001344902213 	-5.251857978e-08
0.5249909497 	2.823171044 	0.001377828644 	-5.343648124e-08
0.5264583998 	2.829858085 	0.00141016249 	-5.429059832e-08
0.527942225 	2.83636265 	0.001441841071 	-5.507941121e-08
0.5294426081 	2.842687784 	0.001472802531 	-5.580192399e-08
0.5309597337 	2.848836347 	0.001502986187 	-5.645768066e-08
0.5324937889 	2.854811059 	0.001532332861 	-5.704677327e-08
0.5340449624 	2.860614536 	0.001560785221 	-5.756984165e-08
0.5356134452 	2.866249323 	0.001588288104 	-5.802806481e-08
0.5371994306 	2.871717924 	0.001614788828 	-5.842314393e-08
0.5388031139 	2.877022828 	0.001640237491 	-5.875727745e-08
0.5404246925 	2.88216653 	0.001664587235 	-5.903312863e-08
0.5420643661 	2.887151553 	0.001687794497 	-5.925378627e-08
0.5437223366 	2.891980461 	0.001709819218 	-5.942271957e-08
0.5453988083 	2.896655872 	0.001730625028 	-5.954372796e-08
0.5470939875 	2.901180469 	0.001750179387 	-5.962088711e-08
0.5488080831 	2.905557004 	0.0017684537 	-5.965849221e-08
0.5505413061 	2.909788304 	0.00178542338 	-5.966099977e-08
0.5522938699 	2.913877268 	0.001801067885 	-5.963296902e-08
0.5540659904 	2.917826872 	0.001815370715 	-5.95790041e-08
0.5558578859 	2.92164016 	0.001828319363 	-5.950369813e-08
0.5576697768 	2.925320242 	0.001839905247 	-5.941157997e-08
0.5595018865 	2.928870284 	0.001850123597 	-5.930706458e-08
0.5613544406 	2.932293505 	0.00185897332 	-5.919440767e-08
0.563227667 	2.935593161 	0.001866456833 	-5.907766503e-08
0.5651217966 	2.938772543 	0.001872579881 	-5.896065711e-08
0.5670370626 	2.941834958 	0.001877351323 	-5.884693886e-08
0.5689737009 	2.944783723 	0.001880782919 	-5.873977491e-08
0.5709319499 	2.947622154 	0.001882889087 	-5.864212053e-08
0.5729120508 	2.950353551 	0.001883686668 	-5.855660648e-08
0.5749142474 	2.952981192 	0.001883194669 	-5.84855321e-08
0.5769387863 	2.955508319 	0.00188143402 	-5.843085399e-08
0.5789859169 	2.957938127 	0.00187842732 	-5.839420074e-08
0.5810558911 	2.960273757 	0.001874198591 	-5.837683466e-08
0.583148964 	2.962518288 	0.00186877306 	-5.837976089e-08
0.5852653933 	2.964674722 	0.001862176825 	-5.840357032e-08
0.5874054395 	2.966745985 	0.001854436783 	-5.844857908e-08
0.5895693664 	2.968734914 	0.001845580354 	-5.85148655e-08
0.5917574402 	2.970644251 	0.001835635193 	-5.860213765e-08
0.5939699306 	2.972476641 	0.001824629127 	-5.870989646e-08
0.5962071099 	2.974234625 	0.001812589901 	-5.88373676e-08
0.5984692536 	2.975920635 	0.001799545048 	-5.898355422e-08
0.6007566404 	2.977536992 	0.001785521725 	-5.914723849e-08
0.6030695519 	2.979085904 	0.001770546579 	-5.932700467e-08
0.6054082729 	2.98056946 	0.001754645625 	-5.952125322e-08
0.6077730914 	2.981989631 	0.001737844139 	-5.972821789e-08
0.6101642987 	2.983348271 	0.001720166558 	-5.99459811e-08
0.6125821893 	2.984647109 	0.001701636395 	-6.017248926e-08
0.6150270608 	2.985887757 	0.001682276172 	-6.040556746e-08
0.6174992144 	2.987071702 	0.001662107355 	-6.06429336e-08
0.6199989545 	2.988200311 	0.001641150312 	-6.088221203e-08
0.622526589 	2.989274831 	0.001619424267 	-6.112094665e-08
0.625082429 	2.990296387 	0.001596947284 	-6.135661355e-08
0.6276667894 	2.991265986 	0.001573736241 	-6.158663321e-08
0.6302799884 	2.992184516 	0.001549806831 	-6.180838228e-08
0.6329223478 	2.993052746 	0.001525173564 	-6.201920502e-08
0.6355941931 	2.993871331 	0.001499849778 	-6.221642437e-08
0.6382958531 	2.994640809 	0.001473847665 	-6.239735283e-08
0.6410276607 	2.995361605 	0.001447178302 	-6.255930294e-08
0.6437899523 	2.99603403 	0.001419851687 	-6.269959754e-08
0.646583068 	2.996658285 	0.001391876795 	-6.28155798e-08
0.6494073518 	2.997234461 	0.00136326163 	-6.290462294e-08
0.6522631514 	2.997762539 	0.001334013295 	-6.296413961e-08
0.6551508186 	2.998242392 	0.001304138061 	-6.299159108e-08
0.658070709 	2.998673787 	0.001273641452 	-6.298449563e-08
0.6610231822 	2.999056385 	0.001242528336 	-6.294043768e-08
0.6640086017 	2.99938974 	0.001210803017 	-6.285707339e-08
0.6670273351 	2.999673301 	0.00117846934 	-6.273214321e-08
0.6700797543 	2.999906415 	0.001145530807 	-6.256346337e-08
0.6731662352 	3.000088321 	0.001111990678 	-6.234896598e-08
0.6762871577 	3.000218154 	0.001077852117 	-6.208661396e-08
0.6794429063 	3.000294943 	0.001043118259 	-6.177467396e-08
0.6826338695 	3.00031761 	0.001007792728 	-6.141115422e-08
0.6858604404 	3.000284967 	0.000971878821 	-6.099445536e-08
0.6891230163 	3.000195716 	0.0009353806451 	-6.052314763e-08
0.6924219988 	3.000048442 	0.0008983032112 	-5.999556285e-08
0.6957577944 	2.999841617 	0.0008606517065 	-5.941044923e-08
0.6991308138 	2.999573588 	0.0008224325848 	-5.876650461e-08
0.7025414724 	2.999242577 	0.0007836532694 	-5.806257332e-08
0.7059901901 	2.998846671 	0.0007443224807 	-5.729756532e-08
0.7094773917 	2.998383819 	0.0007044503503 	-5.647047976e-08
0.7130035066 	2.997851821 	0.0006640486327 	-5.55803823e-08
0.7165689691 	2.997248317 	0.0006231308791 	-5.462639947e-08
0.7201742182 	2.996570779 	0.0005817126455 	-5.360770399e-08
0.7238196978 	2.995816494 	0.000539811702 	-5.252350123e-08
0.727505857 	2.994982554 	0.0004974484012 	-5.137300797e-08
0.7312331497 	2.994065834 	0.0004546459215 	-5.015543237e-08
0.7350020349 	2.993065739 	0.0004115447895 	-4.887347003e-08
0.7387709215 	2.991988802 	0.0003685392156 	-4.753836007e-08
0.7424982157 	2.99084399 	0.00032602105 	-4.6163022e-08
0.7461843763 	2.989635322 	0.0002841276653 	-4.475337114e-08
0.7498298574 	2.988363948 	0.0002428815838 	-4.3311653e-08
0.7534351078 	2.987030912 	0.000202304403 	-4.183994145e-08
0.7570005716 	2.98563716 	0.0001624167769 	-4.03401525e-08
0.7605266877 	2.984183547 	0.0001232385678 	-3.881405421e-08
0.7640138905 	2.982670841 	8.478884177e-05 	-3.72632812e-08
0.7674626093 	2.981099727 	4.708587427e-05 	-3.568935319e-08
0.770873269 	2.979470815 	1.014714017e-05 	-3.4093693e-08
0.7742462894 	2.977784642 	-2.601068025e-05 	-3.247763158e-08
0.777582086 	2.976041673 	-6.137170275e-05 	-3.084243828e-08
0.7808810695 	2.97424231 	-9.592083997e-05 	-2.918933725e-08
0.7841436462 	2.972386888 	-0.000129643795 	-2.751950793e-08
0.787370218 	2.970475684 	-0.000162527059 	-2.583411061e-08
0.7905611821 	2.968508918 	-0.00019455791 	-2.41342992e-08
0.7937169314 	2.966486751 	-0.0002257244098 	-2.242123146e-08
0.7968378547 	2.964409293 	-0.0002560154022 	-2.069608257e-08
0.7999243362 	2.962276602 	-0.0002854205111 	-1.896005542e-08
0.8029767561 	2.960088687 	-0.00031393014 	-1.721439098e-08
0.8059954902 	2.957845508 	-0.0003415354719 	-1.546037703e-08
0.8089809102 	2.955546981 	-0.0003682284702 	-1.369935611e-08
0.8119333839 	2.953192977 	-0.000394001881 	-1.193273221e-08
0.8148532749 	2.950783326 	-0.0004188492359 	-1.016197644e-08
0.8177409426 	2.948317815 	-0.0004427648555 	-8.388631538e-09
0.8205967427 	2.945796194 	-0.000465743855 	-6.614315292e-09
0.8234210268 	2.943218174 	-0.0004877821492 	-4.84072279e-09
0.8262141429 	2.940583431 	-0.0005088764592 	-3.069627625e-09
0.8289764348 	2.937891606 	-0.0005290243194 	-1.302881969e-09
0.8317082427 	2.935142307 	-0.0005482240853 	4.575844021e-10
0.8344099031 	2.932335109 	-0.0005664749411 	2.209766137e-09
0.8370817486 	2.929469561 	-0.0005837769079 	3.951585344e-09
0.8397241082 	2.926545179 	-0.0006001308522 	5.680895589e-09
0.8423373074 	2.923561455 	-0.0006155384938 	7.395486834e-09
0.844921668 	2.920517853 	-0.0006300024134 	9.093091255e-09
0.8474775082 	2.917413815 	-0.0006435260602 	1.077138987e-08
0.8500051427 	2.914248758 	-0.0006561137581 	1.242801994e-08
0.8525048829 	2.91102208 	-0.0006677707118 	1.406058309e-08
0.8549770366 	2.907733157 	-0.000678503011 	1.566665402e-08
0.8574219081 	2.904381346 	-0.0006883176346 	1.724378987e-08
0.8598397987 	2.90096599 	-0.0006972224517 	1.878953992e-08
0.862231006 	2.897486413 	-0.0007052262231 	2.030145591e-08
0.8645958245 	2.893941926 	-0.0007123385992 	2.177710236e-08
0.8669345455 	2.890331823 	-0.0007185701175 	2.321406763e-08
0.8692474569 	2.886655391 	-0.0007239321972 	2.460997435e-08
0.8715348435 	2.8829119 	-0.0007284371312 	2.596249065e-08
0.8737969871 	2.879100614 	-0.0007320980802 	2.726934658e-08
0.8760341663 	2.875220785 	-0.0007349290496 	2.852832356e-08
0.8782466565 	2.871271657 	-0.0007369449028 	2.97373528e-08
0.8804347301 	2.867252464 	-0.0007381612636 	3.089417028e-08
0.8825986568 	2.863162435 	-0.0007385946884 	3.199731465e-08
0.8847387028 	2.859000789 	-0.0007382622819 	3.304302125e-08
0.8868551318 	2.854766739 	-0.0007371825169 	3.403495182e-08
0.8889482045 	2.85045949 	-0.0007353735236 	3.496558479e-08
0.8910181784 	2.846078238 	-0.0007328547434 	3.583230417e-08
0.8930653087 	2.841622173 	-0.0007296468488 	3.664017029e-08
0.8950898473 	2.837090472 	-0.0007257700609 	3.738362705e-08
0.8970920436 	2.832482307 	-0.0007212459068 	3.806317039e-08
0.8990721441 	2.827796834 	-0.0007160962264 	3.867768028e-08
0.9010303927 	2.823033199 	-0.0007103434633 	3.922675955e-08
0.9029670306 	2.81819053 	-0.0007040104918 	3.970991465e-08
0.9048822962 	2.813267941 	-0.0006971206239 	4.012686554e-08
0.9067764254 	2.808264523 	-0.0006896975453 	4.047748047e-08
0.9086496514 	2.803179346 	-0.0006817652739 	4.076180274e-08
0.910502205 	2.798011451 	-0.0006733481066 	4.098004946e-08
0.9123343142 	2.79275985 	-0.0006644705716 	4.113261289e-08
0.9141462048 	2.787423518 	-0.0006551573698 	4.122005942e-08
0.9159380997 	2.782001392 	-0.0006454333347 	4.124313331e-08
0.9177102197 	2.77649236 	-0.0006353233818 	4.120274032e-08
0.9194627831 	2.770895261 	-0.0006248524236 	4.109997245e-08
0.9211960055 	2.765208874 	-0.0006140453429 	4.093611558e-08
0.9229101006 	2.75943191 	-0.0006029269578 	4.071258574e-08
0.9246052793 	2.753563008 	-0.0005915219366 	4.043093672e-08
0.9262817504 	2.747600721 	-0.0005798547513 	4.009286956e-08
0.9279397204 	2.74154351 	-0.0005679496382 	3.970021666e-08
0.9295793934 	2.735389731 	-0.0005558305424 	3.925493891e-08
0.9312009714 	2.729137623 	-0.0005435210717 	3.87591139e-08
0.9328046541 	2.722785297 	-0.0005310444496 	3.821492798e-08
0.9343906389 	2.716330721 	-0.0005184234708 	3.762466589e-08
0.9359591211 	2.709771701 	-0.0005056804591 	3.699070104e-08
0.937510294 	2.703105873 	-0.0004928372266 	3.631548516e-08
0.9390443485 	2.696330673 	-0.0004799150362 	3.560153802e-08
0.9405614735 	2.689443327 	-0.000466934566 	3.485143704e-08
0.942061856 	2.682440822 	-0.0004539158764 	3.406780695e-08
0.9435456805 	2.675319886 	-0.0004408783794 	3.325330959e-08
0.9450131299 	2.668076957 	-0.0004278408124 	3.241063394e-08
0.946464385 	2.660708157 	-0.0004148212126 	3.154248631e-08
0.9478996243 	2.653209261 	-0.0004018368935 	3.065158102e-08
0.9493190246 	2.645575653 	-0.0003889044424 	2.974063121e-08
0.9507227608 	2.637802296 	-0.0003760396317 	2.881234043e-08
0.9521110058 	2.62988368 	-0.0003632576635 	2.786939452e-08
0.9534839303 	2.621813779 	-0.0003505723214 	2.691445319e-08
0.9548417036 	2.613585987 	-0.0003379985612 	2.595014674e-08
0.9561844929 	2.605193065 	-0.0003255452783 	2.497905558e-08
0.9575124634 	2.596627061 	-0.0003132350637 	2.400374506e-08
0.9588257788 	2.587879238 	-0.0003010532706 	2.30266536e-08
0.9601246008 	2.578939987 	-0.0002890645815 	2.205036167e-08
0.9614090893 	2.56979863 	-0.0002771549309 	2.10770566e-08
0.9626794024 	2.560443763 	-0.000265502228 	2.010939291e-08
0.9639356968 	2.551681693 	-0.000255090059 	1.923032106e-08
0.9647540487 	2.544434429 	-0.0002465979117 	1.852353798e-08
0.9655573034 	2.537970306 	-0.0002392926129 	1.790930618e-08
0.9663457395 	2.531472803 	-0.0002322045913 	1.730746969e-08
0.9671196303 	2.52494143 	-0.0002252444255 	1.671807133e-08
0.9678792442 	2.518375753 	-0.0002184604646 	1.614143177e-08
0.9686248445 	2.511775194 	-0.0002118291909 	1.557767431e-08
0.9693566897 	2.505139065 	-0.0002053589716 	1.502695939e-08
0.9700750337 	2.498466562 	-0.000199043678 	1.448937013e-08
0.9707801255 	2.491756751 	-0.0001928823368 	1.396496173e-08
0.9714722095 	2.485008573 	-0.000186871995 	1.345374934e-08
0.9721515258 	2.478220831 	-0.0001810103167 	1.295571725e-08
0.9728183099 	2.471392188 	-0.0001752947074 	1.247082039e-08
0.9734727929 	2.464521161 	-0.0001697225939 	1.199898776e-08
0.9741152019 	2.457606114 	-0.0001642913537 	1.154012499e-08
0.9747457596 	2.450645249 	-0.0001589983447 	1.109411696e-08
0.9753646845 	2.443636605 	-0.0001538409097 	1.066083008e-08
0.9759721914 	2.436578047 	-0.000148816383 	1.024011447e-08
0.9765684907 	2.429467259 	-0.0001439220976 	9.831805927e-09
0.9771537895 	2.422301733 	-0.0001391553894 	9.435727723e-09
0.9777282904 	2.415078764 	-0.000134513603 	9.051692264e-09
0.9782921928 	2.407795439 	-0.000129994095 	8.679502573e-09
0.9788456922 	2.400448623 	-0.0001255942378 	8.31895366e-09
0.9793889805 	2.393034952 	-0.0001213114228 	7.969833751e-09
0.979922246 	2.385550815 	-0.0001171430633 	7.631925406e-09
0.9804456737 	2.377992344 	-0.000113086596 	7.305006523e-09
0.9809594451 	2.370355396 	-0.0001091394838 	6.988851255e-09
0.9814637383 	2.362635536 	-0.0001052992168 	6.683230819e-09
0.9819587281 	2.354828017 	-0.0001015633141 	6.387914225e-09
0.9824445862 	2.346927759 	-9.792932432e-05 	6.102668951e-09
0.9829214811 	2.338929329 	-9.439482726e-05 	5.827261522e-09
0.9833895781 	2.330826909 	-9.095743398e-05 	5.561458033e-09
0.9838490396 	2.32261427 	-8.761478763e-05 	5.30502463e-09
0.9843000247 	2.314284741 	-8.436456378e-05 	5.057727935e-09
0.98474269 	2.30583117 	-8.120447075e-05 	4.819335412e-09
0.9851771888 	2.297245884 	-7.813224976e-05 	4.589615709e-09
0.9856036719 	2.288520648 	-7.514567506e-05 	4.368338976e-09
0.9860222871 	2.279646607 	-7.224255395e-05 	4.155277116e-09
0.9864331796 	2.270614233 	-6.942072673e-05 	3.950204038e-09
0.9868364919 	2.261413262 	-6.667806666e-05 	3.752895892e-09
0.9872323637 	2.252032617 	-6.401247981e-05 	3.563131265e-09
0.9876209323 	2.242460326 	-6.142190483e-05 	3.380691361e-09
0.9880023326 	2.232683431 	-5.890431289e-05 	3.205360181e-09
0.9883766967 	2.222687876 	-5.645770703e-05 	3.036924697e-09
0.9887441544 	2.212458384 	-5.408012251e-05 	2.875174998e-09
0.9891048331 	2.20197832 	-5.176962492e-05 	2.719904425e-09
0.9894588579 	2.191229523 	-4.952431197e-05 	2.570909746e-09
0.9898063516 	2.180192119 	-4.734231108e-05 	2.427991275e-09
0.9901474347 	2.168844302 	-4.522176994e-05 	2.290953028e-09
0.9904822253 	2.157162082 	-4.3160917e-05 	2.159602849e-09
0.9908108397 	2.145118982 	-4.115776871e-05 	2.033752585e-09
0.9911333916 	2.13268569 	-3.921117161e-05 	1.913218236e-09
0.9914499931 	2.119829651 	-3.731720697e-05 	1.797819931e-09
0.9917607538 	2.106514563 	-3.548074854e-05 	1.68738316e-09
0.9920657815 	2.092699818 	-3.368185948e-05 	1.58173585e-09
0.9923651819 	2.078339767 	-3.197285408e-05 	1.480717706e-09
0.992659059 	2.06338292 	-3.021629625e-05 	1.384152053e-09
0.9929475145 	2.047770947 	-2.871852421e-05 	1.291907977e-09
0.9932306485 	2.031436917 	-2.673759464e-05 	1.203733804e-09
0.9935085592 	2.01430659 	-2.530676699e-05 	1.119693278e-09
0.9937813429 	1.997862116 	-2.460659714e-05 	1.046261194e-09
0.9939569055 	1.983888032 	-2.29943868e-05 	9.88749473e-10
0.9941324681 	1.970959366 	-2.18983567e-05 	9.393183356e-10
0.9943080307 	1.957356474 	-2.112062256e-05 	8.909156798e-10
0.9944835934 	1.943010194 	-2.010318428e-05 	8.434663659e-10
0.994659156 	1.92784251 	-1.918654486e-05 	7.969895284e-10
0.9948347186 	1.911763358 	-1.822399928e-05 	7.514861285e-10
0.9950102812 	1.89466844 	-1.728141058e-05 	7.06957252e-10
0.9951858439 	1.876436222 	-1.633194185e-05 	6.633975067e-10
0.9953614065 	1.856924104 	-1.538127159e-05 	6.208012745e-10
0.9955369691 	1.835963593 	-1.442217205e-05 	5.791618181e-10
0.9957125317 	1.813354042 	-1.344920701e-05 	5.384729113e-10
0.9958880943 	1.78885453 	-1.245206561e-05 	4.987294092e-10
0.996063657 	1.76217318 	-1.14145172e-05 	4.59928522e-10
0.9962392196 	1.732952937 	-1.030949794e-05 	4.220710578e-10
0.9964147822 	1.700752407 	-9.091558562e-06 	3.851627057e-10
0.9965903448 	1.66501968 	-7.683126987e-06 	3.492179124e-10
0.9967659075 	1.625056113 	-5.945605401e-06 	3.142715228e-10
0.9969414701 	1.579965686 	-3.607120993e-06 	2.803778457e-10
0.9971170327 	1.528583757 	-1.017545199e-07 	2.474108265e-10
0.9972925953 	1.469377443 	5.580606857e-06 	2.138246768e-10
0.997468158 	1.400310837 	1.393534384e-05 	1.729179938e-10
0.9976437206 	1.318680302 	1.930987744e-05 	1.085083067e-10
0.9978192832 	1.220974025 	-3.20440213e-06 	2.435815796e-11
0.9979948458 	1.102987912 	-7.86565578e-05 	4.787005798e-11
0.9981704085 	0.960864814 	-0.0001318846065 	2.510949728e-10
0.9983459711 	0.793743157 	-4.773610335e-05 	2.888686032e-10
0.9985215337 	0.6063450348 	7.670165417e-05 	1.284115259e-11
0.9986970963 	0.4073569627 	8.076178551e-05 	-1.431001186e-10
0.998872659 	0.2041375636 	2.483725766e-05 	-7.036086744e-11
0.9990482216 	0.0859906627 	3.611990611e-06 	-1.609899504e-11
0.9990482216 	0.0859906627 	3.611990611e-06 	-1.609899504e-11
