0.4709558481 	0.07926987259 	-4.77168682e-06 	6.232442489e-12
0.4711314108 	0.2178891534 	-3.293486304e-05 	2.637052533e-11
0.4713069734 	0.4345414106 	-9.659779191e-05 	3.829225768e-11
0.471482536 	0.6459549333 	-7.644765296e-05 	-5.370077202e-11
0.4716580986 	0.8435773403 	7.279923715e-05 	-1.801647048e-10
0.4718336613 	1.0179635 	0.0001474688207 	-1.792111239e-10
0.4720092239 	1.164739768 	7.076986548e-05 	-1.377440398e-10
0.4721847865 	1.285684521 	-8.752213103e-06 	-1.750463809e-10
0.4723603491 	1.385400542 	-2.59352976e-05 	-2.461123338e-10
0.4725359118 	1.468512216 	-1.78863611e-05 	-3.073640999e-10
0.4727114744 	1.538748891 	-9.232798801e-06 	-3.607708655e-10
0.472887037 	1.59893043 	-3.999230782e-06 	-4.121119098e-10
0.4730625996 	1.65115799 	-1.070528235e-06 	-4.635267025e-10
0.4732381623 	1.697003106 	6.948397123e-07 	-5.154266595e-10
0.4734137249 	1.737654551 	1.8703208e-06 	-5.677929007e-10
0.4735892875 	1.774024105 	2.722119173e-06 	-6.205665167e-10
0.4737648501 	1.806821105 	3.385649475e-06 	-6.737041684e-10
0.4739404128 	1.836604944 	3.937005761e-06 	-7.27174495e-10
0.4741159754 	1.86382238 	4.420683906e-06 	-7.809528095e-10
0.474291538 	1.888834385 	4.863021907e-06 	-8.350191012e-10
0.4744671006 	1.911935737 	5.279698469e-06 	-8.893570643e-10
0.4746426632 	1.933369528 	5.680623694e-06 	-9.439533938e-10
0.4748182259 	1.953338042 	6.070907903e-06 	-9.987970751e-10
0.4749937885 	1.972011015 	6.457622397e-06 	-1.053879256e-09
0.4751693511 	1.989531994 	6.834718416e-06 	-1.109191853e-09
0.4753449137 	2.006023241 	7.229378486e-06 	-1.164730133e-09
0.4755204764 	2.021589615 	7.574145707e-06 	-1.220482811e-09
0.475696039 	2.036321622 	8.018231957e-06 	-1.27645477e-09
0.4758716016 	2.05029762 	8.214680166e-06 	-1.332610967e-09
0.4760471642 	2.063587064 	8.736384037e-06 	-1.389035217e-09
0.4762227269 	2.077957599 	9.696559864e-06 	-1.453569237e-09
0.4764955107 	2.094875993 	9.541602382e-06 	-1.534376495e-09
0.4767734216 	2.112507695 	1.0029669e-05 	-1.624856156e-09
0.4770565557 	2.129327118 	1.105409345e-05 	-1.717664061e-09
0.4773450114 	2.145409351 	1.155555637e-05 	-1.812681896e-09
0.4776388886 	2.160822094 	1.22920216e-05 	-1.910063494e-09
0.4779382892 	2.175624332 	1.294870189e-05 	-2.0098422e-09
0.4782433171 	2.189868116 	1.366569351e-05 	-2.112102508e-09
0.4785540779 	2.20359959 	1.438813223e-05 	-2.216908606e-09
0.4788706795 	2.216859792 	1.513537728e-05 	-2.324335376e-09
0.4791932316 	2.229685403 	1.59012355e-05 	-2.434457639e-09
0.4795218461 	2.242109316 	1.66885495e-05 	-2.547353928e-09
0.4798566368 	2.254161143 	1.749729493e-05 	-2.663105122e-09
0.48019772 	2.265867633 	1.832828095e-05 	-2.78179481e-09
0.4805452138 	2.277253024 	1.918207858e-05 	-2.90350916e-09
0.4808992388 	2.288339346 	2.005932158e-05 	-3.028336916e-09
0.4812599177 	2.299146682 	2.096064568e-05 	-3.156369358e-09
0.4816273755 	2.309693388 	2.188669868e-05 	-3.287700267e-09
0.4820017397 	2.319996282 	2.283814401e-05 	-3.42242589e-09
0.48238314 	2.330070812 	2.381565973e-05 	-3.560644861e-09
0.4827717088 	2.339931198 	2.481994136e-05 	-3.702458165e-09
0.4831675807 	2.349590558 	2.585170263e-05 	-3.847969049e-09
0.4835708931 	2.359061015 	2.691167712e-05 	-3.997282939e-09
0.4839817856 	2.368353793 	2.800061949e-05 	-4.150507361e-09
0.4844004009 	2.3774793 	2.911930682e-05 	-4.307751803e-09
0.4848268841 	2.386447206 	3.026853999e-05 	-4.469127605e-09
0.485261383 	2.395266503 	3.144914504e-05 	-4.634747819e-09
0.4857040484 	2.403945565 	3.266197461e-05 	-4.804727035e-09
0.4861550336 	2.4124922 	3.390790935e-05 	-4.97918121e-09
0.4866144951 	2.420913696 	3.518785939e-05 	-5.158227465e-09
0.4870825921 	2.429216859 	3.650276589e-05 	-5.34198386e-09
0.487559487 	2.437408054 	3.78536025e-05 	-5.530569147e-09
0.4880453452 	2.445493233 	3.924137699e-05 	-5.724102504e-09
0.4885403351 	2.453477969 	4.066713278e-05 	-5.922703233e-09
0.4890446283 	2.461367478 	4.213195051e-05 	-6.126490435e-09
0.4895583997 	2.469166647 	4.363694966e-05 	-6.335582664e-09
0.4900818274 	2.476880052 	4.518329009e-05 	-6.55009754e-09
0.4906150929 	2.484511982 	4.67721736e-05 	-6.770151342e-09
0.4911583811 	2.492066452 	4.840484539e-05 	-6.995858566e-09
0.4917118805 	2.499547224 	5.008259554e-05 	-7.227331452e-09
0.4922757829 	2.506957817 	5.180676036e-05 	-7.464679478e-09
0.4928502838 	2.514301524 	5.35787236e-05 	-7.708008833e-09
0.4934355824 	2.521581426 	5.539991762e-05 	-7.957421847e-09
0.4940318817 	2.528800397 	5.727182429e-05 	-8.213016399e-09
0.4946393885 	2.535961122 	5.91959758e-05 	-8.474885311e-09
0.4952583133 	2.543066104 	6.117395508e-05 	-8.743115686e-09
0.4958888709 	2.55011767 	6.320739629e-05 	-9.017788261e-09
0.4965312797 	2.557117987 	6.529798447e-05 	-9.298976731e-09
0.4971857627 	2.564069062 	6.744745471e-05 	-9.586747052e-09
0.4978525466 	2.570972756 	6.965759537e-05 	-9.881156758e-09
0.4985318627 	2.577830787 	7.193022509e-05 	-1.018225429e-08
0.4992239466 	2.58464474 	7.426727357e-05 	-1.049007827e-08
0.4999290382 	2.591416073 	7.667050344e-05 	-1.080465706e-08
0.5006473819 	2.598146119 	7.914242297e-05 	-1.112600766e-08
0.501379227 	2.604836098 	8.168362648e-05 	-1.145413616e-08
0.502124827 	2.611487119 	8.430016786e-05 	-1.17890342e-08
0.5028844406 	2.618100186 	8.698331032e-05 	-1.213068238e-08
0.5036583311 	2.624676206 	8.975719085e-05 	-1.247904551e-08
0.5044467669 	2.631215958 	9.257195397e-05 	-1.283408349e-08
0.5052500214 	2.637720292 	9.551844974e-05 	-1.319583034e-08
0.506068373 	2.64501178 	9.899774299e-05 	-1.361152874e-08
0.507324668 	2.653825311 	0.000103164236 	-1.412827339e-08
0.5085949819 	2.663232575 	0.0001079338912 	-1.469706483e-08
0.5098794711 	2.6724242 	0.0001129037659 	-1.526997913e-08
0.5111782938 	2.681412448 	0.0001179017556 	-1.584627825e-08
0.5124916099 	2.690208814 	0.0001230552435 	-1.642545506e-08
0.5138195812 	2.698823679 	0.0001283100988 	-1.700700777e-08
0.5151623712 	2.707266502 	0.0001336929826 	-1.759046758e-08
0.5165201452 	2.715545913 	0.000139193357 	-1.817538196e-08
0.5178930705 	2.723669779 	0.0001448152144 	-1.876131313e-08
0.5192813161 	2.73164528 	0.0001505570117 	-1.934783387e-08
0.520685053 	2.739478966 	0.0001564189778 	-1.993452203e-08
0.522104454 	2.747176811 	0.0001624004451 	-2.052095518e-08
0.523539694 	2.754744261 	0.0001685006736 	-2.110670512e-08
0.5249909497 	2.76218627 	0.00017471856 	-2.169133261e-08
0.5264583998 	2.769507344 	0.0001810526809 	-2.227438231e-08
0.527942225 	2.776711566 	0.0001875012434 	-2.285537813e-08
0.5294426081 	2.783802631 	0.0001940620542 	-2.343381891e-08
0.5309597337 	2.790783871 	0.0002007324847 	-2.400917464e-08
0.5324937889 	2.797658276 	0.0002075094352 	-2.458088311e-08
0.5340449624 	2.804428516 	0.0002143892988 	-2.514834713e-08
0.5356134452 	2.811096963 	0.0002213679249 	-2.571093225e-08
0.5371994306 	2.817665703 	0.0002284405819 	-2.626796498e-08
0.5388031139 	2.824136559 	0.0002356019204 	-2.681873158e-08
0.5404246925 	2.830511098 	0.0002428459366 	-2.736247729e-08
0.5420643661 	2.83679065 	0.0002501659361 	-2.789840606e-08
0.5437223366 	2.842976319 	0.0002575544993 	-2.842568076e-08
0.5453988083 	2.849068991 	0.0002650034469 	-2.894342379e-08
0.5470939875 	2.85506935 	0.000272503809 	-2.945071812e-08
0.5488080831 	2.860977888 	0.0002800457951 	-2.994660882e-08
0.5505413061 	2.86679491 	0.000287618768 	-3.043010493e-08
0.5522938699 	2.872520549 	0.0002952112205 	-3.090018178e-08
0.5540659904 	2.878154774 	0.0003028107569 	-3.135578378e-08
0.5558578859 	2.883697399 	0.0003104040792 	-3.179582763e-08
0.5576697768 	2.889148094 	0.0003179769786 	-3.221920603e-08
0.5595018865 	2.894506394 	0.0003255143336 	-3.262479188e-08
0.5613544406 	2.899771709 	0.0003330001158 	-3.301144306e-08
0.563227667 	2.904943335 	0.0003404174026 	-3.337800775e-08
0.5651217966 	2.910020466 	0.0003477483993 	-3.372333032e-08
0.5670370626 	2.915002204 	0.000354974471 	-3.404625784e-08
0.5689737009 	2.919887572 	0.0003620761841 	-3.434564721e-08
0.5709319499 	2.924675528 	0.0003690333588 	-3.46203728e-08
0.5729120508 	2.929364974 	0.0003758251338 	-3.48693348e-08
0.5749142474 	2.933954777 	0.0003824300404 	-3.509146771e-08
0.5769387863 	2.938443775 	0.0003888260934 	-3.528574997e-08
0.5789859169 	2.9428308 	0.0003949908926 	-3.545121245e-08
0.5810558911 	2.947114687 	0.0004009017218 	-3.558694736e-08
0.583148964 	2.951294296 	0.0004065356779 	-3.569212094e-08
0.5852653933 	2.955368521 	0.0004118698093 	-3.576598054e-08
0.5874054395 	2.959336314 	0.0004168812435 	-3.580786254e-08
0.5895693664 	2.963196694 	0.000421547332 	-3.581720358e-08
0.5917574402 	2.966948764 	0.0004258458044 	-3.579354682e-08
0.5939699306 	2.970591725 	0.0004297549112 	-3.573655251e-08
0.5962071099 	2.974124885 	0.0004332535713 	-3.564599323e-08
0.5984692536 	2.977547671 	0.0004363215328 	-3.55217945e-08
0.6007566404 	2.980859635 	0.0004389395308 	-3.536404851e-08
0.6030695519 	2.984060462 	0.000441089451 	-3.51729591e-08
0.6054082729 	2.987149981 	0.0004427545076 	-3.494885873e-08
0.6077730914 	2.990128165 	0.0004439194148 	-3.469222893e-08
0.6101642987 	2.992995139 	0.0004445705393 	-3.440366739e-08
0.6125821893 	2.995751181 	0.0004446960142 	-3.408388531e-08
0.6150270608 	2.998396721 	0.0004442858531 	-3.373365249e-08
0.6174992144 	3.000932331 	0.0004433319392 	-3.335387882e-08
0.6199989545 	3.003358723 	0.0004418282922 	-3.294540052e-08
0.622526589 	3.005676734 	0.0004397706358 	-3.25092585e-08
0.625082429 	3.007887312 	0.000437156801 	-3.204656447e-08
0.6276667894 	3.009991507 	0.0004339868346 	-3.155829091e-08
0.6302799884 	3.011990453 	0.000430262523 	-3.104557998e-08
0.6329223478 	3.013885351 	0.0004259877494 	-3.050956994e-08
0.6355941931 	3.015677455 	0.0004211683096 	-2.995141551e-08
0.6382958531 	3.01736805 	0.0004158119062 	-2.93722442e-08
0.6410276607 	3.018958437 	0.0004099280605 	-2.877316419e-08
0.6437899523 	3.020449914 	0.000403528047 	-2.815524594e-08
0.646583068 	3.021843755 	0.0003966248071 	-2.751951434e-08
0.6494073518 	3.023141193 	0.0003892328617 	-2.686693833e-08
0.6522631514 	3.0243434 	0.000381368216 	-2.619842363e-08
0.6551508186 	3.025451475 	0.0003730482639 	-2.551480634e-08
0.658070709 	3.026466418 	0.0003642916901 	-2.481684823e-08
0.6610231822 	3.027389124 	0.0003551183732 	-2.410523327e-08
0.6640086017 	3.028220358 	0.0003455492901 	-2.33805655e-08
0.6670273351 	3.028960749 	0.0003356064236 	-2.264336806e-08
0.6700797543 	3.029610768 	0.0003253126724 	-2.189408345e-08
0.6731662352 	3.030170725 	0.0003146917667 	-2.113307484e-08
0.6762871577 	3.030640748 	0.0003037681852 	-2.036062822e-08
0.6794429063 	3.031020778 	0.0002925670843 	-1.957695619e-08
0.6826338695 	3.031310555 	0.0002811142109 	-1.878220069e-08
0.6858604404 	3.031509612 	0.0002694358688 	-1.79764407e-08
0.6891230163 	3.031617262 	0.0002575587563 	-1.715969009e-08
0.6924219988 	3.031632594 	0.0002455101863 	-1.633193319e-08
0.6957577944 	3.031554461 	0.0002333175719 	-1.54930782e-08
0.6991308138 	3.031381472 	0.0002210087068 	-1.464301069e-08
0.7025414724 	3.031111989 	0.000208611829 	-1.378161276e-08
0.7059901901 	3.030744115 	0.000196155139 	-1.29087233e-08
0.7094773917 	3.030275689 	0.0001836671428 	-1.202419725e-08
0.7130035066 	3.029704278 	0.0001711764243 	-1.112789776e-08
0.7165689691 	3.029027169 	0.0001587116564 	-1.021971966e-08
0.7201742182 	3.028241361 	0.0001463015459 	-9.299604231e-09
0.7238196978 	3.027343555 	0.0001339748131 	-8.367559799e-09
0.727505857 	3.026330144 	0.0001217604587 	-7.423678875e-09
0.7312331497 	3.025197205 	0.000109687691 	-6.468164861e-09
0.7350020349 	3.023943971 	9.781604662e-05 	-5.503948169e-09
0.7387709215 	3.022578884 	8.626724519e-05 	-4.539800725e-09
0.7424982157 	3.021113939 	7.515057209e-05 	-3.58461949e-09
0.7461843763 	3.019555091 	6.44997453e-05 	-2.641726099e-09
0.7498298574 	3.017904644 	5.431577546e-05 	-1.711965728e-09
0.7534351078 	3.016164748 	4.459745973e-05 	-7.962668175e-10
0.7570005716 	3.014337414 	3.534158765e-05 	1.043755397e-10
0.7605266877 	3.012424534 	2.654345945e-05 	9.889197879e-10
0.7640138905 	3.010427888 	1.819706527e-05 	1.85629487e-09
0.7674626093 	3.00834916 	1.029526451e-05 	2.705418614e-09
0.770873269 	3.006189945 	2.8299216e-06 	3.535215807e-09
0.7742462894 	3.003951752 	-4.207952596e-06 	4.344632499e-09
0.777582086 	3.001636017 	-1.082807572e-05 	5.132656625e-09
0.7808810695 	2.999244099 	-1.704078115e-05 	5.898335596e-09
0.7841436462 	2.996777292 	-2.285691083e-05 	6.640787277e-09
0.787370218 	2.994236823 	-2.828771719e-05 	7.359215766e-09
0.7905611821 	2.991623855 	-3.334477558e-05 	8.052923412e-09
0.7937169314 	2.988939493 	-3.80399034e-05 	8.721319576e-09
0.7968378547 	2.986184782 	-4.238508647e-05 	9.363928706e-09
0.7999243362 	2.98336071 	-4.639241222e-05 	9.980395331e-09
0.8029767561 	2.98046821 	-5.007400945e-05 	1.057048701e-08
0.8059954902 	2.977508163 	-5.34419942e-05 	1.113409477e-08
0.8089809102 	2.974481396 	-5.650842149e-05 	1.167123123e-08
0.8119333839 	2.971388685 	-5.928524265e-05 	1.218202648e-08
0.8148532749 	2.968230759 	-6.178426804e-05 	1.266672187e-08
0.8177409426 	2.965008297 	-6.401713482e-05 	1.312566189e-08
0.8205967427 	2.961721932 	-6.599527963e-05 	1.35592844e-08
0.8234210268 	2.958372252 	-6.772991584e-05 	1.396810943e-08
0.8262141429 	2.954959803 	-6.923201521e-05 	1.43527269e-08
0.8289764348 	2.951485087 	-7.05122936e-05 	1.47137836e-08
0.8317082427 	2.947948566 	-7.158120045e-05 	1.505196945e-08
0.8344099031 	2.944350664 	-7.244891179e-05 	1.536800516e-08
0.8370817486 	2.940691765 	-7.312532571e-05 	1.56626282e-08
0.8397241082 	2.93697222 	-7.362006163e-05 	1.593658494e-08
0.8423373074 	2.933192343 	-7.394246172e-05 	1.619059897e-08
0.844921668 	2.929352417 	-7.410160881e-05 	1.642535911e-08
0.8474775082 	2.92545269 	-7.410632738e-05 	1.664146292e-08
0.8500051427 	2.921493384 	-7.396518164e-05 	1.683970672e-08
0.8525048829 	2.917474687 	-7.368637515e-05 	1.702070294e-08
0.8549770366 	2.913396762 	-7.327802835e-05 	1.718476191e-08
0.8574219081 	2.909259745 	-7.274801748e-05 	1.733246643e-08
0.8598397987 	2.905063743 	-7.210387265e-05 	1.746426996e-08
0.862231006 	2.900808842 	-7.135301524e-05 	1.758047651e-08
0.8645958245 	2.896495101 	-7.050262979e-05 	1.768139384e-08
0.8669345455 	2.892122555 	-6.955972334e-05 	1.776724068e-08
0.8692474569 	2.887691216 	-6.853111536e-05 	1.78381938e-08
0.8715348435 	2.883201074 	-6.742345429e-05 	1.789437152e-08
0.8737969871 	2.878652095 	-6.624322331e-05 	1.793585032e-08
0.8760341663 	2.874044221 	-6.499674681e-05 	1.796265987e-08
0.8782466565 	2.869377374 	-6.369019893e-05 	1.797481529e-08
0.8804347301 	2.864651447 	-6.232960154e-05 	1.797225793e-08
0.8825986568 	2.859866315 	-6.092083205e-05 	1.795496013e-08
0.8847387028 	2.855021822 	-5.946963742e-05 	1.792294038e-08
0.8868551318 	2.85011779 	-5.798162546e-05 	1.787613378e-08
0.8889482045 	2.845154012 	-5.646225317e-05 	1.781444673e-08
0.8910181784 	2.840130252 	-5.491683544e-05 	1.773784268e-08
0.8930653087 	2.835046243 	-5.335054996e-05 	1.76463145e-08
0.8950898473 	2.829901687 	-5.176842857e-05 	1.753985274e-08
0.8970920436 	2.824696251 	-5.017535648e-05 	1.741849605e-08
0.8990721441 	2.819429562 	-4.857606829e-05 	1.728231469e-08
0.9010303927 	2.814101209 	-4.697514445e-05 	1.713142446e-08
0.9029670306 	2.808710739 	-4.537700683e-05 	1.696598668e-08
0.9048822962 	2.80325765 	-4.378591409e-05 	1.678621299e-08
0.9067764254 	2.797741391 	-4.220595683e-05 	1.659236762e-08
0.9086496514 	2.792161355 	-4.06410525e-05 	1.638476967e-08
0.910502205 	2.786516878 	-3.909494025e-05 	1.616379459e-08
0.9123343142 	2.780807232 	-3.757117585e-05 	1.592987517e-08
0.9141462048 	2.775031619 	-3.60731265e-05 	1.568350192e-08
0.9159380997 	2.769189168 	-3.460396588e-05 	1.542522291e-08
0.9177102197 	2.763278926 	-3.316666924e-05 	1.515564307e-08
0.9194627831 	2.757299852 	-3.176400874e-05 	1.487542301e-08
0.9211960055 	2.751250813 	-3.039854902e-05 	1.45852772e-08
0.9229101006 	2.745130572 	-2.9072643e-05 	1.428597174e-08
0.9246052793 	2.738937779 	-2.778842801e-05 	1.397832148e-08
0.9262817504 	2.732670968 	-2.654782229e-05 	1.366318658e-08
0.9279397204 	2.726328542 	-2.535252183e-05 	1.334146845e-08
0.9295793934 	2.71990876 	-2.420399766e-05 	1.301410507e-08
0.9312009714 	2.713409733 	-2.31034936e-05 	1.268206574e-08
0.9328046541 	2.706829406 	-2.205202455e-05 	1.234634535e-08
0.9343906389 	2.700165543 	-2.105037533e-05 	1.200795814e-08
0.9359591211 	2.693415718 	-2.009910011e-05 	1.166793116e-08
0.937510294 	2.686577294 	-1.91985225e-05 	1.132729736e-08
0.9390443485 	2.679647403 	-1.834873641e-05 	1.098708848e-08
0.9405614735 	2.672622936 	-1.754960756e-05 	1.06483276e-08
0.942061856 	2.665500512 	-1.680077602e-05 	1.031202171e-08
0.9435456805 	2.658276458 	-1.610165908e-05 	9.979154075e-09
0.9450131299 	2.650946787 	-1.545145607e-05 	9.650676709e-09
0.946464385 	2.643507164 	-1.484915312e-05 	9.327502885e-09
0.9478996243 	2.635952879 	-1.429352669e-05 	9.010499949e-09
0.9493190246 	2.628278811 	-1.378316738e-05 	8.700482486e-09
0.9507227608 	2.620479389 	-1.331641352e-05 	8.398206132e-09
0.9521110058 	2.612548552 	-1.289161861e-05 	8.104361722e-09
0.9534839303 	2.604479699 	-1.250631819e-05 	7.819570681e-09
0.9548417036 	2.596265638 	-1.215983821e-05 	7.544376515e-09
0.9561844929 	2.587898525 	-1.184609115e-05 	7.279246286e-09
0.9575124634 	2.579369794 	-1.157328508e-05 	7.024542942e-09
0.9588257788 	2.570670086 	-1.131318635e-05 	6.780571431e-09
0.9601246008 	2.561789168 	-1.111704752e-05 	6.547449105e-09
0.9614090893 	2.552715732 	-1.085852414e-05 	6.325358746e-09
0.9626794024 	2.543437757 	-1.070216791e-05 	6.114133478e-09
0.9639356968 	2.534753384 	-1.067113426e-05 	5.929970777e-09
0.9647540487 	2.527573927 	-1.048478353e-05 	5.787298984e-09
0.9655573034 	2.521172469 	-1.037711258e-05 	5.666702834e-09
0.9663457395 	2.514739682 	-1.032554303e-05 	5.551433254e-09
0.9671196303 	2.508274779 	-1.024264259e-05 	5.44120734e-09
0.9678792442 	2.501777053 	-1.017780981e-05 	5.335621048e-09
0.9686248445 	2.495245682 	-1.010879698e-05 	5.234352552e-09
0.9693566897 	2.488679756 	-1.004531161e-05 	5.137039393e-09
0.9700750337 	2.48207827 	-9.982771891e-06 	5.043338946e-09
0.9707801255 	2.47544011 	-9.921922064e-06 	4.952906618e-09
0.9714722095 	2.468764052 	-9.861666596e-06 	4.865408423e-09
0.9721515258 	2.462048753 	-9.801653384e-06 	4.780519779e-09
0.9728183099 	2.455292741 	-9.741377465e-06 	4.697928734e-09
0.9734727929 	2.448494414 	-9.680448997e-06 	4.61733721e-09
0.9741152019 	2.441652024 	-9.618508205e-06 	4.538462479e-09
0.9747457596 	2.434763676 	-9.555243778e-06 	4.461038242e-09
0.9753646845 	2.427827318 	-9.490385209e-06 	4.384815501e-09
0.9759721914 	2.420840731 	-9.423699864e-06 	4.309563211e-09
0.9765684907 	2.413801522 	-9.354989807e-06 	4.235068716e-09
0.9771537895 	2.406707112 	-9.28408825e-06 	4.161138031e-09
0.9777282904 	2.399554731 	-9.210856454e-06 	4.087595925e-09
0.9782921928 	2.392341401 	-9.1351806e-06 	4.014285838e-09
0.9788456922 	2.38506393 	-9.056968892e-06 	3.941069665e-09
0.9793889805 	2.377718894 	-8.976148812e-06 	3.867827407e-09
0.979922246 	2.370302629 	-8.892664556e-06 	3.79445667e-09
0.9804456737 	2.362811213 	-8.806474669e-06 	3.720872088e-09
0.9809594451 	2.355240448 	-8.71754987e-06 	3.647004643e-09
0.9814637383 	2.347585846 	-8.625871071e-06 	3.572800904e-09
0.9819587281 	2.339842609 	-8.531427587e-06 	3.498222192e-09
0.9824445862 	2.332005604 	-8.434215531e-06 	3.423243708e-09
0.9829214811 	2.324069342 	-8.334236391e-06 	3.347853604e-09
0.9833895781 	2.316027951 	-8.231495773e-06 	3.272052023e-09
0.9838490396 	2.307875146 	-8.126002304e-06 	3.195850129e-09
0.9843000247 	2.2996042 	-8.017766689e-06 	3.119269116e-09
0.98474269 	2.2912079 	-7.906800899e-06 	3.042339244e-09
0.9851771888 	2.282678517 	-7.793117491e-06 	2.965098863e-09
0.9856036719 	2.274007749 	-7.676729029e-06 	2.887593437e-09
0.9860222871 	2.265186682 	-7.557647603e-06 	2.809874617e-09
0.9864331796 	2.256205723 	-7.435884435e-06 	2.731999323e-09
0.9868364919 	2.24705454 	-7.31144952e-06 	2.654028845e-09
0.9872323637 	2.237721991 	-7.184351344e-06 	2.576027986e-09
0.9876209323 	2.228196035 	-7.054596551e-06 	2.498064266e-09
0.9880023326 	2.218463643 	-6.922189746e-06 	2.420207096e-09
0.9883766967 	2.208510689 	-6.78713287e-06 	2.342526998e-09
0.9887441544 	2.198321825 	-6.649425372e-06 	2.265094784e-09
0.9891048331 	2.187880344 	-6.509062288e-06 	2.187980823e-09
0.9894588579 	2.17716801 	-6.366035825e-06 	2.111254567e-09
0.9898063516 	2.166164878 	-6.220332808e-06 	2.034984138e-09
0.9901474347 	2.154849068 	-6.071924824e-06 	1.959236082e-09
0.9904822253 	2.143196512 	-5.920828469e-06 	1.884075113e-09
0.9908108397 	2.131180657 	-5.766812222e-06 	1.809563795e-09
0.9911333916 	2.118772113 	-5.6104367e-06 	1.735762223e-09
0.9914499931 	2.105938239 	-5.449463291e-06 	1.662727813e-09
0.9917607538 	2.092642647 	-5.290399526e-06 	1.59051409e-09
0.9920657815 	2.078844633 	-5.114919562e-06 	1.519172733e-09
0.9923651819 	2.064498443 	-4.976894171e-06 	1.448744896e-09
0.992659059 	2.04955247 	-4.740277215e-06 	1.379290225e-09
0.9929475145 	2.033948253 	-4.713143796e-06 	1.310811708e-09
0.9932306485 	2.017618705 	-4.153529726e-06 	1.243465075e-09
0.9935085592 	2.000489407 	-4.101107187e-06 	1.17700847e-09
0.9937813429 	1.98404265 	-4.62413919e-06 	1.117046609e-09
0.9939569055 	1.970064338 	-3.972836618e-06 	1.069281462e-09
0.9941324681 	1.957130328 	-3.71190618e-06 	1.027266412e-09
0.9943080307 	1.94352081 	-3.763631482e-06 	9.851107617e-10
0.9944835934 	1.929166889 	-3.566638156e-06 	9.429823064e-10
0.994659156 	1.913990851 	-3.461772675e-06 	9.00855156e-10
0.9948347186 	1.897902973 	-3.302381409e-06 	8.587457972e-10
0.9950102812 	1.880799347 	-3.154219159e-06 	8.166630119e-10
0.9951858439 	1.862558877 	-2.99050278e-06 	7.746184578e-10
0.9953614065 	1.843039474 	-2.816846466e-06 	7.326253759e-10
0.9955369691 	1.822073229 	-2.626012722e-06 	6.906965596e-10
0.9957125317 	1.79946019 	-2.412518521e-06 	6.488457771e-10
0.9958880943 	1.774960276 	-2.165980909e-06 	6.070874929e-10
0.996063657 	1.748282642 	-1.870030329e-06 	5.654379079e-10
0.9962392196 	1.719071545 	-1.497364572e-06 	5.23916058e-10
0.9964147822 	1.686887289 	-1.00214617e-06 	4.825457944e-10
0.9965903448 	1.651180216 	-3.0615773e-07 	4.413594053e-10
0.9967659075 	1.611254745 	7.303651159e-07 	4.004034796e-10
0.9969414701 	1.566219137 	2.380944657e-06 	3.597393972e-10
0.9971170327 	1.514914948 	5.209328792e-06 	3.193825347e-10
0.9972925953 	1.45581871 	1.019358625e-05 	2.789601281e-10
0.997468158 	1.386909674 	1.769009795e-05 	2.36771913e-10
0.9976437206 	1.305510259 	2.1716173e-05 	1.889823453e-10
0.9978192832 	1.208156253 	-2.528567865e-06 	1.379724578e-10
0.9979948458 	1.090733505 	-7.747058901e-05 	1.159626296e-10
0.9981704085 	0.9495384113 	-0.0001266148504 	1.362131412e-10
0.9983459711 	0.7838849495 	-4.186706573e-05 	1.156782272e-10
0.9985215337 	0.5985414909 	7.691766864e-05 	2.857642285e-11
0.9986970963 	0.4020235406 	7.78853433e-05 	-2.082414794e-11
0.998872659 	0.2014499611 	2.344434537e-05 	-1.223396448e-11
0.9990482216 	0.08485681592 	3.296894993e-06 	-3.066582107e-12
