0 	1.419311598 	-5.798219501e-14 	-3.338586334e-21
0.0003149815133 	1.419317178 	-8.881407756e-05 	3.670237434e-09
0.0006299624726 	1.41932609 	-0.0001705829679 	5.894065148e-09
0.0009449428773 	1.419337456 	-0.0002484026247 	6.902518263e-09
0.001259922727 	1.419354989 	-0.000330050171 	6.939226143e-09
0.00157490202 	1.419377136 	-0.0004115816985 	5.869791306e-09
0.001889880757 	1.419404243 	-0.0004934947707 	3.700320611e-09
0.002204858937 	1.419436182 	-0.0005753665435 	4.228555123e-10
0.002239077857 	1.419440179 	-0.0005842662855 	1.731331524e-09
0.002519836559 	1.419471751 	-0.000657302575 	4.162188703e-09
0.002834813624 	1.419512012 	-0.0007392522038 	9.932072262e-09
0.00314979013 	1.419557114 	-0.0008212237016 	1.686526437e-08
0.003464766077 	1.419607056 	-0.0009032054962 	2.496114738e-08
0.003779741465 	1.419661834 	-0.0009851956016 	3.421897846e-08
0.004094716294 	1.419721448 	-0.001067190328 	4.463775708e-08
0.004409690564 	1.419785896 	-0.001149187862 	5.621634246e-08
0.004724664274 	1.419855177 	-0.00123118643 	6.895341831e-08
0.005039637424 	1.41992929 	-0.001313184721 	8.284752242e-08
0.005354610015 	1.420008232 	-0.001395181566 	9.789704244e-08
0.005669582045 	1.420092002 	-0.001477175968 	1.141002243e-07
0.005984553517 	1.420180598 	-0.001559167022 	1.314551734e-07
0.006299524428 	1.420274016 	-0.001641153899 	1.499598578e-07
0.00661449478 	1.420372253 	-0.001723135819 	1.696121097e-07
0.006929464573 	1.420475307 	-0.001805112039 	1.904096269e-07
0.007244433807 	1.420583172 	-0.001887081833 	2.123499735e-07
0.007559402482 	1.420695842 	-0.001969044499 	2.354305831e-07
0.007874370599 	1.420813313 	-0.002050999315 	2.59648755e-07
0.008189338158 	1.420935576 	-0.002132945672 	2.850016764e-07
0.008504305159 	1.421062624 	-0.002214882799 	3.114863667e-07
0.008819271603 	1.421194446 	-0.002296810436 	3.390997521e-07
0.009134237491 	1.421331031 	-0.002378726224 	3.678381589e-07
0.009449202822 	1.421492724 	-0.002472120302 	3.995490392e-07
0.009938585273 	1.421703262 	-0.002588785514 	4.464716554e-07
0.01043716429 	1.421948375 	-0.002718398371 	4.987766592e-07
0.01094511266 	1.422210224 	-0.002850407567 	5.549161944e-07
0.01146260645 	1.422489546 	-0.00298485712 	6.150540743e-07
0.011989825 	1.422787099 	-0.003121786649 	6.793577215e-07
0.01252695103 	1.423103663 	-0.003261237565 	7.479994307e-07
0.01307417071 	1.423440044 	-0.003403251187 	8.211559957e-07
0.01363167369 	1.423797068 	-0.003547869407 	8.990088858e-07
0.01419965319 	1.424175585 	-0.00369513432 	9.817441173e-07
0.01477830605 	1.424576471 	-0.003845088319 	1.069552217e-06
0.01536783281 	1.425000621 	-0.003997774016 	1.162628124e-06
0.01596843781 	1.425448957 	-0.004153234244 	1.261171095e-06
0.01658032918 	1.42592242 	-0.004311512029 	1.365384569e-06
0.01720371899 	1.426421976 	-0.004472650556 	1.475476039e-06
0.0178388233 	1.426948614 	-0.004636693156 	1.591656819e-06
0.01848586221 	1.427503343 	-0.00480368322 	1.714141924e-06
0.01914505996 	1.428087194 	-0.00497366375 	1.843149446e-06
0.01981664503 	1.428701849 	-0.005146857189 	1.978976237e-06
0.02050358683 	1.42934959 	-0.005323613737 	2.122323571e-06
0.02120541641 	1.430031526 	-0.005503930356 	2.273498312e-06
0.02192043459 	1.430747754 	-0.005687555472 	2.432459319e-06
0.02264888916 	1.431498955 	-0.005874409836 	2.599439442e-06
0.02339103257 	1.432286298 	-0.006064536437 	2.774733328e-06
0.02414712203 	1.433110965 	-0.006257978847 	2.958645013e-06
0.02491741955 	1.433974158 	-0.006454779998 	3.151487474e-06
0.0257021921 	1.434877091 	-0.006654982812 	3.353583237e-06
0.02650171163 	1.435820998 	-0.006858629845 	3.533517859e-06
0.02731625522 	1.436807126 	-0.007065763385 	3.517273385e-06
0.02814610515 	1.437836737 	-0.007276425344 	3.493805773e-06
0.02899154899 	1.438911107 	-0.00749065724 	3.462785647e-06
0.02985287974 	1.440031528 	-0.007708500127 	3.423873263e-06
0.03073039586 	1.441199301 	-0.007929994544 	3.37671822e-06
0.03162440146 	1.442415746 	-0.008155180448 	3.320959148e-06
0.03253520634 	1.443682191 	-0.008384097141 	3.256223417e-06
0.03346312612 	1.444999981 	-0.008616783187 	3.182126828e-06
0.03440848235 	1.446370476 	-0.008853276329 	3.098273324e-06
0.03537160262 	1.447795047 	-0.009093613366 	3.004254701e-06
0.03635282068 	1.449275086 	-0.009337830039 	2.899650365e-06
0.03735247653 	1.450812001 	-0.009585960911 	2.784027054e-06
0.03837091657 	1.452407216 	-0.009838038914 	2.656938735e-06
0.03940849371 	1.454062896 	-0.01009420641 	2.517956449e-06
0.04046733527 	1.455783343 	-0.01035490775 	2.366294658e-06
0.04155102344 	1.457571622 	-0.01062036663 	2.200737507e-06
0.04265507529 	1.45942673 	-0.0108902035 	2.021787022e-06
0.0437798734 	1.461348302 	-0.01116414614 	1.82886143e-06
0.04492580757 	1.463337988 	-0.01144221328 	1.621440753e-06
0.0460932749 	1.465397475 	-0.01172442209 	1.398993743e-06
0.04728267995 	1.467528516 	-0.01201078467 	1.160978224e-06
0.04849443489 	1.469732926 	-0.01230130944 	9.068420543e-07
0.04972895962 	1.472012598 	-0.01259599964 	6.360240823e-07
0.05098668193 	1.474369511 	-0.01289485312 	3.479553976e-07
0.05226803766 	1.476805741 	-0.01319786145 	4.206077805e-08
0.05244057823 	1.477138428 	-0.01323843914 	1.727198083e-07
0.05357347081 	1.47931952 	-0.01350531732 	2.956903637e-07
0.05490343374 	1.48191648 	-0.01381695637 	6.5534971e-07
0.0562583873 	1.484599673 	-0.01413270136 	1.035522806e-06
0.057638801 	1.487371689 	-0.01445251151 	1.436816592e-06
0.05904515316 	1.49023595 	-0.01477641108 	1.859843312e-06
0.06047923244 	1.493199775 	-0.01510481859 	2.305683268e-06
0.06194729124 	1.49626963 	-0.01543797981 	2.776740976e-06
0.06344293631 	1.499858748 	-0.01581860066 	3.280256397e-06
0.06573896912 	1.504412555 	-0.01628881514 	4.058683193e-06
0.06806060914 	1.509534019 	-0.01680084526 	4.887334092e-06
0.07040814194 	1.514820713 	-0.01731168016 	5.756904404e-06
0.0727818563 	1.520276489 	-0.01782087188 	6.666731321e-06
0.07518204421 	1.525905051 	-0.01832794308 	7.616056219e-06
0.07760900091 	1.531709994 	-0.01883241446 	8.604030791e-06
0.08006302493 	1.537701936 	-0.01933438376 	9.630042341e-06
0.08255609596 	1.543892991 	-0.01983399268 	9.454554914e-06
0.08507824308 	1.550280133 	-0.0203301498 	8.790831769e-06
0.08762852215 	1.556858398 	-0.02082171554 	8.084016335e-06
0.09020724696 	1.56362945 	-0.02130812278 	7.334960298e-06
0.09281473479 	1.570595336 	-0.02178887965 	6.544624848e-06
0.09545130646 	1.577757717 	-0.0222634964 	5.714034233e-06
0.09811728639 	1.585119358 	-0.0227315949 	4.844288206e-06
0.1008152168 	1.592690234 	-0.02319324107 	3.935686363e-06
0.1035538849 	1.60047756 	-0.02364830521 	2.986369557e-06
0.1063231032 	1.608472185 	-0.02409574655 	2.002018285e-06
0.1091232125 	1.616666161 	-0.02453471944 	9.8385108e-07
0.1117768629 	1.624531261 	-0.02493781365 	6.173037824e-07
0.1119545574 	1.625057862 	-0.02496490122 	7.004786536e-08
0.1148174862 	1.633640337 	-0.02538697195 	1.2041287e-06
0.1177123515 	1.642417878 	-0.02579953652 	2.369504814e-06
0.1206406417 	1.651397309 	-0.02620268458 	3.565327115e-06
0.1236130938 	1.660584224 	-0.02659643635 	4.794164411e-06
0.1266187072 	1.669964809 	-0.02698001532 	6.049168012e-06
0.1296578519 	1.679526175 	-0.0273528062 	7.328805772e-06
0.132730902 	1.68926344 	-0.02771458341 	8.631612851e-06
0.1358382358 	1.69917126 	-0.02806516072 	9.956151332e-06
0.1389802357 	1.709249236 	-0.02840454314 	1.13010849e-05
0.142164066 	1.719501631 	-0.02873288419 	1.26678458e-05
0.1453889171 	1.729921139 	-0.02904997923 	1.405358462e-05
0.1486497487 	1.740491079 	-0.02935539846 	1.363408586e-05
0.1519469623 	1.751200203 	-0.02964893963 	1.24358901e-05
0.1552809637 	1.762041256 	-0.02993056574 	1.121505544e-05
0.1586521634 	1.773011353 	-0.03020036312 	9.973055229e-06
0.1620666825 	1.784112934 	-0.03045853249 	8.708980024e-06
0.1655254184 	1.795338821 	-0.03070505541 	7.42516356e-06
0.1690227476 	1.806671499 	-0.03093971722 	6.125725281e-06
0.1725591007 	1.818098619 	-0.03116245667 	4.811896189e-06
0.176134913 	1.829612556 	-0.03137334113 	3.48487533e-06
0.1797506248 	1.841212885 	-0.03157255595 	2.145800539e-06
0.1834159144 	1.852901888 	-0.03176031134 	7.925502789e-07
0.1855771689 	1.859756986 	-0.03186300056 	8.880965113e-06
0.1871241627 	1.864664124 	-0.03193720249 	5.977736463e-07
0.1908737914 	1.876483042 	-0.03210344078 	2.034754368e-06
0.1946652623 	1.888352215 	-0.03225820926 	3.478396918e-06
0.1984990422 	1.900268656 	-0.03240166269 	4.927775888e-06
0.2023809985 	1.912234042 	-0.03253398502 	6.383937226e-06
0.2063115745 	1.924241356 	-0.03265526742 	7.844386593e-06
0.2102860148 	1.936275358 	-0.03276552417 	9.305909561e-06
0.2143048088 	1.948325768 	-0.03286484129 	1.076774231e-05
0.2183684513 	1.960389767 	-0.03295337485 	1.222922941e-05
0.2224824929 	1.972468722 	-0.03303129327 	1.369138442e-05
0.2266474495 	1.984556134 	-0.03309872266 	1.515187382e-05
0.2308588887 	1.99663806 	-0.03315575405 	1.660803449e-05
0.2351173289 	2.008705061 	-0.03320252061 	1.551250258e-05
0.2394232945 	2.020755921 	-0.03323919071 	1.411898357e-05
0.2437845959 	2.032791762 	-0.03326593146 	1.272450634e-05
0.2481966718 	2.04480215 	-0.03328288861 	1.133328712e-05
0.2526579903 	2.056774739 	-0.03329021876 	9.946572831e-06
0.2571691007 	2.068703909 	-0.03328808313 	8.564694891e-06
0.2617331245 	2.080589396 	-0.033276636 	7.187160352e-06
0.2663542099 	2.092427763 	-0.03325603559 	5.815019557e-06
0.2710268726 	2.104206613 	-0.03322644869 	4.451203035e-06
0.275751688 	2.115916572 	-0.03318803196 	3.095788215e-06
0.28052953 	2.127556203 	-0.03314090132 	1.748692621e-06
0.2853683996 	2.13912466 	-0.03308516346 	4.092413348e-07
0.2868768159 	2.142664852 	-0.03306536595 	8.911356996e-06
0.2902612788 	2.150608356 	-0.03302203408 	9.656912519e-07
0.2952087702 	2.161997804 	-0.03295102517 	2.349567246e-06
0.3002114828 	2.173291101 	-0.03287169894 	3.721620707e-06
0.3052771643 	2.184486677 	-0.03278407806 	5.082473668e-06
0.3103995605 	2.195572999 	-0.03268823148 	6.428414177e-06
0.3155791317 	2.206540088 	-0.03258419424 	7.759537312e-06
0.320817158 	2.217384347 	-0.03247189863 	9.076186625e-06
0.3261196354 	2.228102084 	-0.03235126449 	1.037787226e-05
0.3314812991 	2.238681838 	-0.0322222596 	1.166167984e-05
0.336902809 	2.249114621 	-0.03208478577 	1.292776147e-05
0.3423871157 	2.259395835 	-0.0319386472 	1.417656981e-05
0.3479363295 	2.269518406 	-0.03178366734 	1.540582009e-05
0.3535474839 	2.279471156 	-0.03161969034 	1.661399777e-05
0.3592212696 	2.289246187 	-0.03144645924 	1.780118402e-05
0.3649627704 	2.298837822 	-0.03126365759 	1.670457204e-05
0.370769322 	2.308235448 	-0.03107103774 	1.552964058e-05
0.3766406864 	2.317428851 	-0.03086830628 	1.437340964e-05
0.3825794668 	2.326410684 	-0.03065506979 	1.323519439e-05
0.3885874109 	2.33517223 	-0.03043097156 	1.21173842e-05
0.3946624157 	2.343702323 	-0.0301956834 	1.102081949e-05
0.4008056513 	2.351992123 	-0.02994878414 	9.944840162e-06
0.4070212331 	2.360033673 	-0.02968983795 	8.89083031e-06
0.4133061932 	2.367815672 	-0.02941850219 	7.860760296e-06
0.4196613049 	2.375328584 	-0.02913435784 	6.854055271e-06
0.4260907495 	2.382564355 	-0.02883694194 	5.871476553e-06
0.4325922399 	2.389512258 	-0.02852590944 	4.915594054e-06
0.4391662983 	2.396162627 	-0.02820086065 	3.985890829e-06
0.4458164752 	2.402507009 	-0.02786135112 	3.083027926e-06
0.4525413396 	2.408535144 	-0.02750705529 	2.209631751e-06
0.4593412644 	2.414237358 	-0.02713760977 	1.365189117e-06
0.4662195511 	2.419604768 	-0.02675262172 	5.505445651e-07
0.471104341 	2.423131699 	-0.0264711636 	1.04759688e-05
0.4731749089 	2.424626956 	-0.02635208144 	2.430674263e-07
0.4802079543 	2.429293958 	-0.02593600835 	1.030058367e-06
0.4873218078 	2.433596623 	-0.02550349534 	1.782496494e-06
0.4945150618 	2.437515659 	-0.02505547303 	2.498712486e-06
0.5017088021 	2.441014772 	-0.0245959596 	3.172321739e-06
0.5088246559 	2.444072568 	-0.02412940503 	3.795774975e-06
0.5158619961 	2.446697609 	-0.02365759787 	4.371410885e-06
0.5228223256 	2.448906959 	-0.02318121415 	4.90258994e-06
0.5297067628 	2.450717276 	-0.02270096741 	5.389822483e-06
0.5365152377 	2.452144776 	-0.02221760688 	5.835798854e-06
0.5432491873 	2.453205513 	-0.02173183577 	6.243463869e-06
0.5499094439 	2.453915245 	-0.02124442381 	6.613360536e-06
0.55649621 	2.454289443 	-0.02075605067 	6.948223576e-06
0.5630107473 	2.454343458 	-0.02026748411 	7.250646797e-06
0.5694538871 	2.454092415 	-0.01977946642 	7.521323553e-06
0.5758259306 	2.453550949 	-0.01929260339 	7.762738869e-06
0.5821279228 	2.452733263 	-0.01880757351 	7.977313619e-06
0.5883608325 	2.451653213 	-0.0183249888 	8.16580108e-06
0.5945249646 	2.450324238 	-0.01784544036 	8.330137975e-06
0.6006211498 	2.448759227 	-0.01736944964 	8.472676786e-06
0.606650536 	2.446970465 	-0.01689750015 	8.594278228e-06
0.6126133893 	2.444969735 	-0.01643005001 	8.696231118e-06
0.6185104433 	2.442768168 	-0.01596748966 	8.780535188e-06
0.6243427419 	2.440376223 	-0.01551015848 	8.848475784e-06
0.6301107689 	2.437803823 	-0.01505837368 	8.900553745e-06
0.6358151458 	2.4350603 	-0.01461239922 	8.938375793e-06
0.6414566659 	2.432154339 	-0.01417244964 	8.963384763e-06
0.647036138 	2.42909407 	-0.01373871443 	8.975879982e-06
0.65255404 	2.425887146 	-0.0133113543 	8.976820153e-06
0.6580110512 	2.422540654 	-0.01289048744 	8.967431764e-06
0.6634079914 	2.419061135 	-0.01247620534 	8.948533681e-06
0.6687454422 	2.415454705 	-0.01206858616 	8.920262557e-06
0.6740239929 	2.411727038 	-0.01166768198 	8.883548524e-06
0.6792442933 	2.407883324 	-0.01127351828 	8.839295599e-06
0.6844071263 	2.403928315 	-0.01088610862 	8.787891392e-06
0.6895129981 	2.399866437 	-0.01050545915 	8.729524537e-06
0.6945625248 	2.395701745 	-0.01013155795 	8.664930898e-06
0.6995563279 	2.3914379 	-0.009764378194 	8.594784207e-06
0.7044951269 	2.387078228 	-0.009403888759 	8.519294841e-06
0.7093794255 	2.382625813 	-0.009050055218 	8.438626651e-06
0.7142098238 	2.378083449 	-0.008702832778 	8.353339648e-06
0.7189869164 	2.373453637 	-0.008362168688 	8.263946002e-06
0.7237113541 	2.368738631 	-0.008028009796 	8.170662384e-06
0.7283836644 	2.363940506 	-0.007700302892 	8.073536083e-06
0.7330044134 	2.359061136 	-0.007378989849 	7.97299558e-06
0.7375741699 	2.354102189 	-0.007064008644 	7.869439034e-06
0.7420935234 	2.349065162 	-0.006755298486 	7.763150699e-06
0.7465630238 	2.343951418 	-0.006452801099 	7.654090718e-06
0.7509832008 	2.338762198 	-0.006156456579 	7.542551154e-06
0.7553545986 	2.333498616 	-0.005866204245 	7.428848278e-06
0.7596777566 	2.328161665 	-0.005581984734 	7.313274339e-06
0.7639532349 	2.322752244 	-0.005303741745 	7.195885704e-06
0.7681815307 	2.317271194 	-0.005031421218 	7.076765895e-06
0.7723631646 	2.311719283 	-0.004764969328 	6.956170268e-06
0.7764986516 	2.306097205 	-0.004504333921 	6.83433526e-06
0.7805885059 	2.300405604 	-0.004249465218 	6.711468843e-06
0.7846332395 	2.294645082 	-0.004000317711 	6.587567894e-06
0.7886333369 	2.288816221 	-0.003756847102 	6.462758898e-06
0.7925892905 	2.28291957 	-0.003519010981 	6.337235604e-06
0.7965015875 	2.276955653 	-0.00328676945 	6.211178024e-06
0.8003707124 	2.270924975 	-0.003060084765 	6.084746703e-06
0.8041971471 	2.264828035 	-0.002838923171 	5.957949633e-06
0.8079813545 	2.258665334 	-0.002623252294 	5.830881335e-06
0.8117238006 	2.252437365 	-0.002413041467 	5.703690243e-06
0.8154249461 	2.246144621 	-0.0022082627 	5.576514826e-06
0.819085247 	2.239787594 	-0.002008889506 	5.449483396e-06
0.8227051594 	2.233366783 	-0.00181489822 	5.3226512e-06
0.8262851241 	2.226882692 	-0.001626267263 	5.1960477e-06
0.8298255813 	2.220335835 	-0.001442975699 	5.069786347e-06
0.8333269671 	2.213726723 	-0.001265004728 	4.943973761e-06
0.8367897125 	2.207055873 	-0.001092336849 	4.81870883e-06
0.8402142449 	2.200323801 	-0.0009249558057 	4.69407996e-06
0.8436009875 	2.193531022 	-0.0007628473664 	4.570101993e-06
0.8469503549 	2.186678051 	-0.0006059977763 	4.446831766e-06
0.8502627596 	2.17976539 	-0.0004543939597 	4.324350193e-06
0.8535386095 	2.172793532 	-0.0003080241336 	4.202732665e-06
0.856778308 	2.165762947 	-0.000166876923 	4.082048466e-06
0.8599822544 	2.158674083 	-3.094161848e-05 	3.962360282e-06
0.8631508441 	2.151527357 	9.97914893e-05 	3.843683467e-06
0.8662844661 	2.144323151 	0.0002253320622 	3.726055513e-06
0.8693835062 	2.137061798 	0.0003456895616 	3.609531486e-06
0.8724483462 	2.129743577 	0.0004608729207 	3.494162541e-06
0.8754793633 	2.122368704 	0.0005708908476 	3.379995846e-06
0.878476931 	2.114937319 	0.0006757520372 	3.267074418e-06
0.8814414187 	2.107449479 	0.0007754648009 	3.155427392e-06
0.8843731913 	2.099905142 	0.0008700372359 	3.045065947e-06
0.8872726095 	2.092304157 	0.0009594776942 	2.936025924e-06
0.8901400306 	2.084646251 	0.001043794312 	2.828342126e-06
0.8929758075 	2.076931011 	0.001122995099 	2.722047719e-06
0.8957802895 	2.06915787 	0.001197088113 	2.617174404e-06
0.8985538219 	2.061326091 	0.001266081525 	2.51375304e-06
0.9012967465 	2.053434742 	0.001329983518 	2.411808241e-06
0.9040094009 	2.045482684 	0.001388802527 	2.31135745e-06
0.9066921191 	2.037468539 	0.001442547656 	2.21243442e-06
0.9093452315 	2.029390667 	0.001491228424 	2.115075241e-06
0.9119690649 	2.021247138 	0.001534855565 	2.019318051e-06
0.9145639422 	2.013035695 	0.001573440011 	1.925203416e-06
0.9171301831 	2.00475372 	0.001606996856 	1.832774728e-06
0.9196681037 	1.996398185 	0.001635536103 	1.742078323e-06
0.9221780164 	1.987965604 	0.00165908742 	1.653160248e-06
0.9246602303 	1.979451981 	0.001677647177 	1.566079789e-06
0.9271150512 	1.970852684 	0.001691300402 	1.480920737e-06
0.9295427812 	1.962162608 	0.001700002228 	1.397748325e-06
0.9319437194 	1.954115078 	0.00170365202 	1.323284735e-06
0.933507694 	1.947545702 	0.001703662527 	1.26428474e-06
0.935042816 	1.941732564 	0.001701485253 	1.213615338e-06
0.9365496177 	1.935939953 	0.001697330532 	1.164506854e-06
0.9380286214 	1.930167681 	0.001691315683 	1.116655116e-06
0.9394803401 	1.924415539 	0.001683493627 	1.070106638e-06
0.9409052772 	1.918683186 	0.001673954236 	1.025027674e-06
0.9423039265 	1.912970176 	0.001662774596 	9.814320011e-07
0.9436767733 	1.907275957 	0.001650038211 	9.392029891e-07
0.9450242933 	1.901599869 	0.001635822796 	8.983470499e-07
0.946346954 	1.895941145 	0.001620206663 	8.588400973e-07
0.9476452138 	1.890298902 	0.00160326649 	8.206637724e-07
0.948919523 	1.884672143 	0.001585077876 	7.837944608e-07
0.9501703234 	1.879059755 	0.001565714974 	7.482083056e-07
0.9513980487 	1.873460502 	0.001545250478 	7.138807691e-07
0.9526031246 	1.867873027 	0.00152375553 	6.80786757e-07
0.9537859689 	1.862295847 	0.001501299661 	6.489006774e-07
0.9549469918 	1.856727348 	0.001477950734 	6.181964524e-07
0.9560865958 	1.851165785 	0.001453774894 	5.886476111e-07
0.9572051761 	1.845609276 	0.001428836528 	5.602273536e-07
0.9583031205 	1.840055797 	0.001403198234 	5.32908621e-07
0.9593808097 	1.834503178 	0.001376920791 	5.066641637e-07
0.9604386175 	1.828949099 	0.001350063153 	4.814664477e-07
0.9614769105 	1.823391079 	0.001322682438 	4.572880069e-07
0.9624960488 	1.817826476 	0.00129483392 	4.341014612e-07
0.9634963857 	1.81225247 	0.001266571039 	4.118794887e-07
0.9644782682 	1.806666063 	0.001237945409 	3.905948745e-07
0.9654420366 	1.801064061 	0.001209006837 	3.702205597e-07
0.9663880252 	1.795443069 	0.001179803341 	3.507296858e-07
0.9673165619 	1.789799472 	0.001150381178 	3.320956346e-07
0.9682279687 	1.784129427 	0.001120784872 	3.142920639e-07
0.9691225617 	1.77842884 	0.001091057247 	2.972929384e-07
0.9700006509 	1.772693353 	0.001061239463 	2.810725579e-07
0.9708625409 	1.766918324 	0.001031371058 	2.6560558e-07
0.9717085305 	1.761098797 	0.001001489983 	2.508670398e-07
0.9725389131 	1.755229487 	0.0009716326504 	2.368323659e-07
0.9733539766 	1.749304743 	0.0009418339759 	2.234773927e-07
0.9741540035 	1.74331852 	0.0009121274237 	2.107783694e-07
0.9749392713 	1.737264341 	0.0008825450538 	1.987119654e-07
0.9757100523 	1.731135257 	0.0008531175684 	1.872552735e-07
0.9764666137 	1.724923803 	0.0008238743587 	1.763858093e-07
0.9772092179 	1.71862194 	0.0007948435515 	1.660815084e-07
0.9779381223 	1.712221004 	0.0007660520564 	1.563207207e-07
0.9786535797 	1.705711633 	0.0007375256107 	1.470822019e-07
0.9793558381 	1.69908369 	0.0007092888218 	1.383451039e-07
0.9800451411 	1.692326179 	0.0006813652157 	1.300889522e-07
0.9807217276 	1.685427143 	0.0006537772759 	1.222936489e-07
0.9813858323 	1.678373546 	0.0006265464798 	1.149394538e-07
0.9820376853 	1.671151136 	0.0005996933532 	1.080069594e-07
0.9826775129 	1.663744297 	0.0005732374421 	1.014770731e-07
0.9833055367 	1.656135855 	0.0005471975919 	9.533099379e-08
0.9839219745 	1.648306872 	0.0005215911595 	8.955018634e-08
0.9845270401 	1.640236389 	0.0004964366989 	8.411638903e-08
0.9851209434 	1.631901124 	0.0004717458192 	7.901145348e-08
0.9857038901 	1.623275124 	0.0004475462276 	7.421779623e-08
0.9862760825 	1.614329319 	0.0004238172734 	6.971691255e-08
0.9868377189 	1.605031027 	0.0004006587922 	6.549336936e-08
0.9873889941 	1.595343359 	0.0003778921536 	6.152461313e-08
0.9879300992 	1.585224078 	0.0003559745722 	5.780342379e-08
0.9884612219 	1.574626534 	0.000334327775 	5.429812298e-08
0.9889825462 	1.564464741 	0.0003146684019 	5.126520721e-08
0.9893180687 	1.555837944 	0.0002996579799 	4.893736332e-08
0.9896535912 	1.547861024 	0.0002863707333 	4.694320051e-08
0.9899891138 	1.539472583 	0.0002730032104 	4.499332388e-08
0.9903246363 	1.530629818 	0.0002598831574 	4.309284911e-08
0.9906601588 	1.521284509 	0.0002468104571 	4.12340429e-08
0.9909956813 	1.511380955 	0.0002338874308 	3.941590126e-08
0.9913312038 	1.500854643 	0.0002210794487 	3.763357294e-08
0.9916667263 	1.489630337 	0.000208413564 	3.588331859e-08
0.9920022488 	1.477619652 	0.0001958944269 	3.416073918e-08
0.9923377713 	1.464717941 	0.0001835360605 	3.246113174e-08
0.9926732938 	1.450800252 	0.0001713503119 	3.077940577e-08
0.9930088164 	1.435715983 	0.000159351935 	2.911018102e-08
0.9933443389 	1.419281762 	0.0001475584163 	2.744771328e-08
0.9936798614 	1.401271818 	0.0001359924845 	2.578593391e-08
0.9940153839 	1.381404724 	0.0001246862492 	2.411847929e-08
0.9943509064 	1.359324834 	0.0001136880741 	2.24387646e-08
0.9946864289 	1.334575708 	0.0001030736328 	2.074005888e-08
0.9950219514 	1.306561217 	9.296689044e-05 	1.901529707e-08
0.9953574739 	1.274487253 	8.363746428e-05 	1.725608905e-08
0.9956929965 	1.237272253 	7.58334128e-05 	1.545090402e-08
0.996028519 	1.193407142 	7.188373002e-05 	1.359130974e-08
0.9963640415 	1.140733411 	7.602853305e-05 	1.172359369e-08
0.996699564 	1.076098452 	8.879099686e-05 	1.009119428e-08
0.9970350865 	0.994855287 	5.98963082e-05 	9.210114505e-09
0.997370609 	0.8904061172 	-0.0001032291384 	6.808860158e-09
0.9977061315 	0.7555373987 	-0.0002038957296 	1.179237292e-09
0.998041654 	0.5886144561 	-3.87379968e-06 	-8.661054126e-10
0.9983771766 	0.3989937058 	0.0001626716958 	1.823584041e-09
0.9987126991 	0.2002704404 	8.867541657e-05 	1.938633983e-09
0.9990482216 	0.08449054907 	1.910458931e-05 	6.072136521e-10
0.9990482216 	0.08449054907 	1.910458931e-05 	6.072136521e-10
