0 	0.9848478124 	-4.023518502e-14 	-8.312318366e-20
0.0003137191626 	0.9848672574 	-0.0002576974928 	5.68383004e-09
0.0006274377305 	0.9848867106 	-0.000494782574 	3.118149962e-09
0.0007529268723 	0.9848935374 	-0.0005850268817 	3.84170301e-07
0.000941155703 	0.9848985226 	-0.0007204568915 	7.604963073e-09
0.001254873079 	0.9849184895 	-0.0009572752607 	2.693929444e-08
0.001568589859 	0.9849442499 	-0.001193765265 	5.45734005e-08
0.001882306041 	0.9849773945 	-0.001431368512 	9.057192271e-08
0.002196021624 	0.9850173569 	-0.001668856641 	1.348844141e-07
0.00250973661 	0.9850642953 	-0.001906521918 	1.875227757e-07
0.002823450996 	0.9851181477 	-0.002144224458 	2.484686141e-07
0.003137164783 	0.9851789329 	-0.002381988534 	3.177147573e-07
0.003450877969 	0.9852466472 	-0.002619779535 	3.952461088e-07
0.003764590556 	0.9853212972 	-0.002857590664 	4.810490327e-07
0.004078302543 	0.9854028877 	-0.00309541025 	5.751077583e-07
0.004392013928 	0.9854914252 	-0.003333232093 	6.774060434e-07
0.004705724713 	0.9855869161 	-0.00357105016 	7.879265006e-07
0.005019434897 	0.9856893674 	-0.003808859787 	9.06650901e-07
0.00533314448 	0.9857987856 	-0.004046656782 	1.033560074e-06
0.005646853463 	0.9859151772 	-0.004284437488 	1.168633972e-06
0.005960561844 	0.9860385482 	-0.004522198569 	1.311851664e-06
0.006274269624 	0.9861689041 	-0.004759936956 	1.463191353e-06
0.006587976804 	0.9863062493 	-0.004997649775 	1.622630385e-06
0.006901683384 	0.9864505874 	-0.005235334311 	1.790145257e-06
0.007215389363 	0.9866019208 	-0.005472987952 	1.965711612e-06
0.007529094743 	0.9867602502 	-0.005710608218 	2.149304252e-06
0.007842799523 	0.9869255752 	-0.005948192628 	2.340897181e-06
0.008156503703 	0.987097893 	-0.006185739073 	2.540463976e-06
0.008470207286 	0.9872771993 	-0.006423244996 	2.747977982e-06
0.00878391027 	0.9874634874 	-0.006660709235 	2.963411454e-06
0.009097612657 	0.9876567482 	-0.006898124692 	3.186725581e-06
0.009411314447 	0.9878860684 	-0.00716876804 	3.434392277e-06
0.009898733563 	0.9881849928 	-0.007506887957 	3.79382228e-06
0.01039531224 	0.9885333534 	-0.007882465491 	4.194704393e-06
0.01090122258 	0.9889060739 	-0.008264949353 	4.622983351e-06
0.01141663991 	0.9893042423 	-0.008654465828 	5.079794868e-06
0.01194174287 	0.9897289702 	-0.009051128682 	5.566287337e-06
0.01247671344 	0.990181405 	-0.009455056779 	6.083638889e-06
0.01302173702 	0.9906627249 	-0.009866368825 	6.633058612e-06
0.0135770025 	0.9911741409 	-0.01028518539 	7.21578582e-06
0.01414270231 	0.991716896 	-0.01071162793 	7.833088737e-06
0.0147190325 	0.9922922649 	-0.01114581903 	8.486263745e-06
0.01530619282 	0.9929015544 	-0.01158788221 	9.176634516e-06
0.01590438673 	0.993546103 	-0.012037942 	9.90555105e-06
0.01651382157 	0.9942272812 	-0.01249612377 	1.067438834e-05
0.01713470852 	0.9949464911 	-0.01296255381 	1.148454523e-05
0.01776726278 	0.9957051671 	-0.01343735893 	1.233744209e-05
0.01841170354 	0.9965047754 	-0.01392066705 	1.323452002e-05
0.01906825416 	0.9973468172 	-0.0144126044 	1.417723394e-05
0.01973714216 	0.9982337905 	-0.01491385694 	1.516768429e-05
0.02042153748 	0.9991691273 	-0.0154255139 	1.621078681e-05
0.02112091823 	1.000154503 	-0.015947557 	1.730854867e-05
0.02183344139 	1.001189979 	-0.01647919237 	1.846047815e-05
0.02255935386 	1.002276519 	-0.0170201684 	1.966800843e-05
0.02329890722 	1.003415876 	-0.01757061253 	2.046047794e-05
0.02405235775 	1.004609837 	-0.01813065419 	2.037934023e-05
0.02481996657 	1.00586024 	-0.01870042037 	2.025368133e-05
0.02560199967 	1.00716897 	-0.01928003751 	2.008149221e-05
0.02639872806 	1.00853797 	-0.01986963019 	1.986070643e-05
0.02721042784 	1.009969237 	-0.02046932117 	1.958920065e-05
0.02803738028 	1.011464835 	-0.02107923077 	1.926479382e-05
0.02887987195 	1.013026893 	-0.02169947653 	1.888524728e-05
0.0297381948 	1.014657619 	-0.02233017261 	1.844826472e-05
0.03061264626 	1.016359299 	-0.02297142926 	1.795149253e-05
0.03150352933 	1.018134311 	-0.02362335216 	1.739252039e-05
0.03241115274 	1.019985127 	-0.02428604174 	1.676888213e-05
0.03333583098 	1.021914326 	-0.0249595924 	1.607805696e-05
0.03427788447 	1.023924603 	-0.02564409171 	1.531747111e-05
0.03523763963 	1.026018776 	-0.02633961943 	1.448449986e-05
0.03621542904 	1.028199798 	-0.02704624666 	1.357647041e-05
0.03721159148 	1.03047077 	-0.02776403447 	1.259066447e-05
0.03822647215 	1.032834946 	-0.02849303338 	1.152432207e-05
0.03926042268 	1.035296907 	-0.0292336245 	1.037478117e-05
0.04031569926 	1.037864827 	-0.0299871206 	9.1367629e-06
0.04139611951 	1.040545067 	-0.03075413611 	7.802252238e-06
0.0424968417 	1.043337604 	-0.03153340491 	6.375572979e-06
0.04361824725 	1.046243549 	-0.03232397791 	4.853552577e-06
0.04476072477 	1.049267401 	-0.03312580584 	3.233339622e-06
0.04592467013 	1.052413878 	-0.03393882028 	1.512094223e-06
0.04691067477 	1.055135924 	-0.03462393916 	6.807376485e-07
0.04711048667 	1.055682526 	-0.03476344401 	3.355380899e-07
0.04831858527 	1.059057069 	-0.03560170684 	2.406098891e-06
0.04954938458 	1.062569982 	-0.03645096958 	4.593423026e-06
0.05080331105 	1.066227031 	-0.03731106204 	6.900325564e-06
0.0520807992 	1.070034235 	-0.03818178347 	9.329538224e-06
0.05338229166 	1.073997867 	-0.03906290123 	1.188369882e-05
0.05470823941 	1.078124433 	-0.03995414967 	1.456534299e-05
0.05605910188 	1.082420667 	-0.04085522983 	1.737689804e-05
0.05743534714 	1.086893499 	-0.04176580806 	2.032066693e-05
0.05883745205 	1.091551224 	-0.04268574598 	2.339891577e-05
0.06026729956 	1.096408934 	-0.04361606038 	2.6617321e-05
0.06173156424 	1.101480042 	-0.04455725934 	2.999129539e-05
0.06322334345 	1.107460366 	-0.04562906707 	3.357970908e-05
0.06551344073 	1.115109765 	-0.04694795535 	3.906832813e-05
0.06782907795 	1.123788946 	-0.04837727044 	4.485751906e-05
0.07017053993 	1.132813464 	-0.04979576812 	5.086911751e-05
0.07253811468 	1.142179585 	-0.05120230915 	5.709625793e-05
0.07493209339 	1.151882701 	-0.05259582115 	5.363807492e-05
0.07735277052 	1.161918016 	-0.05397527601 	4.939594301e-05
0.07980044382 	1.172293786 	-0.05534142812 	4.490013004e-05
0.08228795177 	1.1830209 	-0.05669524122 	4.013018271e-05
0.0848045662 	1.194082146 	-0.05803409973 	3.511879987e-05
0.08734924993 	1.205456761 	-0.05935532688 	2.98745782e-05
0.08992231604 	1.217136529 	-0.06065795185 	2.440409602e-05
0.09252408108 	1.229114185 	-0.06194122497 	1.871405157e-05
0.09515486517 	1.241382008 	-0.06320441213 	1.281123455e-05
0.09781499197 	1.253934615 	-0.06444707867 	6.702619174e-06
0.100507166 	1.266780009 	-0.06567003445 	3.895635553e-07
0.1006723289 	1.267573082 	-0.06574263641 	1.932015704e-06
0.1032407961 	1.279884017 	-0.06688565719 	6.668458116e-06
0.1060049194 	1.293256307 	-0.06808040438 	1.394682286e-05
0.108799876 	1.306875954 	-0.06925166967 	2.140289203e-05
0.11162601 	1.320732328 	-0.07039888131 	2.902756301e-05
0.114483669 	1.334814418 	-0.07152152642 	3.681156957e-05
0.1173732048 	1.349112405 	-0.07261923704 	4.474551615e-05
0.1202961886 	1.363631506 	-0.0736927335 	5.282378454e-05
0.1232641206 	1.378374886 	-0.07474259068 	6.106253769e-05
0.1262651629 	1.393313182 	-0.07576699385 	6.941663268e-05
0.1292996849 	1.408419812 	-0.07676457407 	7.787528457e-05
0.1323680601 	1.423682923 	-0.07773504383 	8.192492098e-05
0.1354706662 	1.439090704 	-0.07867818151 	7.44644071e-05
0.138607885 	1.454640359 	-0.0795942638 	6.685900043e-05
0.1417873791 	1.47033715 	-0.08048398634 	5.910056844e-05
0.1450082501 	1.486167772 	-0.08134697909 	5.120913034e-05
0.1482650567 	1.502104599 	-0.08218212795 	4.32108344e-05
0.1515582 	1.518129841 	-0.08298893297 	3.511541412e-05
0.1548880853 	1.534232837 	-0.08376734231 	2.693271959e-05
0.1582551226 	1.550410359 	-0.08451760485 	1.867244772e-05
0.1616658524 	1.566667704 	-0.08524030607 	1.032966622e-05
0.1651212069 	1.58299513 	-0.0859353778 	1.920249207e-06
0.1659171165 	1.586722194 	-0.08608715106 	1.338825247e-05
0.1686151167 	1.599347536 	-0.08661347581 	7.026114377e-06
0.1721480121 	1.615723545 	-0.08726613989 	1.614454234e-05
0.175720328 	1.632119964 	-0.08789003741 	2.527789886e-05
0.1793325041 	1.648538701 	-0.08848553691 	3.441664521e-05
0.182994898 	1.664985455 	-0.08905317684 	4.357246567e-05
0.1867003698 	1.681441614 	-0.08959258593 	5.270869963e-05
0.1904471912 	1.697885558 	-0.09010337164 	6.181043871e-05
0.1942358234 	1.714307012 	-0.09058555178 	7.0868957e-05
0.1980667329 	1.730704188 	-0.09103938713 	7.987598006e-05
0.201946184 	1.747081994 	-0.09146527867 	8.883523602e-05
0.205874617 	1.763432453 	-0.09186333194 	9.42656566e-05
0.2098468907 	1.779735773 	-0.09223332921 	8.519371217e-05
0.2138634941 	1.79597964 	-0.09257528741 	7.615739307e-05
0.2179249219 	1.812162675 	-0.09288945848 	6.716444473e-05
0.2220370961 	1.82828943 	-0.09317617386 	5.82119623e-05
0.226200533 	1.844353163 	-0.09343561446 	4.931879447e-05
0.2304104359 	1.860336754 	-0.09366775316 	4.0505665e-05
0.2346673231 	1.876229776 	-0.09387269938 	3.177900397e-05
0.238971719 	1.892033591 	-0.09405070231 	2.314481457e-05
0.2433319693 	1.907752797 	-0.09420206908 	1.459787056e-05
0.2477431375 	1.923375938 	-0.09432694956 	6.165716244e-06
0.2510499412 	1.934875162 	-0.0944001557 	1.9883634e-05
0.2522035389 	1.938886195 	-0.09442870247 	2.282247491e-06
0.2567137226 	1.95427451 	-0.09451322336 	1.099101358e-05
0.2612769989 	1.969553051 	-0.09457139196 	1.955272696e-05
0.2658977798 	1.98472076 	-0.09460347621 	2.79581409e-05
0.2705701354 	1.999764518 	-0.09460966195 	3.618695088e-05
0.275294641 	2.014675605 	-0.09459014987 	4.42363553e-05
0.2800721922 	2.029456349 	-0.09454510576 	5.210448538e-05
0.2849113354 	2.044109918 	-0.0944747794 	5.979294016e-05
0.2898044922 	2.058624349 	-0.09437941625 	6.727783985e-05
0.2947522652 	2.072990343 	-0.09425926485 	7.455837945e-05
0.2997552636 	2.087209401 	-0.09411443202 	8.163402833e-05
0.3048217599 	2.101284417 	-0.09394510893 	8.850715054e-05
0.3099449938 	2.115205076 	-0.09375157716 	8.755058735e-05
0.3151254131 	2.128963352 	-0.09353407036 	7.957861597e-05
0.3203643454 	2.14255999 	-0.09329263028 	7.179340308e-05
0.3256681805 	2.155995716 	-0.09302740132 	6.419788392e-05
0.3310312183 	2.169261005 	-0.09273864657 	5.680828704e-05
0.3364541189 	2.182349797 	-0.09242648723 	4.962273853e-05
0.3419400009 	2.195262051 	-0.09209088467 	4.263715167e-05
0.3474910806 	2.207994486 	-0.091731953 	3.586193519e-05
0.3531041231 	2.22053838 	-0.09134984596 	2.930257824e-05
0.3587798191 	2.232889488 	-0.09094447234 	2.295509497e-05
0.3645235755 	2.245046581 	-0.09051569607 	1.681686908e-05
0.3703324803 	2.257001743 	-0.0900635794 	1.090035154e-05
0.3762062255 	2.268747521 	-0.08958802065 	5.201573732e-06
0.3818349366 	2.279673239 	-0.08911503276 	4.617574991e-06
0.3821475528 	2.28028018 	-0.08908902225 	3.001949173e-07
0.3881582854 	2.291592456 	-0.08857180155 	5.832515722e-06
0.3942361112 	2.302677185 	-0.08803004349 	1.112856589e-05
0.4003822316 	2.313528078 	-0.08746328865 	1.619663245e-05
0.4066010098 	2.324139833 	-0.08687106926 	2.103546263e-05
0.4128892032 	2.334502124 	-0.08625304666 	2.564177392e-05
0.4192475857 	2.344606744 	-0.08560860325 	3.002472908e-05
0.4256805892 	2.35444726 	-0.08493700195 	3.418732973e-05
0.4321857004 	2.364012988 	-0.0842376936 	3.812478078e-05
0.4387634212 	2.373294327 	-0.08350986607 	4.184677687e-05
0.4454175046 	2.382283103 	-0.08275255934 	4.535755567e-05
0.4521463543 	2.390968021 	-0.08196499576 	4.865280222e-05
0.4589503101 	2.399338231 	-0.08114617051 	5.174202393e-05
0.4658328557 	2.407383757 	-0.08029497498 	5.462834929e-05
0.4727925432 	2.415091973 	-0.07941048768 	5.730831332e-05
0.479829972 	2.422450426 	-0.07849159879 	5.979110818e-05
0.486948429 	2.429446783 	-0.07753716527 	6.207665866e-05
0.4941463394 	2.436051078 	-0.07654867753 	6.41663041e-05
0.5013447716 	2.442198996 	-0.07553425144 	6.589822047e-05
0.508465376 	2.447841768 	-0.07450298474 	6.221398406e-05
0.5155074155 	2.452977524 	-0.073458161 	5.876618299e-05
0.5224724405 	2.457618916 	-0.07240062223 	5.553330304e-05
0.5293615891 	2.461777789 	-0.07133140264 	5.250693605e-05
0.5361747244 	2.465465124 	-0.07025164234 	4.967058551e-05
0.5429133278 	2.468691876 	-0.06916251801 	4.700770475e-05
0.5495782327 	2.471468846 	-0.06806543791 	4.451251444e-05
0.5561695966 	2.473806962 	-0.06696191053 	4.217138373e-05
0.5626887148 	2.475717834 	-0.06585349903 	3.997134423e-05
0.5691364214 	2.477213778 	-0.06474196087 	3.790866484e-05
0.5755129821 	2.478308004 	-0.06362909493 	3.597272243e-05
0.5818194612 	2.479014821 	-0.06251669828 	3.415336819e-05
0.5880568427 	2.479349538 	-0.06140652074 	3.244738656e-05
0.5942253977 	2.479328533 	-0.06030044145 	3.084713043e-05
0.6003259628 	2.478969005 	-0.05920014023 	2.934410881e-05
0.6063597157 	2.478288427 	-0.05810704069 	2.793479123e-05
0.612326888 	2.477304407 	-0.05702259047 	2.661438272e-05
0.6182282137 	2.476034505 	-0.05594795647 	2.537509591e-05
0.6240647607 	2.474495948 	-0.05488413894 	2.421188867e-05
0.6298369959 	2.472705493 	-0.0538320088 	2.312271235e-05
0.6355455349 	2.470679197 	-0.05279222419 	2.210105811e-05
0.6411911782 	2.468432218 	-0.05176526497 	2.114097422e-05
0.6467747435 	2.465978777 	-0.05075150185 	2.024089929e-05
0.6522966938 	2.463332156 	-0.04975117816 	1.93966504e-05
0.6577577088 	2.460504586 	-0.04876439118 	1.860294352e-05
0.6631586198 	2.457507247 	-0.04779115515 	1.785606115e-05
0.6685000027 	2.454350389 	-0.04683143552 	1.715491645e-05
0.6737824424 	2.451043332 	-0.04588511569 	1.649535738e-05
0.679006589 	2.447594453 	-0.04495201266 	1.587333694e-05
0.6841732363 	2.444011267 	-0.04403192505 	1.528682378e-05
0.6892828813 	2.440300568 	-0.04312464052 	1.473458104e-05
0.6943361397 	2.436468416 	-0.04222990854 	1.421329633e-05
0.6993336336 	2.432520157 	-0.04134745872 	1.371992516e-05
0.7042760903 	2.428460513 	-0.04047703215 	1.32532374e-05
0.7091640066 	2.424293703 	-0.03961837794 	1.281222061e-05
0.7139979828 	2.420023424 	-0.0387712343 	1.239438163e-05
0.7187786138 	2.415652876 	-0.03793533925 	1.199744143e-05
0.7235065557 	2.411184835 	-0.03711045239 	1.162029005e-05
0.7281823321 	2.406621742 	-0.03629635015 	1.126249783e-05
0.7328065091 	2.401965693 	-0.03549281065 	1.092221472e-05
0.737379656 	2.397218461 	-0.03469961773 	1.059773026e-05
0.7419023644 	2.392381543 	-0.03391657647 	1.028780374e-05
0.7463751843 	2.387456212 	-0.03314351264 	9.992456135e-06
0.7507986441 	2.382443542 	-0.03238025744 	9.710470007e-06
0.7551732887 	2.377344406 	-0.03162665087 	9.440555254e-06
0.7594996577 	2.372159503 	-0.03088254724 	9.181536078e-06
0.7637783137 	2.36688939 	-0.03014781948 	8.933158268e-06
0.7680097523 	2.361534525 	-0.02942235249 	8.695084587e-06
0.7721944944 	2.356095253 	-0.02870603741 	8.466337075e-06
0.7763330552 	2.35057182 	-0.02799877487 	8.246022492e-06
0.7804259499 	2.344964396 	-0.0273004776 	8.033370983e-06
0.7844736913 	2.339273095 	-0.02661107438 	7.828438354e-06
0.7884767633 	2.333497993 	-0.02593049832 	7.630793479e-06
0.7924356588 	2.327639121 	-0.02525868992 	7.43975608e-06
0.7963508653 	2.32169648 	-0.0245955976 	7.25470542e-06
0.8002228677 	2.315670045 	-0.02394117752 	7.075101847e-06
0.8040521488 	2.309559788 	-0.02329539811 	6.901006905e-06
0.8078391712 	2.303365678 	-0.02265823041 	6.732151483e-06
0.8115844012 	2.297087685 	-0.0220296501 	6.568060231e-06
0.8152883001 	2.290725778 	-0.02140964007 	6.408300828e-06
0.8189513238 	2.284279935 	-0.02079818701 	6.252480895e-06
0.8225739295 	2.277750146 	-0.02019528588 	6.100500664e-06
0.8261565578 	2.271136426 	-0.01960093645 	5.95236654e-06
0.8296996493 	2.264438801 	-0.01901513867 	5.807751626e-06
0.8332036402 	2.257657315 	-0.01843789818 	5.666356999e-06
0.8366689621 	2.250792028 	-0.01786922291 	5.52791109e-06
0.8400960425 	2.243843016 	-0.01730912376 	5.392181697e-06
0.8434853052 	2.236810376 	-0.01675761697 	5.259234314e-06
0.846837165 	2.229694215 	-0.01621471841 	5.128962638e-06
0.8501520345 	2.222494654 	-0.01568044499 	5.001158946e-06
0.853430322 	2.215211815 	-0.01515481694 	4.875635615e-06
0.8566724313 	2.207845823 	-0.01463785453 	4.752223203e-06
0.8598787618 	2.2003968 	-0.0141295796 	4.630775818e-06
0.8630497095 	2.192864857 	-0.01363001666 	4.511341951e-06
0.8661856634 	2.185250091 	-0.01313918904 	4.393871159e-06
0.8692870097 	2.177552568 	-0.01265711992 	4.278235781e-06
0.8723541304 	2.169772322 	-0.01218383348 	4.164321482e-06
0.8753874032 	2.161909338 	-0.01171935364 	4.052026229e-06
0.8783872015 	2.153963544 	-0.01126370328 	3.941259397e-06
0.8813538954 	2.145934797 	-0.01081690576 	3.831988533e-06
0.8842878497 	2.137822866 	-0.01037898382 	3.724260162e-06
0.8871894257 	2.12962742 	-0.009949957411 	3.618006701e-06
0.8900589807 	2.121347999 	-0.009529845716 	3.513162963e-06
0.8928968679 	2.112984006 	-0.009118666454 	3.409671908e-06
0.895703437 	2.104534672 	-0.008716435154 	3.307483748e-06
0.8984790334 	2.095999039 	-0.008323164845 	3.206555042e-06
0.9012239993 	2.087375927 	-0.007938866893 	3.10687668e-06
0.9039386725 	2.078663907 	-0.007563550253 	3.008480632e-06
0.9066233872 	2.069861266 	-0.007197220315 	2.911329369e-06
0.909278474 	2.060965969 	-0.006839880842 	2.815382885e-06
0.91190426 	2.05197563 	-0.006491533267 	2.720599784e-06
0.9145010685 	2.042887466 	-0.006152178006 	2.626930563e-06
0.9170692192 	2.033698259 	-0.005821811987 	2.534322828e-06
0.9196090285 	2.024404311 	-0.005500443876 	2.442734941e-06
0.9221208091 	2.015001408 	-0.005188066595 	2.352162006e-06
0.9246048703 	2.005484777 	-0.00488472095 	2.262575028e-06
0.927061518 	1.99584899 	-0.004590354147 	2.173931884e-06
0.9294910548 	1.986088186 	-0.004305094318 	2.086241568e-06
0.9318937798 	1.977028931 	-0.004051757676 	2.006906663e-06
0.9334589183 	1.969619729 	-0.003852571856 	1.943726505e-06
0.9349951828 	1.963053646 	-0.003681949858 	1.888891544e-06
0.9365031058 	1.956502026 	-0.00351713899 	1.835128193e-06
0.9379832102 	1.949965258 	-0.003357965663 	1.782388969e-06
0.9394360093 	1.943443756 	-0.003204340136 	1.730671176e-06
0.9408620068 	1.936937847 	-0.003056135824 	1.679979042e-06
0.9422616971 	1.930447788 	-0.002913242949 	1.63030801e-06
0.9436355655 	1.923973756 	-0.002775544407 	1.581649103e-06
0.9449840884 	1.917515843 	-0.00264292639 	1.533992523e-06
0.9463077333 	1.911074047 	-0.002515274497 	1.487327508e-06
0.9476069594 	1.904648267 	-0.002392475034 	1.441643797e-06
0.9488822169 	1.898238295 	-0.002274414448 	1.396931433e-06
0.9501339482 	1.891843811 	-0.002160979425 	1.353180879e-06
0.9513625871 	1.885464372 	-0.002052056804 	1.310382965e-06
0.9525685598 	1.879099412 	-0.001947533585 	1.268528614e-06
0.9537522844 	1.872748228 	-0.001847296922 	1.227609194e-06
0.9549141714 	1.866409979 	-0.001751234179 	1.187615756e-06
0.9560546235 	1.86008368 	-0.001659232975 	1.148537927e-06
0.9571740362 	1.85376819 	-0.001571181254 	1.11036547e-06
0.9582727977 	1.847462213 	-0.001486967442 	1.073089826e-06
0.959351289 	1.841164287 	-0.00140648069 	1.036702729e-06
0.9604098839 	1.834872777 	-0.001329610947 	1.001196311e-06
0.9614489497 	1.82858587 	-0.00125624895 	9.665617467e-07
0.9624688464 	1.822301566 	-0.001186286367 	9.327894476e-07
0.9634699278 	1.816017672 	-0.001119615887 	8.998693955e-07
0.964452541 	1.80973179 	-0.001056131296 	8.677911229e-07
0.9654170267 	1.803441312 	-0.0009957275768 	8.365436749e-07
0.9663637192 	1.797143403 	-0.00093830099 	8.061156397e-07
0.967292947 	1.790834996 	-0.0008837491616 	7.764951769e-07
0.9682050321 	1.784512776 	-0.0008319711572 	7.476700604e-07
0.9691002908 	1.778173165 	-0.0007828675516 	7.196277243e-07
0.9699790335 	1.771812306 	-0.0007363404899 	6.923553119e-07
0.9708415649 	1.765426044 	-0.0006922937399 	6.658397231e-07
0.9716881841 	1.759009908 	-0.0006506327354 	6.400676608e-07
0.9725191847 	1.752559083 	-0.0006112646107 	6.150256731e-07
0.9733348547 	1.746068389 	-0.0005740982259 	5.907001917e-07
0.9741354771 	1.739532246 	-0.0005390441826 	5.670775649e-07
0.9749213293 	1.732944645 	-0.0005060148318 	5.441440868e-07
0.9756926839 	1.726299103 	-0.0004749242723 	5.218860246e-07
0.9764498084 	1.719588629 	-0.0004456883419 	5.002896382e-07
0.9771929652 	1.712805664 	-0.0004182245997 	4.793411904e-07
0.977922412 	1.70594203 	-0.0003924523043 	4.590269499e-07
0.9786384019 	1.698988866 	-0.0003682923795 	4.393331841e-07
0.9793411829 	1.691936549 	-0.00034566739 	4.202461642e-07
0.9800309988 	1.684774612 	-0.0003245014906 	4.017522479e-07
0.9807080889 	1.677491642 	-0.0003047203761 	3.838376211e-07
0.9813726878 	1.670075167 	-0.0002862512503 	3.66488358e-07
0.982025026 	1.662511526 	-0.0002690227541 	3.496904292e-07
0.9826653297 	1.654785706 	-0.000252964978 	3.334296713e-07
0.9832938208 	1.646881167 	-0.000238009162 	3.176917572e-07
0.9839107174 	1.638779625 	-0.0002240884523 	3.024621638e-07
0.9845162334 	1.630460801 	-0.0002111352585 	2.877261721e-07
0.9851105786 	1.621902117 	-0.0001990891109 	2.734687876e-07
0.9856939592 	1.613078349 	-0.0001878745125 	2.596749723e-07
0.9862665774 	1.603961177 	-0.0001774625812 	2.46328805e-07
0.9868286317 	1.594518694 	-0.0001677096118 	2.334150124e-07
0.9873803172 	1.584714799 	-0.0001587367215 	2.209133842e-07
0.987921825 	1.574508072 	-0.0001500573503 	2.088119367e-07
0.9884533429 	1.563852648 	-0.0001421796801 	1.970972663e-07
0.9889750553 	1.553664517 	-0.0001357298068 	1.867477967e-07
0.9893108275 	1.545035837 	-0.0001301799187 	1.786332955e-07
0.9896465997 	1.537071957 	-0.0001256078232 	1.716029119e-07
0.9899823719 	1.52871106 	-0.000121300553 	1.646343408e-07
0.9903181441 	1.519911117 	-0.0001169395197 	1.577216743e-07
0.9906539163 	1.510624684 	-0.0001127115735 	1.508607276e-07
0.9909896885 	1.500796873 	-0.0001085149889 	1.440515409e-07
0.9913254607 	1.490364014 	-0.0001043769103 	1.372916726e-07
0.991661233 	1.479251751 	-0.0001002651529 	1.305786988e-07
0.9919970052 	1.467372603 	-9.616848386e-05 	1.239097446e-07
0.9923327774 	1.454622865 	-9.20658914e-05 	1.172818314e-07
0.9926685496 	1.440878547 	-8.793781593e-05 	1.106916109e-07
0.9930043218 	1.425990043 	-8.376135084e-05 	1.041355906e-07
0.993340094 	1.409775007 	-7.951028608e-05 	9.761005681e-08
0.9936758662 	1.392008733 	-7.515272104e-05 	9.111102956e-08
0.9940116384 	1.372410912 	-7.064710141e-05 	8.463431959e-08
0.9943474106 	1.350627093 	-6.593562396e-05 	7.817552373e-08
0.9946831828 	1.326202156 	-6.093363075e-05 	7.173009455e-08
0.9950189551 	1.298541494 	-5.550956524e-05 	6.529374338e-08
0.9953547273 	1.266852834 	-4.938829862e-05 	5.886316648e-08
0.9956904995 	1.23005689 	-4.182054922e-05 	5.243801481e-08
0.9960262717 	1.186647418 	-3.046863001e-05 	4.601196647e-08
0.9963620439 	1.134469127 	-1.106181422e-05 	3.95366267e-08
0.9966978161 	1.070371967 	1.712492672e-05 	3.276987279e-08
0.9970335883 	0.9897071402 	3.822644064e-06 	2.538809001e-08
0.9973693605 	0.8858574543 	-0.0001460081952 	1.982986552e-08
0.9977051327 	0.7515619944 	-0.0002351149492 	1.686676117e-08
0.998040905 	0.5851891114 	-2.07587056e-05 	1.053819022e-08
0.9983766772 	0.3962683325 	0.000157835225 	2.55669387e-09
0.9987124494 	0.1986422341 	8.818932531e-05 	-2.638719834e-10
0.9990482216 	0.08368610722 	1.918092946e-05 	-1.276957277e-10
0.9990482216 	0.08368610722 	1.918092946e-05 	-1.276957277e-10
