0.4709558481 	0.08313325874 	-6.355768941e-06 	1.10340292e-10
0.4711314108 	0.2284974039 	-3.993868152e-05 	4.763988703e-10
0.4713069734 	0.4555695154 	-0.0001080830365 	7.505167544e-10
0.471482536 	0.6766002997 	-7.045230881e-05 	-4.110348861e-10
0.4716580986 	0.8820346721 	0.0001007999122 	-1.74359186e-09
0.4718336613 	1.061859418 	0.0001678718169 	-1.129698248e-09
0.4720092239 	1.212058981 	7.621586965e-05 	-1.595636698e-10
0.4721847865 	1.335168326 	-9.256574154e-07 	-3.217443342e-10
0.4723603491 	1.43636045 	-9.680343909e-06 	-8.149973621e-10
0.4725359118 	1.52056678 	4.189233812e-06 	-1.127973947e-09
0.4727114744 	1.591672528 	1.698355795e-05 	-1.338717768e-09
0.472887037 	1.652580303 	2.592879487e-05 	-1.524893281e-09
0.4730625996 	1.705437737 	3.255364648e-05 	-1.710658277e-09
0.4732381623 	1.751844149 	3.806753325e-05 	-1.899510462e-09
0.4734137249 	1.793005946 	4.303823133e-05 	-2.090963001e-09
0.4735892875 	1.829846715 	4.772306225e-05 	-2.284487605e-09
0.4737648501 	1.863084049 	5.225240954e-05 	-2.479818227e-09
0.4739404128 	1.893283317 	5.669934926e-05 	-2.676807799e-09
0.4741159754 	1.92089572 	6.11062126e-05 	-2.875355202e-09
0.474291538 	1.946285604 	6.549768955e-05 	-3.075386392e-09
0.4744671006 	1.969750351 	6.988819666e-05 	-3.276847985e-09
0.4746426632 	1.991535086 	7.428667901e-05 	-3.479702844e-09
0.4748182259 	2.011843698 	7.869746594e-05 	-3.68392429e-09
0.4749937885 	2.030847204 	8.312705915e-05 	-3.889498002e-09
0.4751693511 	2.048690175 	8.756876574e-05 	-4.096405951e-09
0.4753449137 	2.0654957 	9.204960706e-05 	-4.304658386e-09
0.4755204764 	2.081369309 	9.650086156e-05 	-4.51420086e-09
0.475696039 	2.09640205 	0.0001010726403 	-4.725107492e-09
0.4758716016 	2.110672724 	0.0001054144101 	-4.937177761e-09
0.4760471642 	2.12425115 	0.0001101064226 	-5.150921069e-09
0.4762227269 	2.138944148 	0.0001158423032 	-5.396093089e-09
0.4764955107 	2.156256239 	0.0001216710022 	-5.703667633e-09
0.4767734216 	2.174315132 	0.0001288705675 	-6.049782883e-09
0.4770565557 	2.191559095 	0.0001367878468 	-6.40639115e-09
0.4773450114 	2.20806378 	0.0001443521312 	-6.772791497e-09
0.4776388886 	2.223897387 	0.0001523354354 	-7.150031198e-09
0.4779382892 	2.239119317 	0.0001604228615 	-7.538171964e-09
0.4782433171 	2.253781968 	0.0001687613069 	-7.937757555e-09
0.4785540779 	2.267931773 	0.0001772994492 	-8.349109355e-09
0.4788706795 	2.281610009 	0.0001860616414 	-8.772654026e-09
0.4791932316 	2.294853549 	0.0001950463172 	-9.208798266e-09
0.4795218461 	2.307695439 	0.0002042612671 	-9.657975961e-09
0.4798566368 	2.32016541 	0.0002137114802 	-1.01206309e-08
0.48019772 	2.332290297 	0.0002234029233 	-1.059722198e-08
0.4805452138 	2.344094398 	0.0002333414415 	-1.108822139e-08
0.4808992388 	2.355599778 	0.0002435330639 	-1.159411472e-08
0.4812599177 	2.366826536 	0.0002539839387 	-1.211540053e-08
0.4816273755 	2.377793018 	0.0002647003403 	-1.265258982e-08
0.4820017397 	2.388516022 	0.0002756886694 	-1.320620541e-08
0.48238314 	2.399010955 	0.0002869554478 	-1.377678116e-08
0.4827717088 	2.409291982 	0.0002985073164 	-1.436486105e-08
0.4831675807 	2.419372154 	0.0003103510311 	-1.497099805e-08
0.4835708931 	2.429263511 	0.0003224934579 	-1.559575289e-08
0.4839817856 	2.438977183 	0.0003349415671 	-1.623969249e-08
0.4844004009 	2.448523472 	0.0003477024271 	-1.690338828e-08
0.4848268841 	2.457911927 	0.0003607831962 	-1.758741425e-08
0.485261383 	2.467151408 	0.0003741911137 	-1.829234464e-08
0.4857040484 	2.476250141 	0.0003879334898 	-1.901875151e-08
0.4861550336 	2.485215775 	0.0004020176934 	-1.976720184e-08
0.4866144951 	2.494055419 	0.0004164511385 	-2.053825441e-08
0.4870825921 	2.502775685 	0.0004312412692 	-2.13324563e-08
0.487559487 	2.511382724 	0.0004463955415 	-2.215033903e-08
0.4880453452 	2.519882255 	0.0004619214037 	-2.299241432e-08
0.4885403351 	2.528279592 	0.0004778262745 	-2.38591695e-08
0.4890446283 	2.53657967 	0.0004941175175 	-2.475106253e-08
0.4895583997 	2.544787065 	0.0005108024137 	-2.56685166e-08
0.4900818274 	2.552906011 	0.0005278881303 	-2.661191441e-08
0.4906150929 	2.560940423 	0.0005453816868 	-2.758159214e-08
0.4911583811 	2.568893901 	0.0005632899167 	-2.857783299e-08
0.4917118805 	2.576769754 	0.000581619427 	-2.960086056e-08
0.4922757829 	2.584571002 	0.000600376552 	-3.065083202e-08
0.4928502838 	2.592300391 	0.000619567305 	-3.172783105e-08
0.4934355824 	2.599960401 	0.0006391973246 	-3.283186086e-08
0.4940318817 	2.607553249 	0.0006592718181 	-3.396283715e-08
0.4946393885 	2.615080902 	0.0006797954998 	-3.512058137e-08
0.4952583133 	2.622545076 	0.0007007725263 	-3.630481417e-08
0.4958888709 	2.629947245 	0.0007222064274 	-3.751514946e-08
0.4965312797 	2.637288645 	0.0007441000337 	-3.875108897e-08
0.4971857627 	2.644570274 	0.0007664554006 	-4.001201777e-08
0.4978525466 	2.651792903 	0.000789273734 	-4.129720071e-08
0.4985318627 	2.658957071 	0.0008125552866 	-4.260577987e-08
0.4992239466 	2.666063095 	0.0008362993669 	-4.393677501e-08
0.4999290382 	2.67311107 	0.0008605039514 	-4.528907884e-08
0.5006473819 	2.680100876 	0.0008851666147 	-4.666147689e-08
0.501379227 	2.687032178 	0.0009102814755 	-4.805259578e-08
0.502124827 	2.693904434 	0.0009358473272 	-4.946106294e-08
0.5028844406 	2.7007169 	0.0009618450093 	-5.088512062e-08
0.5036583311 	2.70746864 	0.0009882909427 	-5.23236283e-08
0.5044467669 	2.714158496 	0.001015118525 	-5.377411405e-08
0.5052500214 	2.720785304 	0.001042417217 	-5.523602422e-08
0.506068373 	2.728179319 	0.001073734516 	-5.689553245e-08
0.507324668 	2.737061916 	0.001112250926 	-5.892288809e-08
0.5085949819 	2.746472017 	0.001154517963 	-6.111205655e-08
0.5098794711 	2.75558941 	0.001196895479 	-6.326874276e-08
0.5111782938 	2.764425199 	0.001239119812 	-6.538593023e-08
0.5124916099 	2.772989766 	0.001281255606 	-6.746053378e-08
0.5138195812 	2.781292411 	0.001323167225 	-6.948689355e-08
0.5151623712 	2.789341587 	0.00136480838 	-7.146126301e-08
0.5165201452 	2.797145009 	0.001406091787 	-7.337972017e-08
0.5178930705 	2.80470975 	0.001446946311 	-7.523908619e-08
0.5192813161 	2.812042339 	0.001487295434 	-7.703661426e-08
0.520685053 	2.81914884 	0.001527065662 	-7.877013739e-08
0.522104454 	2.826034926 	0.001566184085 	-8.043804976e-08
0.523539694 	2.832705941 	0.001604579696 	-8.203932779e-08
0.5249909497 	2.83916696 	0.001642183499 	-8.357352924e-08
0.5264583998 	2.84542284 	0.001678928968 	-8.504078613e-08
0.527942225 	2.851478258 	0.001714752381 	-8.644178904e-08
0.5294426081 	2.85733776 	0.001749593149 	-8.777776302e-08
0.5309597337 	2.863005785 	0.001783394116 	-8.905043603e-08
0.5324937889 	2.868486694 	0.001816101819 	-9.026200039e-08
0.5340449624 	2.8737848 	0.001847666719 	-9.141506811e-08
0.5356134452 	2.878904376 	0.001878043386 	-9.251262111e-08
0.5371994306 	2.88384968 	0.001907190646 	-9.355795721e-08
0.5388031139 	2.888624958 	0.001935071683 	-9.455463316e-08
0.5404246925 	2.893234456 	0.001961654101 	-9.550640568e-08
0.5420643661 	2.897682421 	0.001986909946 	-9.641717175e-08
0.5437223366 	2.901973105 	0.00201081568 	-9.72909092e-08
0.5453988083 	2.906110764 	0.002033352125 	-9.813161861e-08
0.5470939875 	2.910099654 	0.002054504363 	-9.894326756e-08
0.5488080831 	2.913944024 	0.002074261606 	-9.972973799e-08
0.5505413061 	2.917648115 	0.002092617033 	-1.004947774e-07
0.5522938699 	2.921216149 	0.002109567607 	-1.012419545e-07
0.5540659904 	2.924652322 	0.002125113854 	-1.019746199e-07
0.5558578859 	2.927960796 	0.002139259643 	-1.026958716e-07
0.5576697768 	2.931145688 	0.002152011931 	-1.034085266e-07
0.5595018865 	2.934211063 	0.00216338051 	-1.041150967e-07
0.5613544406 	2.937160923 	0.002173377741 	-1.048177709e-07
0.563227667 	2.939999201 	0.002182018281 	-1.055184024e-07
0.5651217966 	2.942729752 	0.002189318817 	-1.062184997e-07
0.5670370626 	2.945356341 	0.002195297792 	-1.069192239e-07
0.5689737009 	2.947882642 	0.002199975143 	-1.076213884e-07
0.5709319499 	2.950312228 	0.002203372043 	-1.083254637e-07
0.5729120508 	2.952648565 	0.002205510649 	-1.090315845e-07
0.5749142474 	2.954895008 	0.002206413869 	-1.097395599e-07
0.5769387863 	2.957054796 	0.002206105129 	-1.104488873e-07
0.5789859169 	2.959131048 	0.002204608162 	-1.11158763e-07
0.5810558911 	2.961126759 	0.002201946808 	-1.118681133e-07
0.583148964 	2.963044801 	0.002198144816 	-1.125755822e-07
0.5852653933 	2.964887918 	0.002193225689 	-1.132796274e-07
0.5874054395 	2.966658725 	0.002187212501 	-1.139782901e-07
0.5895693664 	2.968359708 	0.002180128007 	-1.146696128e-07
0.5917574402 	2.969993224 	0.00217199373 	-1.153515854e-07
0.5939699306 	2.971561503 	0.002162830777 	-1.160216529e-07
0.5962071099 	2.973066645 	0.00215265957 	-1.166772553e-07
0.5984692536 	2.974510622 	0.00214149905 	-1.173158176e-07
0.6007566404 	2.975895282 	0.002129367412 	-1.17934572e-07
0.6030695519 	2.977222348 	0.002116281628 	-1.18530651e-07
0.6054082729 	2.978493418 	0.002102257535 	-1.191011302e-07
0.6077730914 	2.979709973 	0.002087309744 	-1.196430302e-07
0.6101642987 	2.980873373 	0.002071451635 	-1.201533398e-07
0.6125821893 	2.981984864 	0.002054695336 	-1.206290295e-07
0.6150270608 	2.983045576 	0.002037051718 	-1.210670697e-07
0.6174992144 	2.984056529 	0.002018530401 	-1.214644467e-07
0.6199989545 	2.985018634 	0.001999139763 	-1.218181779e-07
0.622526589 	2.985932696 	0.001978886973 	-1.221253273e-07
0.625082429 	2.986799415 	0.001957778014 	-1.223830195e-07
0.6276667894 	2.98761939 	0.001935817729 	-1.22588453e-07
0.6302799884 	2.988393122 	0.001913009869 	-1.227389139e-07
0.6329223478 	2.989121015 	0.00188935715 	-1.228317866e-07
0.6355941931 	2.989803378 	0.001864861317 	-1.228645659e-07
0.6382958531 	2.99044043 	0.001839523216 	-1.228348667e-07
0.6410276607 	2.991032298 	0.001813342874 	-1.227404327e-07
0.6437899523 	2.991579023 	0.001786319578 	-1.225791463e-07
0.646583068 	2.992080559 	0.001758451971 	-1.223490297e-07
0.6494073518 	2.992536775 	0.001729738145 	-1.220482632e-07
0.6522631514 	2.992947459 	0.00170017574 	-1.21675166e-07
0.6551508186 	2.993312317 	0.001669762059 	-1.212282553e-07
0.658070709 	2.993630972 	0.001638494166 	-1.20706224e-07
0.6610231822 	2.993902972 	0.001606368994 	-1.201078416e-07
0.6640086017 	2.994127781 	0.001573383486 	-1.194320425e-07
0.6670273351 	2.994304786 	0.001539534657 	-1.186779728e-07
0.6700797543 	2.994433295 	0.001504819787 	-1.178448291e-07
0.6731662352 	2.994512536 	0.00146923639 	-1.169322214e-07
0.6762871577 	2.994541656 	0.001432782939 	-1.159394697e-07
0.6794429063 	2.99451972 	0.001395457656 	-1.148663134e-07
0.6826338695 	2.99444571 	0.001357259908 	-1.137127392e-07
0.6858604404 	2.994318518 	0.001318190359 	-1.124784456e-07
0.6891230163 	2.99413695 	0.001278249845 	-1.111635696e-07
0.6924219988 	2.993899718 	0.001237440755 	-1.09768191e-07
0.6957577944 	2.993605437 	0.001195766531 	-1.082925249e-07
0.6991308138 	2.99325262 	0.001153232001 	-1.067368308e-07
0.7025414724 	2.99283967 	0.001109843419 	-1.051014345e-07
0.7059901901 	2.992364879 	0.001065608622 	-1.03386701e-07
0.7094773917 	2.991826412 	0.001020537146 	-1.015930271e-07
0.7130035066 	2.991222305 	0.0009746403598 	-9.972082635e-08
0.7165689691 	2.990550454 	0.0009279315834 	-9.777051691e-08
0.7201742182 	2.989808599 	0.000880426235 	-9.574250832e-08
0.7238196978 	2.988994317 	0.0008321419739 	-9.363718789e-08
0.727505857 	2.988105003 	0.0007830989793 	-9.145490347e-08
0.7312331497 	2.987137857 	0.0007333201176 	-8.919594664e-08
0.7350020349 	2.98609274 	0.0006829650618 	-8.686683712e-08
0.7387709215 	2.984976807 	0.0006324936708 	-8.448866373e-08
0.7424982157 	2.983799451 	0.0005823699282 	-8.208395121e-08
0.7461843763 	2.98256477 	0.0005327624263 	-7.966187439e-08
0.7498298574 	2.981273881 	0.0004837041875 	-7.72250406e-08
0.7534351078 	2.979927795 	0.0004352263285 	-7.477578428e-08
0.7570005716 	2.978527425 	0.0003873581176 	-7.231619272e-08
0.7605266877 	2.977073591 	0.0003401271923 	-6.984812628e-08
0.7640138905 	2.975567031 	0.000293559637 	-6.737324218e-08
0.7674626093 	2.974008397 	0.0002476800718 	-6.489301688e-08
0.770873269 	2.972398269 	0.0002025117253 	-6.240876649e-08
0.7742462894 	2.970737153 	0.0001580765125 	-5.992166699e-08
0.777582086 	2.969025489 	0.0001143951083 	-5.743276971e-08
0.7808810695 	2.96726365 	7.148702009e-05 	-5.494302203e-08
0.7841436462 	2.965451948 	2.9370654e-05 	-5.245328432e-08
0.787370218 	2.963590635 	-1.193662024e-05 	-4.99643274e-08
0.7905611821 	2.961679908 	-5.24184028e-05 	-4.747686771e-08
0.7937169314 	2.959719909 	-9.205920883e-05 	-4.499157936e-08
0.7968378547 	2.957710727 	-0.0001308444173 	-4.250908464e-08
0.7999243362 	2.955652398 	-0.0001687602152 	-4.002998219e-08
0.8029767561 	2.953544914 	-0.0002057935529 	-3.755485575e-08
0.8059954902 	2.951388214 	-0.0002419321029 	-3.508428007e-08
0.8089809102 	2.949182193 	-0.0002771642201 	-3.261883257e-08
0.8119333839 	2.946926701 	-0.0003114789079 	-3.015910103e-08
0.8148532749 	2.944621545 	-0.0003448657873 	-2.77056924e-08
0.8177409426 	2.942266485 	-0.0003773150705 	-2.525924036e-08
0.8205967427 	2.939861244 	-0.0004088175385 	-2.282041277e-08
0.8234210268 	2.937405501 	-0.0004393645224 	-2.038991848e-08
0.8262141429 	2.934898895 	-0.0004689478885 	-1.796851388e-08
0.8289764348 	2.932341028 	-0.0004975600273 	-1.555700888e-08
0.8317082427 	2.929731461 	-0.0005251938462 	-1.315627249e-08
0.8344099031 	2.927069718 	-0.0005518427654 	-1.076723801e-08
0.8370817486 	2.924355288 	-0.0005775007177 	-8.3909077e-09
0.8397241082 	2.921587622 	-0.0006021621509 	-6.028356986e-09
0.8423373074 	2.918766136 	-0.0006258220338 	-3.680738189e-09
0.844921668 	2.915890214 	-0.0006484758652 	-1.34928375e-09
0.8474775082 	2.912959203 	-0.0006701196853 	9.646910728e-10
0.8500051427 	2.909972421 	-0.0006907500899 	3.25978608e-09
0.8525048829 	2.906929151 	-0.0007103642472 	5.534514566e-09
0.8549770366 	2.903828647 	-0.0007289599162 	7.787302353e-09
0.8574219081 	2.900670131 	-0.0007465354676 	1.001648746e-08
0.8598397987 	2.897452798 	-0.0007630899062 	1.222032041e-08
0.862231006 	2.894175813 	-0.0007786228952 	1.439696526e-08
0.8645958245 	2.890838314 	-0.0007931347808 	1.654450124e-08
0.8669345455 	2.887439413 	-0.0008066266187 	1.866092521e-08
0.8692474569 	2.883978196 	-0.0008191002011 	2.074415481e-08
0.8715348435 	2.880453722 	-0.000830558084 	2.27920324e-08
0.8737969871 	2.876865029 	-0.0008410036144 	2.480232968e-08
0.8760341663 	2.873211132 	-0.0008504409582 	2.677275332e-08
0.8782466565 	2.86949102 	-0.0008588751266 	2.870095085e-08
0.8804347301 	2.865703665 	-0.0008663120029 	3.058451841e-08
0.8825986568 	2.861848014 	-0.0008727583674 	3.242100701e-08
0.8847387028 	2.857922997 	-0.0008782219206 	3.420793394e-08
0.8868551318 	2.853927522 	-0.0008827113105 	3.594279308e-08
0.8889482045 	2.849860478 	-0.000886236136 	3.762305322e-08
0.8910181784 	2.845720737 	-0.0008888070076 	3.924624853e-08
0.8930653087 	2.841507149 	-0.0008904354346 	4.080958306e-08
0.8950898473 	2.837218547 	-0.0008911341472 	4.231114038e-08
0.8970920436 	2.832853744 	-0.0008909164951 	4.374572586e-08
0.8990721441 	2.828411536 	-0.0008897979849 	4.511879201e-08
0.9010303927 	2.823890696 	-0.0008877931623 	4.641923645e-08
0.9029670306 	2.819289976 	-0.0008849187156 	4.764291341e-08
0.9048822962 	2.814608106 	-0.0008811934477 	4.879710028e-08
0.9067764254 	2.809843793 	-0.0008766351733 	4.987334178e-08
0.9086496514 	2.804995718 	-0.0008712639649 	5.087156321e-08
0.910502205 	2.800062536 	-0.0008651004744 	5.178956898e-08
0.9123343142 	2.795042868 	-0.000858166461 	5.262593697e-08
0.9141462048 	2.789935304 	-0.0008504845576 	5.337908923e-08
0.9159380997 	2.784738398 	-0.0008420783219 	5.404763674e-08
0.9177102197 	2.77945066 	-0.0008329721792 	5.463034667e-08
0.9194627831 	2.774070556 	-0.000823191391 	5.512617268e-08
0.9211960055 	2.768596498 	-0.0008127620115 	5.553426958e-08
0.9229101006 	2.763026844 	-0.0008017108386 	5.585400747e-08
0.9246052793 	2.757359886 	-0.0007900653675 	5.608497822e-08
0.9262817504 	2.751593842 	-0.000777853728 	5.622701647e-08
0.9279397204 	2.745726852 	-0.0007651046411 	5.628018891e-08
0.9295793934 	2.739756965 	-0.0007518473623 	5.624478838e-08
0.9312009714 	2.733682128 	-0.0007381115809 	5.612143085e-08
0.9328046541 	2.727500175 	-0.0007239273833 	5.591099811e-08
0.9343906389 	2.721208817 	-0.0007093252078 	5.561455816e-08
0.9359591211 	2.714805619 	-0.000694335737 	5.523346029e-08
0.937510294 	2.708287995 	-0.0006789898325 	5.47693116e-08
0.9390443485 	2.70165318 	-0.0006633184761 	5.422395162e-08
0.9405614735 	2.694898218 	-0.0006473526923 	5.359947538e-08
0.942061856 	2.688019934 	-0.0006311234787 	5.289821237e-08
0.9435456805 	2.681014917 	-0.0006146617339 	5.212272537e-08
0.9450131299 	2.673879487 	-0.0005979981881 	5.127579795e-08
0.946464385 	2.666609668 	-0.000581163334 	5.036042496e-08
0.9478996243 	2.659201158 	-0.0005641873578 	4.937980024e-08
0.9493190246 	2.651649288 	-0.0005471000903 	4.83373036e-08
0.9507227608 	2.643948987 	-0.000529930872 	4.72364867e-08
0.9521110058 	2.636094731 	-0.0005127087525 	4.608105894e-08
0.9534839303 	2.6280805 	-0.0004954615859 	4.487486749e-08
0.9548417036 	2.619899714 	-0.0004782186138 	4.362189684e-08
0.9561844929 	2.611545177 	-0.0004610030581 	4.23262002e-08
0.9575124634 	2.603008996 	-0.0004438522036 	4.099203105e-08
0.9588257788 	2.59428251 	-0.0004267654481 	3.962344368e-08
0.9601246008 	2.5853562 	-0.0004098232022 	3.822522574e-08
0.9614090893 	2.576219487 	-0.000392923909 	3.680094637e-08
0.9626794024 	2.566861084 	-0.0003762628984 	3.535616258e-08
0.9639356968 	2.558088725 	-0.0003612621129 	3.401919815e-08
0.9647540487 	2.550828181 	-0.000349052321 	3.292630441e-08
0.9655573034 	2.544348936 	-0.0003384974778 	3.196485022e-08
0.9663457395 	2.53783335 	-0.0003282092984 	3.101217015e-08
0.9671196303 	2.531281115 	-0.0003180994484 	3.006861385e-08
0.9678792442 	2.524691967 	-0.0003082196585 	2.913571075e-08
0.9686248445 	2.518065493 	-0.0002985482264 	2.821427738e-08
0.9693566897 	2.511401161 	-0.0002890957372 	2.730534772e-08
0.9700750337 	2.504698309 	-0.0002798577152 	2.640973838e-08
0.9707801255 	2.497956146 	-0.000270834672 	2.552823188e-08
0.9714722095 	2.491173739 	-0.0002620248509 	2.466151607e-08
0.9721515258 	2.484350014 	-0.0002534268907 	2.381021005e-08
0.9728183099 	2.477483752 	-0.0002450389512 	2.297486027e-08
0.9734727929 	2.470573576 	-0.0002368590122 	2.215594564e-08
0.9741152019 	2.463617954 	-0.0002288848177 	2.135388042e-08
0.9747457596 	2.456615187 	-0.0002211139197 	2.056901756e-08
0.9753646845 	2.449563404 	-0.0002135436965 	1.980165201e-08
0.9759721914 	2.442460558 	-0.000206171373 	1.905202388e-08
0.9765684907 	2.435304415 	-0.0001989940395 	1.832032164e-08
0.9771537895 	2.428092545 	-0.0001920086689 	1.760668518e-08
0.9777282904 	2.420822318 	-0.0001852121323 	1.691120878e-08
0.9782921928 	2.413490892 	-0.0001786012139 	1.6233944e-08
0.9788456922 	2.406095198 	-0.0001721726242 	1.557490244e-08
0.9793889805 	2.398631938 	-0.0001659230121 	1.493405844e-08
0.979922246 	2.391097562 	-0.0001598489766 	1.431135165e-08
0.9804456737 	2.383488261 	-0.0001539470762 	1.370668951e-08
0.9809594451 	2.37579995 	-0.0001482138392 	1.31199496e-08
0.9814637383 	2.368028248 	-0.0001426457711 	1.255098193e-08
0.9819587281 	2.360168462 	-0.0001372393632 	1.199961114e-08
0.9824445862 	2.352215566 	-0.0001319910989 	1.146563854e-08
0.9829214811 	2.344164175 	-0.0001268974601 	1.09488441e-08
0.9833895781 	2.336008523 	-0.0001219549331 	1.04489884e-08
0.9838490396 	2.327742429 	-0.0001171600135 	9.965814386e-09
0.9843000247 	2.31935927 	-0.0001125092106 	9.499049134e-09
0.98474269 	2.310851942 	-0.0001079990517 	9.048405472e-09
0.9851771888 	2.30221282 	-0.0001036260862 	8.613583554e-09
0.9856036719 	2.293433713 	-9.938688797e-05 	8.194272361e-09
0.9860222871 	2.284505814 	-9.527805926e-05 	7.790151086e-09
0.9864331796 	2.275419641 	-9.129623287e-05 	7.400890495e-09
0.9868364919 	2.266164975 	-8.74380747e-05 	7.026154192e-09
0.9872323637 	2.256730784 	-8.370028592e-05 	6.665599846e-09
0.9876209323 	2.247105141 	-8.007960487e-05 	6.318880316e-09
0.9880023326 	2.237275132 	-7.657280889e-05 	5.985644739e-09
0.9883766967 	2.227226745 	-7.317671556e-05 	5.665539561e-09
0.9887441544 	2.216944746 	-6.98881847e-05 	5.358209545e-09
0.9891048331 	2.206412542 	-6.670411812e-05 	5.063298654e-09
0.9894588579 	2.195612013 	-6.362146286e-05 	4.780450949e-09
0.9898063516 	2.184523324 	-6.063721028e-05 	4.509311435e-09
0.9901474347 	2.17312471 	-5.774838795e-05 	4.249526891e-09
0.9904822253 	2.161392214 	-5.495212141e-05 	4.000746565e-09
0.9908108397 	2.149299396 	-5.224534285e-05 	3.762623012e-09
0.9911333916 	2.136816977 	-4.962583431e-05 	3.53481266e-09
0.9914499931 	2.123912428 	-4.708863316e-05 	3.316976627e-09
0.9917607538 	2.110549477 	-4.463759607e-05 	3.108782342e-09
0.9920657815 	2.096687536 	-4.225178209e-05 	2.909900643e-09
0.9923651819 	2.082280977 	-3.998256587e-05 	2.720019791e-09
0.992659059 	2.067278325 	-3.769146368e-05 	2.538794955e-09
0.9929475145 	2.05162126 	-3.568404843e-05 	2.365970621e-09
0.9932306485 	2.035242855 	-3.321675645e-05 	2.201011234e-09
0.9935085592 	2.018068872 	-3.132355548e-05 	2.044198325e-09
0.9937813429 	2.001585084 	-3.022044937e-05 	1.907457664e-09
0.9939569055 	1.987579489 	-2.829287583e-05 	1.800337987e-09
0.9941324681 	1.974623122 	-2.692612412e-05 	1.708427631e-09
0.9943080307 	1.96099253 	-2.588387528e-05 	1.618641547e-09
0.9944835934 	1.946618569 	-2.46075235e-05 	1.530716039e-09
0.994659156 	1.93142324 	-2.343767626e-05 	1.444708444e-09
0.9948347186 	1.915316487 	-2.222764427e-05 	1.360629137e-09
0.9950102812 	1.898194014 	-2.104328398e-05 	1.278477374e-09
0.9951858439 	1.879934279 	-1.985773321e-05 	1.198247059e-09
0.9953614065 	1.860394659 	-1.867663226e-05 	1.119926273e-09
0.9955369691 	1.839406618 	-1.749271253e-05 	1.043503103e-09
0.9957125317 	1.81676944 	-1.630049532e-05 	9.689644603e-10
0.9958880943 	1.7922421 	-1.50896306e-05 	8.962978997e-10
0.996063657 	1.765532566 	-1.384385639e-05 	8.254925259e-10
0.9962392196 	1.736283569 	-1.253609038e-05 	7.565405224e-10
0.9964147822 	1.70405341 	-1.112088353e-05 	6.894386369e-10
0.9965903448 	1.668289758 	-9.520699878e-06 	6.241927543e-10
0.9967659075 	1.628293377 	-7.597066331e-06 	5.608327945e-10
0.9969414701 	1.583167398 	-5.078323883e-06 	4.994142109e-10
0.9971170327 	1.531745923 	-1.397982816e-06 	4.397934102e-10
0.9972925953 	1.472494125 	4.460885136e-06 	3.802071223e-10
0.997468158 	1.4033729 	1.302325923e-05 	3.129469035e-10
0.9976437206 	1.321673043 	1.870828385e-05 	2.192495453e-10
0.9978192832 	1.223872487 	-3.408105467e-06 	1.028559319e-10
0.9979948458 	1.105747673 	-7.89396853e-05 	1.116469463e-10
0.9981704085 	0.9634079724 	-0.0001330513339 	3.332734861e-10
0.9983459711 	0.7959528807 	-4.905926025e-05 	3.667026583e-10
0.9985215337 	0.6080931027 	7.662011174e-05 	3.306665009e-11
0.9986970963 	0.4085516442 	8.138984735e-05 	-1.603978364e-10
0.998872659 	0.2047396628 	2.514945054e-05 	-8.116363096e-11
0.9990482216 	0.08624471578 	3.683944172e-06 	-1.891915841e-11
0.9990482216 	0.08624471578 	3.683944172e-06 	-1.891915841e-11
