0 	0 	0 	0 	2.077907548 	-8.489118245e-14 	1.585226242e-19 	0 	0 	0
0.0002557009757 	0 	0 	0 	2.07750767 	0.0007220356071 	1.67998623e-07 	0 	0 	0
0.0005113919539 	0 	0 	0 	2.077051255 	0.001413662825 	5.683918392e-07 	0 	0 	0
0.0007670729221 	0 	0 	0 	2.076795017 	0.002092129384 	1.173297851e-06 	0 	0 	0
0.001022743869 	0 	0 	0 	2.076612172 	0.002781747741 	1.995203365e-06 	0 	0 	0
0.001278404782 	0 	0 	0 	2.076463319 	0.003473203603 	3.028702281e-06 	0 	0 	0
0.001534055652 	0 	0 	0 	2.076333475 	0.004165528984 	4.269750318e-06 	0 	0 	0
0.001789696467 	0 	0 	0 	2.076216485 	0.004858465583 	5.714916601e-06 	0 	0 	0
0.00204532722 	0 	0 	0 	2.07610962 	0.00555184945 	7.360869295e-06 	0 	0 	0
0.0023009479 	0 	0 	0 	2.076011561 	0.006245541325 	9.2042114e-06 	0 	0 	0
0.002556558499 	0 	0 	0 	2.075921607 	0.006939435033 	1.124153493e-05 	0 	0 	0
0.002812159009 	0 	0 	0 	2.075839347 	0.007633442994 	1.346943303e-05 	0 	0 	0
0.003067749424 	0 	0 	0 	2.075764516 	0.008327487851 	1.58844976e-05 	0 	0 	0
0.003323329736 	0 	0 	0 	2.075696931 	0.009021498665 	1.848331568e-05 	0 	0 	0
0.003578899939 	0 	0 	0 	2.075636451 	0.009715408725 	2.126246387e-05 	0 	0 	0
0.003834460028 	0 	0 	0 	2.075582964 	0.01040915405 	2.421849981e-05 	0 	0 	0
0.004090009997 	0 	0 	0 	2.075536375 	0.01110267233 	2.734795118e-05 	0 	0 	0
0.004345549843 	0 	0 	0 	2.075496598 	0.01179590206 	3.064730375e-05 	0 	0 	0
0.004601079561 	0 	0 	0 	2.075463557 	0.01248878198 	3.411299155e-05 	0 	0 	0
0.004856599149 	0 	0 	0 	2.075437181 	0.01318125071 	3.774139782e-05 	0 	0 	0
0.005112108602 	0 	0 	0 	2.075417406 	0.01387324696 	4.15288732e-05 	0 	0 	0
0.005367607921 	0 	0 	0 	2.075404178 	0.01456470989 	4.547176483e-05 	0 	0 	0
0.005623097102 	0 	0 	0 	2.075397447 	0.01525557955 	4.956644531e-05 	0 	0 	0
0.005878576144 	0 	0 	0 	2.075397172 	0.01594579721 	5.380933487e-05 	0 	0 	0
0.006134045048 	0 	0 	0 	2.07540332 	0.01663530557 	5.819691643e-05 	0 	0 	0
0.006389503814 	0 	0 	0 	2.075415861 	0.01732404885 	6.272574867e-05 	0 	0 	0
0.006644952442 	0 	0 	0 	2.075434767 	0.01801197213 	6.739247766e-05 	0 	0 	0
0.006900390934 	0 	0 	0 	2.075460011 	0.01869902139 	7.219375949e-05 	0 	0 	0
0.007155819291 	0 	0 	0 	2.075491562 	0.01938515598 	7.712597039e-05 	0 	0 	0
0.007411237516 	0 	0 	0 	2.075529362 	0.02007035516 	8.218665941e-05 	0 	0 	0
0.007666645613 	0 	0 	0 	2.075586252 	0.02085059297 	8.772731532e-05 	0 	0 	0
0.008063470858 	0 	0 	0 	2.075661147 	0.02182332002 	9.574369454e-05 	0 	0 	0
0.008467729309 	0 	0 	0 	2.075758414 	0.02290173998 	0.0001045539083 	0 	0 	0
0.008879559741 	0 	0 	0 	2.075873289 	0.02399762859 	0.0001088631987 	0 	0 	0
0.009299103509 	0 	0 	0 	2.076006618 	0.02511091381 	0.0001073760031 	0 	0 	0
0.009726504592 	0 	0 	0 	2.076159245 	0.02624161837 	0.0001053726354 	0 	0 	0
0.01016190964 	0 	0 	0 	2.076332018 	0.02738978788 	0.0001028422057 	0 	0 	0
0.01060546805 	0 	0 	0 	2.076525801 	0.02855545175 	9.977379396e-05 	0 	0 	0
0.01105733195 	0 	0 	0 	2.076741464 	0.02973862855 	9.615663162e-05 	0 	0 	0
0.01151765634 	0 	0 	0 	2.076979891 	0.0309393277 	9.19801007e-05 	0 	0 	0
0.01198659909 	0 	0 	0 	2.077241972 	0.03215754894 	8.72337448e-05 	0 	0 	0
0.01246432098 	0 	0 	0 	2.077528612 	0.03339328209 	8.190729369e-05 	0 	0 	0
0.0129509858 	0 	0 	0 	2.077840722 	0.03464650695 	7.599069012e-05 	0 	0 	0
0.01344676039 	0 	0 	0 	2.078179224 	0.03591719329 	6.947411749e-05 	0 	0 	0
0.01395181468 	0 	0 	0 	2.078545044 	0.03720530095 	6.234802767e-05 	0 	0 	0
0.01446632177 	0 	0 	0 	2.078939117 	0.03851077997 	5.460316826e-05 	0 	0 	0
0.01499045798 	0 	0 	0 	2.079362377 	0.03983357083 	4.623060859e-05 	0 	0 	0
0.0155244029 	0 	0 	0 	2.079815761 	0.04117360474 	3.722176433e-05 	0 	0 	0
0.01606833949 	0 	0 	0 	2.080300201 	0.04253080401 	2.756842054e-05 	0 	0 	0
0.0166224541 	0 	0 	0 	2.080816622 	0.04390508262 	1.726275326e-05 	0 	0 	0
0.01718693655 	0 	0 	0 	2.081365938 	0.0452963473 	6.29734981e-06 	0 	0 	0
0.017501235 	0 	0 	0 	2.081679569 	0.04606461029 	-7.25330581e-06 	0 	0 	0
0.01776198023 	0 	0 	0 	2.081727787 	0.04678919649 	9.032763009e-06 	0 	0 	0
0.0183477821 	0 	0 	0 	2.081859474 	0.04840995805 	2.988927195e-05 	0 	0 	0
0.01894454283 	0 	0 	0 	2.082032319 	0.05005860099 	5.191551642e-05 	0 	0 	0
0.01955246683 	0 	0 	0 	2.082247751 	0.05173629904 	7.511108213e-05 	0 	0 	0
0.02017340551 	0 	0 	0 	2.082509471 	0.05345337237 	9.955852986e-05 	0 	0 	0
0.0208221775 	0 	0 	0 	2.082818827 	0.05522286126 	0.0001257980251 	0 	0 	0
0.02148308759 	0 	0 	0 	2.083177478 	0.05702969448 	0.0001533018855 	0 	0 	0
0.02215636195 	0 	0 	0 	2.083584768 	0.05886250129 	0.0001820326986 	0 	0 	0
0.02284223095 	0 	0 	0 	2.084041642 	0.06072086533 	0.0002119791173 	0 	0 	0
0.02354092921 	0 	0 	0 	2.08454909 	0.06260404737 	0.0002431260822 	0 	0 	0
0.02425269569 	0 	0 	0 	2.085108102 	0.06451118898 	0.000275455337 	0 	0 	0
0.02497777378 	0 	0 	0 	2.085719768 	0.06644136264 	0.0003089452726 	0 	0 	0
0.02571641135 	0 	0 	0 	2.086385534 	0.06839360225 	0.000343573153 	0 	0 	0
0.02646886086 	0 	0 	0 	2.08710737 	0.07036701797 	0.0003793214862 	0 	0 	0
0.02723537944 	0 	0 	0 	2.087887331 	0.07236086416 	0.0003611140651 	0 	0 	0
0.02801622896 	0 	0 	0 	2.088726945 	0.07437440061 	0.0003318311747 	0 	0 	0
0.02881167614 	0 	0 	0 	2.089627157 	0.0764067403 	0.0003011177177 	0 	0 	0
0.02962199261 	0 	0 	0 	2.090588567 	0.07845684853 	0.0002689895943 	0 	0 	0
0.03044745503 	0 	0 	0 	2.09161169 	0.08052358445 	0.0002354629521 	0 	0 	0
0.03128834514 	0 	0 	0 	2.092697103 	0.08260572926 	0.0002005564571 	0 	0 	0
0.03214494992 	0 	0 	0 	2.093845495 	0.08470200339 	0.0001642922192 	0 	0 	0
0.0330175616 	0 	0 	0 	2.095057644 	0.08681107697 	0.0001266959754 	0 	0 	0
0.03390647783 	0 	0 	0 	2.096334383 	0.08893157587 	8.779691556e-05 	0 	0 	0
0.03481200173 	0 	0 	0 	2.097676568 	0.09106208554 	4.762738952e-05 	0 	0 	0
0.03573444201 	0 	0 	0 	2.099085059 	0.09320115339 	6.222609906e-06 	0 	0 	0
0.03587241249 	0 	0 	0 	2.099295649 	0.09351552214 	-8.232491954e-06 	0 	0 	0
0.0366741131 	0 	0 	0 	2.099659932 	0.09534674687 	3.635556563e-05 	0 	0 	0
0.03763133517 	0 	0 	0 	2.100180741 	0.09750543488 	8.041935452e-05 	0 	0 	0
0.03860643434 	0 	0 	0 	2.100807794 	0.09967714288 	0.0001259873623 	0 	0 	0
0.03959974269 	0 	0 	0 	2.101546608 	0.1018678388 	0.0001730329908 	0 	0 	0
0.04062400414 	0 	0 	0 	2.102401112 	0.1040899932 	0.0002222024486 	0 	0 	0
0.04168283372 	0 	0 	0 	2.103375284 	0.1063451716 	0.0002736916371 	0 	0 	0
0.04276144567 	0 	0 	0 	2.10446983 	0.108618215 	0.000326637131 	0 	0 	0
0.04386020784 	0 	0 	0 	2.105680601 	0.1108982903 	0.0003810120532 	0 	0 	0
0.04497949488 	0 	0 	0 	2.107007883 	0.1131842959 	0.0004367645655 	0 	0 	0
0.04611968834 	0 	0 	0 	2.108451934 	0.1154744679 	0.0004241545612 	0 	0 	0
0.04728117681 	0 	0 	0 	2.110012998 	0.1177668506 	0.0003710474235 	0 	0 	0
0.04846435607 	0 	0 	0 	2.111691282 	0.1200593791 	0.0003162623644 	0 	0 	0
0.04966962917 	0 	0 	0 	2.113486404 	0.122349819 	0.0002598532616 	0 	0 	0
0.05089740661 	0 	0 	0 	2.115397038 	0.1246337067 	0.0002019032708 	0 	0 	0
0.05214810645 	0 	0 	0 	2.117661736 	0.1271807394 	0.0001421528156 	0 	0 	0
0.05406782216 	0 	0 	0 	2.120723613 	0.1304019533 	5.127713674e-05 	0 	0 	0
0.05513320521 	0 	0 	0 	2.122559227 	0.1322722077 	-6.568966549e-05 	0 	0 	0
0.05600859261 	0 	0 	0 	2.123787947 	0.1343302771 	6.489413359e-05 	0 	0 	0
0.05797064725 	0 	0 	0 	2.126642061 	0.1387013009 	0.000205784547 	0 	0 	0
0.05995421803 	0 	0 	0 	2.129772102 	0.1428828413 	0.0003425815805 	0 	0 	0
0.06200681815 	0 	0 	0 	2.133182315 	0.1469219085 	0.0004780754258 	0 	0 	0
0.06408691672 	0 	0 	0 	2.136844433 	0.1507859843 	0.000609776209 	0 	0 	0
0.06618987659 	0 	0 	0 	2.140721377 	0.1544583668 	0.0005989819179 	0 	0 	0
0.06831594804 	0 	0 	0 	2.144793423 	0.157947146 	0.0004514100131 	0 	0 	0
0.07046538408 	0 	0 	0 	2.149043819 	0.1612601871 	0.0003082318586 	0 	0 	0
0.07263844047 	0 	0 	0 	2.153456713 	0.1644044113 	0.0001692882808 	0 	0 	0
0.07483537574 	0 	0 	0 	2.158017447 	0.1673862515 	3.444414808e-05 	0 	0 	0
0.0754127317 	0 	0 	0 	2.159200272 	0.1681304436 	-5.860106122e-05 	0 	0 	0
0.07705645122 	0 	0 	0 	2.161054695 	0.1713851771 	0.0001476585041 	0 	0 	0
0.07930193109 	0 	0 	0 	2.163805932 	0.1756273417 	0.0003426413058 	0 	0 	0
0.08160880446 	0 	0 	0 	2.16685984 	0.179725445 	0.0005350223804 	0 	0 	0
0.08396062845 	0 	0 	0 	2.170208413 	0.1836607677 	0.0007228134265 	0 	0 	0
0.08633835572 	0 	0 	0 	2.173816405 	0.1874019545 	0.0008474512921 	0 	0 	0
0.08874227105 	0 	0 	0 	2.177655077 	0.1909421504 	0.0006399624111 	0 	0 	0
0.09117266232 	0 	0 	0 	2.181705249 	0.1942830921 	0.0004389034408 	0 	0 	0
0.09362982052 	0 	0 	0 	2.185948527 	0.1974267643 	0.0002444087178 	0 	0 	0
0.09611403982 	0 	0 	0 	2.190367501 	0.2003756662 	5.655794811e-05 	0 	0 	0
0.09688748113 	0 	0 	0 	2.19173185 	0.2012450861 	-8.945445663e-05 	0 	0 	0
0.09862561757 	0 	0 	0 	2.19568427 	0.2029599657 	0.0001166627981 	0 	0 	0
0.1011920893 	0 	0 	0 	2.201492771 	0.2052718896 	0.0002804017293 	0 	0 	0
0.1038191753 	0 	0 	0 	2.207442651 	0.2073969795 	0.0004384136546 	0 	0 	0
0.1064752665 	0 	0 	0 	2.213482215 	0.2093239233 	0.0005884857482 	0 	0 	0
0.109160683 	0 	0 	0 	2.21957919 	0.2110543282 	0.0006116399572 	0 	0 	0
0.1118757483 	0 	0 	0 	2.225718217 	0.2125984027 	0.0004417562093 	0 	0 	0
0.1146207897 	0 	0 	0 	2.231884571 	0.2139655527 	0.0002797382363 	0 	0 	0
0.1173961376 	0 	0 	0 	2.238070301 	0.2151627694 	0.000125275293 	0 	0 	0
0.1197757982 	0 	0 	0 	2.243321743 	0.2160473648 	-4.971553635e-05 	0 	0 	0
0.1207963587 	0 	0 	0 	2.245101189 	0.2166161374 	-5.401091472e-06 	0 	0 	0
0.1275403631 	0 	0 	0 	2.256394871 	0.2201106248 	-3.906812238e-05 	0 	0 	0
0.1342391852 	0 	0 	0 	2.26727501 	0.2230989266 	-4.718206601e-05 	0 	0 	0
0.140893539 	0 	0 	0 	2.277702744 	0.2256341698 	-1.79861503e-05 	0 	0 	0
0.1453217662 	0 	0 	0 	2.284399305 	0.2271011592 	-0.0001102732652 	0 	0 	0
0.147333769 	0 	0 	0 	2.288142722 	0.2276906641 	2.572966856e-07 	0 	0 	0
0.1534017841 	0 	0 	0 	2.298986586 	0.2292605723 	1.365297061e-06 	0 	0 	0
0.1594491581 	0 	0 	0 	2.309328732 	0.2304974545 	2.814209276e-06 	0 	0 	0
0.1655335554 	0 	0 	0 	2.319249868 	0.231454305 	1.966447567e-06 	0 	0 	0
0.1716619615 	0 	0 	0 	2.328758756 	0.2321504824 	6.747133025e-07 	0 	0 	0
0.174327366 	0 	0 	0 	2.332725427 	0.2323724234 	-0.0001483759062 	0 	0 	0
0.1774180535 	0 	0 	0 	2.337232141 	0.2321092486 	8.787268367e-07 	0 	0 	0
0.182898331 	0 	0 	0 	2.344879654 	0.2315390181 	3.119943154e-06 	0 	0 	0
0.1883762778 	0 	0 	0 	2.352176129 	0.2308253677 	6.194572243e-06 	0 	0 	0
0.1938522197 	0 	0 	0 	2.359144129 	0.2299708603 	6.584897244e-06 	0 	0 	0
0.199367316 	0 	0 	0 	2.365827338 	0.2289900768 	4.548059603e-06 	0 	0 	0
0.2049440104 	0 	0 	0 	2.372239598 	0.2278999757 	1.766655845e-06 	0 	0 	0
0.2079442965 	0 	0 	0 	2.375536524 	0.2272724636 	-0.0001479714456 	0 	0 	0
0.2102620741 	0 	0 	0 	2.378313643 	0.2266452256 	1.163247197e-05 	0 	0 	0
0.2152872941 	0 	0 	0 	2.38404317 	0.225251555 	3.624529535e-05 	0 	0 	0
0.2203176812 	0 	0 	0 	2.389481133 	0.2237824165 	6.014173181e-05 	0 	0 	0
0.2253537677 	0 	0 	0 	2.394653668 	0.2222290856 	5.597795946e-05 	0 	0 	0
0.2304676361 	0 	0 	0 	2.399595684 	0.2206146868 	3.284548591e-05 	0 	0 	0
0.2356044139 	0 	0 	0 	2.404291444 	0.2189279373 	1.029829188e-05 	0 	0 	0
0.2380121438 	0 	0 	0 	2.406375283 	0.2181282499 	-0.0001430015986 	0 	0 	0
0.2406778059 	0 	0 	0 	2.408713044 	0.217160695 	1.325839301e-05 	0 	0 	0
0.2457009026 	0 	0 	0 	2.412874813 	0.2153337705 	3.76718083e-05 	0 	0 	0
0.2507352132 	0 	0 	0 	2.416808612 	0.2134636044 	6.145763724e-05 	0 	0 	0
0.2558326136 	0 	0 	0 	2.420537218 	0.2115569331 	7.536946982e-05 	0 	0 	0
0.2609722273 	0 	0 	0 	2.4240579 	0.2096120531 	5.21074467e-05 	0 	0 	0
0.2661224414 	0 	0 	0 	2.427360188 	0.2076357886 	2.947225421e-05 	0 	0 	0
0.2712839648 	0 	0 	0 	2.430446516 	0.2056358661 	7.47902855e-06 	0 	0 	0
0.2730852849 	0 	0 	0 	2.431454931 	0.2049394297 	-9.755123132e-05 	0 	0 	0
0.2763941728 	0 	0 	0 	2.43338064 	0.203595942 	1.555173687e-05 	0 	0 	0
0.2815470354 	0 	0 	0 	2.436154669 	0.2015304798 	3.897797284e-05 	0 	0 	0
0.2867304847 	0 	0 	0 	2.438736905 	0.1994403208 	6.161234492e-05 	0 	0 	0
0.2919294453 	0 	0 	0 	2.44112302 	0.1973363401 	8.338731785e-05 	0 	0 	0
0.2971447241 	0 	0 	0 	2.443319677 	0.1952189966 	6.621828383e-05 	0 	0 	0
0.3023972473 	0 	0 	0 	2.445338933 	0.1930833705 	4.461798577e-05 	0 	0 	0
0.3077176544 	0 	0 	0 	2.447186976 	0.1909336606 	2.36102825e-05 	0 	0 	0
0.3130544986 	0 	0 	0 	2.448860314 	0.1887710832 	3.41953904e-06 	0 	0 	0
0.3139884766 	0 	0 	0 	2.449123842 	0.1883982842 	-4.429576616e-05 	0 	0 	0
0.318341507 	0 	0 	0 	2.450407729 	0.1865869595 	1.690946118e-05 	0 	0 	0
0.3236377412 	0 	0 	0 	2.451799978 	0.1843903301 	3.662158408e-05 	0 	0 	0
0.329018133 	0 	0 	0 	2.453034706 	0.1821893764 	5.573872353e-05 	0 	0 	0
0.3344194409 	0 	0 	0 	2.454110701 	0.1799832406 	7.399141319e-05 	0 	0 	0
0.3398426982 	0 	0 	0 	2.455029708 	0.1777821694 	7.216965938e-05 	0 	0 	0
0.3452905103 	0 	0 	0 	2.455798685 	0.1755785476 	5.3793144e-05 	0 	0 	0
0.3508198046 	0 	0 	0 	2.456422115 	0.1733747788 	3.600427645e-05 	0 	0 	0
0.356371968 	0 	0 	0 	2.456901135 	0.1711712332 	1.90172602e-05 	0 	0 	0
0.3619481867 	0 	0 	0 	2.457238162 	0.1689752503 	2.815451409e-06 	0 	0 	0
0.3629567935 	0 	0 	0 	2.45727514 	0.168584674 	-4.043475959e-05 	0 	0 	0
0.3675346092 	0 	0 	0 	2.457476185 	0.1667717028 	1.275635416e-05 	0 	0 	0
0.3731844789 	0 	0 	0 	2.457584882 	0.1645710014 	2.767904855e-05 	0 	0 	0
0.3788622376 	0 	0 	0 	2.457558101 	0.1623780587 	4.180197669e-05 	0 	0 	0
0.3845691399 	0 	0 	0 	2.457398844 	0.1601948485 	5.514624785e-05 	0 	0 	0
0.3903361868 	0 	0 	0 	2.457108889 	0.1580190043 	6.780129861e-05 	0 	0 	0
0.3961520669 	0 	0 	0 	2.456690375 	0.1558513549 	7.139976286e-05 	0 	0 	0
0.4019987344 	0 	0 	0 	2.456146381 	0.1536953234 	5.789773725e-05 	0 	0 	0
0.4078847797 	0 	0 	0 	2.455477917 	0.1515490291 	4.507804449e-05 	0 	0 	0
0.4138401465 	0 	0 	0 	2.454682318 	0.1494115077 	3.293202657e-05 	0 	0 	0
0.4198282831 	0 	0 	0 	2.453754195 	0.147278428 	2.157516737e-05 	0 	0 	0
0.4258507383 	0 	0 	0 	2.452679199 	0.1451374021 	1.085115592e-05 	0 	0 	0
0.4319424286 	0 	0 	0 	2.45144394 	0.1429783113 	5.659012242e-07 	0 	0 	0
0.4322940321 	0 	0 	0 	2.451364411 	0.1428544459 	-1.10559356e-05 	0 	0 	0
0.4380348799 	0 	0 	0 	2.450085754 	0.1408056098 	9.709549237e-06 	0 	0 	0
0.4441642181 	0 	0 	0 	2.448584263 	0.1386304091 	1.940932095e-05 	0 	0 	0
0.4503583711 	0 	0 	0 	2.446940175 	0.1364549634 	2.851586457e-05 	0 	0 	0
0.4566034608 	0 	0 	0 	2.445157059 	0.1342823144 	3.698569118e-05 	0 	0 	0
0.462890644 	0 	0 	0 	2.443236899 	0.1321143131 	4.483122901e-05 	0 	0 	0
0.4692414091 	0 	0 	0 	2.441177384 	0.1299499959 	5.210717277e-05 	0 	0 	0
0.4756461128 	0 	0 	0 	2.438979168 	0.1277903149 	5.879428559e-05 	0 	0 	0
0.4820960229 	0 	0 	0 	2.436642676 	0.1256358508 	6.49096173e-05 	0 	0 	0
0.4886119968 	0 	0 	0 	2.434164635 	0.1234854346 	5.782188713e-05 	0 	0 	0
0.4951819788 	0 	0 	0 	2.431545679 	0.1213399786 	5.044239524e-05 	0 	0 	0
0.5018006509 	0 	0 	0 	2.428785281 	0.1191996066 	4.358757413e-05 	0 	0 	0
0.5084901092 	0 	0 	0 	2.425879351 	0.1170631203 	3.721693253e-05 	0 	0 	0
0.5152322346 	0 	0 	0 	2.422828924 	0.1149315537 	3.13482366e-05 	0 	0 	0
0.5220303678 	0 	0 	0 	2.419632321 	0.1128049512 	2.594585594e-05 	0 	0 	0
0.5288981407 	0 	0 	0 	2.41629412 	0.1106885968 	2.099347275e-05 	0 	0 	0
0.5357442293 	0 	0 	0 	2.412846182 	0.1086002154 	1.653484668e-05 	0 	0 	0
0.5425033993 	0 	0 	0 	2.409320584 	0.1065555411 	1.255960121e-05 	0 	0 	0
0.54917695 	0 	0 	0 	2.405730125 	0.104558734 	9.041017917e-06 	0 	0 	0
0.5557596698 	0 	0 	0 	2.402080015 	0.1026083421 	5.935381106e-06 	0 	0 	0
0.5622641408 	0 	0 	0 	2.398372713 	0.1007021153 	3.195550507e-06 	0 	0 	0
0.5686845018 	0 	0 	0 	2.394613366 	0.09883909956 	8.046573239e-07 	0 	0 	0
0.5711034876 	0 	0 	0 	2.393159838 	0.09814429782 	-4.950002753e-05 	0 	0 	0
0.5750137094 	0 	0 	0 	2.390812532 	0.09701848778 	1.357815344e-06 	0 	0 	0
0.5812675106 	0 	0 	0 	2.38696779 	0.09523776748 	3.271097445e-06 	0 	0 	0
0.5874418731 	0 	0 	0 	2.383079625 	0.09349586048 	4.900135793e-06 	0 	0 	0
0.5935393313 	0 	0 	0 	2.379150791 	0.09179143492 	6.282150485e-06 	0 	0 	0
0.5995679216 	0 	0 	0 	2.37518237 	0.09012276547 	7.438171713e-06 	0 	0 	0
0.6055216396 	0 	0 	0 	2.371178147 	0.08848923856 	8.383882216e-06 	0 	0 	0
0.6114029498 	0 	0 	0 	2.36714015 	0.08688962165 	9.148340646e-06 	0 	0 	0
0.6172180073 	0 	0 	0 	2.363069178 	0.08532248669 	9.74597565e-06 	0 	0 	0
0.6229624231 	0 	0 	0 	2.358968263 	0.08378726861 	1.018927845e-05 	0 	0 	0
0.6286378851 	0 	0 	0 	2.354838957 	0.08228288087 	1.05008268e-05 	0 	0 	0
0.6342501181 	0 	0 	0 	2.350681626 	0.08080804819 	1.069245573e-05 	0 	0 	0
0.6397954387 	0 	0 	0 	2.346498667 	0.07936224533 	1.077200116e-05 	0 	0 	0
0.6452752783 	0 	0 	0 	2.3422914 	0.07794460208 	1.07571401e-05 	0 	0 	0
0.6506936946 	0 	0 	0 	2.338060035 	0.07655398834 	1.065898872e-05 	0 	0 	0
0.6560491717 	0 	0 	0 	2.333806104 	0.07518983729 	1.048107337e-05 	0 	0 	0
0.6613423175 	0 	0 	0 	2.329530755 	0.07385145573 	1.023682923e-05 	0 	0 	0
0.666575636 	0 	0 	0 	2.325234192 	0.07253787541 	9.93710279e-06 	0 	0 	0
0.6717497121 	0 	0 	0 	2.32091714 	0.0712484698 	9.582991992e-06 	0 	0 	0
0.6768642909 	0 	0 	0 	2.31658064 	0.06998270535 	9.183412715e-06 	0 	0 	0
0.6819206149 	0 	0 	0 	2.312224938 	0.0687397817 	8.748064296e-06 	0 	0 	0
0.6869210409 	0 	0 	0 	2.307850043 	0.06751899271 	8.279509027e-06 	0 	0 	0
0.6918645409 	0 	0 	0 	2.303456794 	0.06631989288 	7.781080832e-06 	0 	0 	0
0.6967520833 	0 	0 	0 	2.299045577 	0.06514190106 	7.26045611e-06 	0 	0 	0
0.7015852786 	0 	0 	0 	2.294616218 	0.06398431903 	6.723321666e-06 	0 	0 	0
0.7063646349 	0 	0 	0 	2.290168935 	0.06284666181 	6.16911175e-06 	0 	0 	0
0.7110902946 	0 	0 	0 	2.285704115 	0.06172849619 	5.602677382e-06 	0 	0 	0
0.7157631011 	0 	0 	0 	2.281221684 	0.06062924611 	5.029396005e-06 	0 	0 	0
0.7203845678 	0 	0 	0 	2.276721358 	0.05954836434 	4.451705465e-06 	0 	0 	0
0.724954626 	0 	0 	0 	2.272203286 	0.05848546464 	3.869205622e-06 	0 	0 	0
0.7294738497 	0 	0 	0 	2.267667542 	0.05744014516 	3.285958807e-06 	0 	0 	0
0.7339429834 	0 	0 	0 	2.263113794 	0.05641189231 	2.705714973e-06 	0 	0 	0
0.7383632802 	0 	0 	0 	2.258541643 	0.05540026443 	2.129215457e-06 	0 	0 	0
0.7427346679 	0 	0 	0 	2.253951037 	0.05440491984 	1.556289985e-06 	0 	0 	0
0.7470577928 	0 	0 	0 	2.249341801 	0.05342547359 	9.898697282e-07 	0 	0 	0
0.7513333208 	0 	0 	0 	2.244713443 	0.0524614883 	4.325191401e-07 	0 	0 	0
0.7546589326 	0 	0 	0 	2.241058213 	0.05171519199 	-1.142033555e-05 	0 	0 	0
0.7555616042 	0 	0 	0 	2.240066436 	0.0515125916 	1.125151166e-07 	0 	0 	0
0.7597410829 	0 	0 	0 	2.235403207 	0.05057853286 	6.385158436e-07 	0 	0 	0
0.7638746978 	0 	0 	0 	2.230719723 	0.04965890209 	1.154374802e-06 	0 	0 	0
0.7679630619 	0 	0 	0 	2.226015365 	0.04875333038 	1.658320946e-06 	0 	0 	0
0.7720069354 	0 	0 	0 	2.221289478 	0.04786147357 	2.149594384e-06 	0 	0 	0
0.7760066541 	0 	0 	0 	2.216541553 	0.04698304884 	2.62935363e-06 	0 	0 	0
0.7799626764 	0 	0 	0 	2.211771028 	0.04611777738 	3.096438688e-06 	0 	0 	0
0.7838755599 	0 	0 	0 	2.206977202 	0.04526535204 	3.549663716e-06 	0 	0 	0
0.7877458894 	0 	0 	0 	2.202159284 	0.04442547352 	3.988076452e-06 	0 	0 	0
0.7915742016 	0 	0 	0 	2.197316525 	0.04359787943 	4.412650795e-06 	0 	0 	0
0.7953608212 	0 	0 	0 	2.1924482 	0.04278233477 	4.82334641e-06 	0 	0 	0
0.7991062606 	0 	0 	0 	2.187553473 	0.04197858653 	5.219402134e-06 	0 	0 	0
0.8028110201 	0 	0 	0 	2.182631385 	0.04118638004 	5.600177988e-06 	0 	0 	0
0.8064756394 	0 	0 	0 	2.177680941 	0.04040547037 	5.965472613e-06 	0 	0 	0
0.8101004996 	0 	0 	0 	2.172701172 	0.03963564663 	6.316382385e-06 	0 	0 	0
0.8136860098 	0 	0 	0 	2.167691043 	0.03887670323 	6.652667102e-06 	0 	0 	0
0.8172326346 	0 	0 	0 	2.162649409 	0.0381284211 	6.973963085e-06 	0 	0 	0
0.8207408289 	0 	0 	0 	2.157575031 	0.0373905897 	7.279986812e-06 	0 	0 	0
0.8242110679 	0 	0 	0 	2.152466624 	0.03666300433 	7.570841964e-06 	0 	0 	0
0.82764371 	0 	0 	0 	2.14732289 	0.03594548577 	7.847487883e-06 	0 	0 	0
0.8310391573 	0 	0 	0 	2.142142443 	0.03523785659 	8.109861202e-06 	0 	0 	0
0.834397836 	0 	0 	0 	2.136923786 	0.03453993012 	8.357843143e-06 	0 	0 	0
0.8377201645 	0 	0 	0 	2.131665329 	0.03385152889 	8.591364474e-06 	0 	0 	0
0.8410065655 	0 	0 	0 	2.126365412 	0.03317247676 	8.810502746e-06 	0 	0 	0
0.8442574054 	0 	0 	0 	2.121022331 	0.03250261475 	9.016095755e-06 	0 	0 	0
0.8474730517 	0 	0 	0 	2.115634292 	0.03184178899 	9.208318433e-06 	0 	0 	0
0.8506538989 	0 	0 	0 	2.110199386 	0.0311898371 	9.387180325e-06 	0 	0 	0
0.8538003351 	0 	0 	0 	2.104715603 	0.0305466023 	9.552710417e-06 	0 	0 	0
0.8569127423 	0 	0 	0 	2.099180841 	0.02991192876 	9.704960752e-06 	0 	0 	0
0.8599914988 	0 	0 	0 	2.093592925 	0.02928566455 	9.844315474e-06 	0 	0 	0
0.8630369351 	0 	0 	0 	2.087949608 	0.02866766755 	9.971295732e-06 	0 	0 	0
0.8660494164 	0 	0 	0 	2.08224853 	0.02805778865 	1.008602192e-05 	0 	0 	0
0.8690293052 	0 	0 	0 	2.076487224 	0.02745587922 	1.018846119e-05 	0 	0 	0
0.8719769585 	0 	0 	0 	2.070663127 	0.02686178739 	1.027868961e-05 	0 	0 	0
0.8748927286 	0 	0 	0 	2.064773579 	0.02627535236 	1.035699314e-05 	0 	0 	0
0.8777769585 	0 	0 	0 	2.058815835 	0.02569641745 	1.042365765e-05 	0 	0 	0
0.8806299683 	0 	0 	0 	2.052787073 	0.02512482644 	1.047897976e-05 	0 	0 	0
0.8834520978 	0 	0 	0 	2.04668437 	0.02456041577 	1.052295668e-05 	0 	0 	0
0.8862436824 	0 	0 	0 	2.040504722 	0.02400301706 	1.055564029e-05 	0 	0 	0
0.8890050531 	0 	0 	0 	2.034245056 	0.02345245563 	1.05769829e-05 	0 	0 	0
0.8917365366 	0 	0 	0 	2.027902234 	0.02290855249 	1.058702935e-05 	0 	0 	0
0.8944384543 	0 	0 	0 	2.021473071 	0.02237112413 	1.058598115e-05 	0 	0 	0
0.8971111109 	0 	0 	0 	2.014954345 	0.02183998133 	1.057413492e-05 	0 	0 	0
0.8997548203 	0 	0 	0 	2.008342789 	0.02131493092 	1.055153372e-05 	0 	0 	0
0.9023698945 	0 	0 	0 	2.001635108 	0.02079576504 	1.051840065e-05 	0 	0 	0
0.9049566418 	0 	0 	0 	1.994827974 	0.02028227091 	1.047497783e-05 	0 	0 	0
0.9075153668 	0 	0 	0 	1.987918032 	0.0197742359 	1.042125987e-05 	0 	0 	0
0.9100463706 	0 	0 	0 	1.980901914 	0.01927143957 	1.035730753e-05 	0 	0 	0
0.9125499477 	0 	0 	0 	1.973776249 	0.01877365793 	1.028325531e-05 	0 	0 	0
0.915026385 	0 	0 	0 	1.966537642 	0.01828066846 	1.019915067e-05 	0 	0 	0
0.9174759739 	0 	0 	0 	1.959182647 	0.01779224498 	1.010481168e-05 	0 	0 	0
0.9198990025 	0 	0 	0 	1.951707753 	0.01730815669 	9.830627414e-06 	0 	0 	0
0.9222957555 	0 	0 	0 	1.944109366 	0.01682817056 	9.405701177e-06 	0 	0 	0
0.9246665145 	0 	0 	0 	1.936383763 	0.01635203209 	8.989411944e-06 	0 	0 	0
0.927011558 	0 	0 	0 	1.928526952 	0.0158794853 	8.582841783e-06 	0 	0 	0
0.9293311606 	0 	0 	0 	1.920534443 	0.01541047398 	8.183438612e-06 	0 	0 	0
0.9316255902 	0 	0 	0 	1.912400243 	0.01494465108 	7.790666123e-06 	0 	0 	0
0.9338951161 	0 	0 	0 	1.904113814 	0.01448182951 	7.411296972e-06 	0 	0 	0
0.9361400048 	0 	0 	0 	1.896377267 	0.01406123175 	7.062063869e-06 	0 	0 	0
0.9376025477 	0 	0 	0 	1.890001416 	0.01372303383 	6.800400063e-06 	0 	0 	0
0.9390382776 	0 	0 	0 	1.884311254 	0.01342800803 	6.565903721e-06 	0 	0 	0
0.9404476833 	0 	0 	0 	1.878583094 	0.01313765573 	6.338748983e-06 	0 	0 	0
0.9418312445 	0 	0 	0 	1.872809475 	0.01285191692 	6.11887346e-06 	0 	0 	0
0.9431894324 	0 	0 	0 	1.866985048 	0.01257077166 	5.906314307e-06 	0 	0 	0
0.9445227099 	0 	0 	0 	1.861107215 	0.01229422796 	5.701155477e-06 	0 	0 	0
0.9458315311 	0 	0 	0 	1.855176789 	0.01202228196 	5.503209687e-06 	0 	0 	0
0.9471163418 	0 	0 	0 	1.849198353 	0.01175488034 	5.311718448e-06 	0 	0 	0
0.9483775794 	0 	0 	0 	1.843179911 	0.01149188929 	5.125431839e-06 	0 	0 	0
0.9496156744 	0 	0 	0 	1.837131472 	0.01123309325 	4.943007235e-06 	0 	0 	0
0.9508310491 	0 	0 	0 	1.831062581 	0.01097837793 	4.767036806e-06 	0 	0 	0
0.9520241183 	0 	0 	0 	1.824978784 	0.01072721588 	4.587342358e-06 	0 	0 	0
0.9531952895 	0 	0 	0 	1.818877003 	0.01047890577 	4.406312128e-06 	0 	0 	0
0.9543449624 	0 	0 	0 	1.812744354 	0.01023391662 	4.244242203e-06 	0 	0 	0
0.9554735298 	0 	0 	0 	1.806565647 	0.009992645215 	4.086487786e-06 	0 	0 	0
0.9565813773 	0 	0 	0 	1.800331173 	0.009754502027 	3.924763137e-06 	0 	0 	0
0.9576688834 	0 	0 	0 	1.794035917 	0.009519298467 	3.77097436e-06 	0 	0 	0
0.9587364201 	0 	0 	0 	1.787676166 	0.00928723324 	3.623340719e-06 	0 	0 	0
0.9597843522 	0 	0 	0 	1.78124845 	0.009058299554 	3.479410944e-06 	0 	0 	0
0.9608130382 	0 	0 	0 	1.774749314 	0.008832441865 	3.339477445e-06 	0 	0 	0
0.9618228299 	0 	0 	0 	1.768175154 	0.008609627041 	3.203400398e-06 	0 	0 	0
0.9628140729 	0 	0 	0 	1.761522171 	0.008389822486 	3.071092014e-06 	0 	0 	0
0.9637871065 	0 	0 	0 	1.754786371 	0.008172995382 	2.94249387e-06 	0 	0 	0
0.9647422635 	0 	0 	0 	1.747963576 	0.007959112035 	2.817546232e-06 	0 	0 	0
0.9656798711 	0 	0 	0 	1.741049425 	0.007748137894 	2.696197947e-06 	0 	0 	0
0.9666002503 	0 	0 	0 	1.734039376 	0.007540038013 	2.578395676e-06 	0 	0 	0
0.9675037164 	0 	0 	0 	1.726928703 	0.007334777832 	2.464078208e-06 	0 	0 	0
0.9683905791 	0 	0 	0 	1.719712484 	0.007132323697 	2.353175267e-06 	0 	0 	0
0.9692611423 	0 	0 	0 	1.712385583 	0.006932643136 	2.245608357e-06 	0 	0 	0
0.9701157045 	0 	0 	0 	1.704942632 	0.006735704963 	2.141292987e-06 	0 	0 	0
0.9709545587 	0 	0 	0 	1.697378004 	0.006541479268 	2.040141282e-06 	0 	0 	0
0.9717779925 	0 	0 	0 	1.68968578 	0.006349937323 	1.942064468e-06 	0 	0 	0
0.9725862884 	0 	0 	0 	1.681859721 	0.006161051473 	1.846974778e-06 	0 	0 	0
0.9733797239 	0 	0 	0 	1.673893225 	0.00597479504 	1.754786651e-06 	0 	0 	0
0.974158571 	0 	0 	0 	1.665779288 	0.005791142237 	1.665417507e-06 	0 	0 	0
0.9749230972 	0 	0 	0 	1.657510454 	0.005610068118 	1.578788219e-06 	0 	0 	0
0.9756735649 	0 	0 	0 	1.649078766 	0.005431548562 	1.494823221e-06 	0 	0 	0
0.9764102318 	0 	0 	0 	1.640475704 	0.0052555603 	1.413450298e-06 	0 	0 	0
0.9771333509 	0 	0 	0 	1.631692122 	0.005082080967 	1.334600166e-06 	0 	0 	0
0.9778431705 	0 	0 	0 	1.622718174 	0.004911089195 	1.258205833e-06 	0 	0 	0
0.9785399345 	0 	0 	0 	1.613543229 	0.004742564718 	1.184201776e-06 	0 	0 	0
0.9792238823 	0 	0 	0 	1.604155776 	0.004576488496 	1.112522997e-06 	0 	0 	0
0.979895249 	0 	0 	0 	1.594543323 	0.004412842836 	1.043104016e-06 	0 	0 	0
0.9805542653 	0 	0 	0 	1.584692268 	0.004251611509 	9.758779722e-07 	0 	0 	0
0.9812011577 	0 	0 	0 	1.57458777 	0.004092779804 	9.107759164e-07 	0 	0 	0
0.9818361488 	0 	0 	0 	1.564213583 	0.003936334541 	8.477263114e-07 	0 	0 	0
0.9824594567 	0 	0 	0 	1.553551886 	0.003782264099 	7.866556211e-07 	0 	0 	0
0.9830712959 	0 	0 	0 	1.542583069 	0.003630558234 	7.274901415e-07 	0 	0 	0
0.9836718769 	0 	0 	0 	1.531285502 	0.003481207851 	6.701576497e-07 	0 	0 	0
0.9842614063 	0 	0 	0 	1.519635261 	0.003334204766 	6.145909332e-07 	0 	0 	0
0.984840087 	0 	0 	0 	1.507605814 	0.003189541322 	5.607326754e-07 	0 	0 	0
0.985408118 	0 	0 	0 	1.495167652 	0.003047209924 	5.085436272e-07 	0 	0 	0
0.9859656949 	0 	0 	0 	1.482287867 	0.002907202258 	4.580162399e-07 	0 	0 	0
0.9865130097 	0 	0 	0 	1.468929649 	0.002769507434 	4.091938085e-07 	0 	0 	0
0.9870502507 	0 	0 	0 	1.455051686 	0.002634119467 	3.622002064e-07 	0 	0 	0
0.987577603 	0 	0 	0 	1.440607456 	0.002501020492 	3.173242495e-07 	0 	0 	0
0.9880952481 	0 	0 	0 	1.425544281 	0.002370183762 	2.749318328e-07 	0 	0 	0
0.9886033645 	0 	0 	0 	1.409802734 	0.002242185933 	2.351753176e-07 	0 	0 	0
0.9891021269 	0 	0 	0 	1.393315164 	0.002115338035 	1.981711243e-07 	0 	0 	0
0.9895917074 	0 	0 	0 	1.377515994 	0.00200085303 	1.669953041e-07 	0 	0 	0
0.9899068098 	0 	0 	0 	1.364120722 	0.001910816612 	1.438301152e-07 	0 	0 	0
0.9902219201 	0 	0 	0 	1.3517489 	0.001831371171 	1.24811801e-07 	0 	0 	0
0.9905370383 	0 	0 	0 	1.338753256 	0.001751306107 	1.076442618e-07 	0 	0 	0
0.9908521645 	0 	0 	0 	1.325073894 	0.00167154411 	9.248336743e-08 	0 	0 	0
0.9911672986 	0 	0 	0 	1.310642722 	0.001591810653 	7.935244876e-08 	0 	0 	0
0.9914824405 	0 	0 	0 	1.29538194 	0.001512156435 	6.791172406e-08 	0 	0 	0
0.9917975905 	0 	0 	0 	1.279202074 	0.001432550771 	5.75826647e-08 	0 	0 	0
0.9921127483 	0 	0 	0 	1.261999642 	0.001353246582 	5.51672013e-08 	0 	0 	0
0.992427914 	0 	0 	0 	1.243654692 	0.001275323497 	4.449007697e-08 	0 	0 	0
0.9927430877 	0 	0 	0 	1.224024934 	0.001196446538 	2.507579672e-08 	0 	0 	0
0.9930582692 	0 	0 	0 	1.202932633 	0.001115890494 	2.760187555e-08 	0 	0 	0
0.9933734587 	0 	0 	0 	1.180159975 	0.001038354896 	2.891170651e-08 	0 	0 	0
0.9936886561 	0 	0 	0 	1.1554586 	0.0009626947292 	1.923836824e-08 	0 	0 	0
0.9940038614 	0 	0 	0 	1.128545112 	0.0008866835753 	1.551113031e-08 	0 	0 	0
0.9943190746 	0 	0 	0 	1.099082989 	0.0008116088739 	1.278395265e-08 	0 	0 	0
0.9946342958 	0 	0 	0 	1.066668859 	0.0007373685364 	1.06773877e-08 	0 	0 	0
0.9949495248 	0 	0 	0 	1.030818361 	0.0006641078039 	9.551361786e-09 	0 	0 	0
0.9952647618 	0 	0 	0 	0.9909550874 	0.0006016974034 	1.708926908e-08 	0 	0 	0
0.9955800066 	0 	0 	0 	0.9464003758 	0.0005370649844 	1.212945609e-08 	0 	0 	0
0.9958952594 	0 	0 	0 	0.8963252979 	0.0004515601552 	-6.517036482e-09 	0 	0 	0
0.99621052 	0 	0 	0 	0.8397052373 	0.000370064589 	1.227435893e-09 	0 	0 	0
0.9965257886 	0 	0 	0 	0.7754043525 	0.0002891871257 	1.196407618e-08 	0 	0 	0
0.9968410651 	0 	0 	0 	0.7023513123 	0.0001989016677 	2.133690938e-08 	0 	0 	0
0.9971563494 	0 	0 	0 	0.6198505293 	0.0001384154949 	4.317723007e-08 	0 	0 	0
0.9974716417 	0 	0 	0 	0.5281402525 	0.0001328769433 	3.97020932e-08 	0 	0 	0
0.9977869419 	0 	0 	0 	0.4288353744 	0.0001397620149 	7.395965172e-09 	0 	0 	0
0.99810225 	0 	0 	0 	0.3245292974 	0.0001039744386 	-1.29028923e-08 	0 	0 	0