0 	0 	0 	0 	1.780383181 	-7.273130906e-14 	-7.213877629e-20 	0 	0 	0
0.0003225556171 	0 	0 	0 	1.780383516 	-2.768648964e-05 	1.317685901e-09 	0 	0 	0
0.0006451109249 	0 	0 	0 	1.780384776 	-5.210495795e-05 	2.438195787e-09 	0 	0 	0
0.0009676659231 	0 	0 	0 	1.780387217 	-7.631466259e-05 	3.511165752e-09 	0 	0 	0
0.001290220611 	0 	0 	0 	1.780390773 	-0.0001014217605 	4.586322294e-09 	0 	0 	0
0.001612774989 	0 	0 	0 	1.780395382 	-0.0001265371968 	5.622183575e-09 	0 	0 	0
0.001935329056 	0 	0 	0 	1.780401039 	-0.0001516946141 	6.620098551e-09 	0 	0 	0
0.002257882812 	0 	0 	0 	1.780407743 	-0.0001768644482 	7.578702442e-09 	0 	0 	0
0.002580436257 	0 	0 	0 	1.780415497 	-0.0002020476026 	8.497957003e-09 	0 	0 	0
0.00290298939 	0 	0 	0 	1.780424305 	-0.000227238531 	9.377570997e-09 	0 	0 	0
0.003225542211 	0 	0 	0 	1.780434173 	-0.0002524346227 	1.021739154e-08 	0 	0 	0
0.003548094721 	0 	0 	0 	1.780445106 	-0.0002776340284 	1.101730923e-08 	0 	0 	0
0.003870646918 	0 	0 	0 	1.780457112 	-0.0003028355782 	1.17772507e-08 	0 	0 	0
0.004193198803 	0 	0 	0 	1.7804702 	-0.0003280384165 	1.249716228e-08 	0 	0 	0
0.004515750376 	0 	0 	0 	1.780484377 	-0.0003532419007 	1.317700497e-08 	0 	0 	0
0.004838301636 	0 	0 	0 	1.780499653 	-0.0003784455269 	1.381675087e-08 	0 	0 	0
0.005160852584 	0 	0 	0 	1.780516038 	-0.0004036488861 	1.441638112e-08 	0 	0 	0
0.005483403219 	0 	0 	0 	1.780533542 	-0.000428851635 	1.497588466e-08 	0 	0 	0
0.005805953542 	0 	0 	0 	1.780552174 	-0.0004540534768 	1.549525718e-08 	0 	0 	0
0.006128503552 	0 	0 	0 	1.780571948 	-0.0004792541473 	1.597450003e-08 	0 	0 	0
0.00645105325 	0 	0 	0 	1.780592873 	-0.0005044534067 	1.641362026e-08 	0 	0 	0
0.006773602635 	0 	0 	0 	1.780614961 	-0.0005296510321 	1.681263105e-08 	0 	0 	0
0.007096151709 	0 	0 	0 	1.780638225 	-0.0005548468127 	1.717155073e-08 	0 	0 	0
0.00741870047 	0 	0 	0 	1.780662677 	-0.0005800405459 	1.749040199e-08 	0 	0 	0
0.007741248919 	0 	0 	0 	1.780688328 	-0.000605232036 	1.77692126e-08 	0 	0 	0
0.008063797056 	0 	0 	0 	1.780715191 	-0.0006304210905 	1.800801558e-08 	0 	0 	0
0.008386344882 	0 	0 	0 	1.78074328 	-0.0006556075247 	1.820684924e-08 	0 	0 	0
0.008708892397 	0 	0 	0 	1.780772606 	-0.0006807911522 	1.836575632e-08 	0 	0 	0
0.0090314396 	0 	0 	0 	1.780803183 	-0.0007059718384 	1.848478326e-08 	0 	0 	0
0.009353986493 	0 	0 	0 	1.780835023 	-0.0007311490982 	1.856396654e-08 	0 	0 	0
0.009676533076 	0 	0 	0 	1.780872893 	-0.0007598540704 	1.869000728e-08 	0 	0 	0
0.01017769553 	0 	0 	0 	1.780922572 	-0.0007957116421 	1.859245239e-08 	0 	0 	0
0.01068827656 	0 	0 	0 	1.780980826 	-0.0008355497382 	1.847609184e-08 	0 	0 	0
0.01120845316 	0 	0 	0 	1.781043545 	-0.0008761253987 	1.825576502e-08 	0 	0 	0
0.01173840565 	0 	0 	0 	1.781110979 	-0.0009174519056 	1.792604132e-08 	0 	0 	0
0.01227831774 	0 	0 	0 	1.781183388 	-0.0009595418912 	1.748128373e-08 	0 	0 	0
0.01282837659 	0 	0 	0 	1.781261046 	-0.001002408264 	1.691568876e-08 	0 	0 	0
0.01338877288 	0 	0 	0 	1.781344243 	-0.001046064055 	1.622328353e-08 	0 	0 	0
0.01395970086 	0 	0 	0 	1.781433278 	-0.001090522416 	1.539789812e-08 	0 	0 	0
0.01454135846 	0 	0 	0 	1.78152847 	-0.001135796598 	1.443319312e-08 	0 	0 	0
0.0151339473 	0 	0 	0 	1.781630151 	-0.001181899957 	1.332269284e-08 	0 	0 	0
0.0157376728 	0 	0 	0 	1.781738671 	-0.001228845946 	1.205974915e-08 	0 	0 	0
0.01635274424 	0 	0 	0 	1.781854395 	-0.001276648089 	1.063753241e-08 	0 	0 	0
0.01697937483 	0 	0 	0 	1.781977709 	-0.001325319979 	9.049080379e-09 	0 	0 	0
0.01761778179 	0 	0 	0 	1.782109014 	-0.001374875263 	7.28730382e-09 	0 	0 	0
0.01826818643 	0 	0 	0 	1.782248734 	-0.001425327688 	5.344974066e-09 	0 	0 	0
0.0189308142 	0 	0 	0 	1.782397311 	-0.001476690837 	3.214744116e-09 	0 	0 	0
0.0196058948 	0 	0 	0 	1.782555208 	-0.001528978524 	8.891709566e-10 	0 	0 	0
0.01985306425 	0 	0 	0 	1.782615508 	-0.001548117234 	6.880228053e-09 	0 	0 	0
0.02029366224 	0 	0 	0 	1.782722943 	-0.00158223487 	1.648581514e-09 	0 	0 	0
0.02099588292 	0 	0 	0 	1.782901238 	-0.001636524405 	4.416251146e-09 	0 	0 	0
0.02171240549 	0 	0 	0 	1.783090666 	-0.00169185315 	7.419445638e-09 	0 	0 	0
0.02244239383 	0 	0 	0 	1.78329163 	-0.001748185666 	1.065993443e-08 	0 	0 	0
0.02318610096 	0 	0 	0 	1.783504644 	-0.001805514615 	1.414727929e-08 	0 	0 	0
0.02394378469 	0 	0 	0 	1.783730314 	-0.001863853396 	1.789138821e-08 	0 	0 	0
0.02471570767 	0 	0 	0 	1.783969272 	-0.00192321552 	2.190241043e-08 	0 	0 	0
0.02550213747 	0 	0 	0 	1.784222173 	-0.001983614193 	2.619072653e-08 	0 	0 	0
0.02630334669 	0 	0 	0 	1.784489701 	-0.002045062505 	3.07669469e-08 	0 	0 	0
0.02711961306 	0 	0 	0 	1.784772564 	-0.00210757336 	3.564190559e-08 	0 	0 	0
0.02795121953 	0 	0 	0 	1.785071495 	-0.002171159456 	4.082665455e-08 	0 	0 	0
0.02879845437 	0 	0 	0 	1.785387253 	-0.002235833261 	4.633245692e-08 	0 	0 	0
0.02966161123 	0 	0 	0 	1.785720626 	-0.002301606988 	5.217077985e-08 	0 	0 	0
0.03054098934 	0 	0 	0 	1.786072424 	-0.002368492574 	5.835328673e-08 	0 	0 	0
0.03143689349 	0 	0 	0 	1.786443485 	-0.002436501649 	6.489182903e-08 	0 	0 	0
0.03234963423 	0 	0 	0 	1.786834669 	-0.00250564552 	7.179843791e-08 	0 	0 	0
0.03327952795 	0 	0 	0 	1.787246863 	-0.002575935141 	7.908531561e-08 	0 	0 	0
0.03422689696 	0 	0 	0 	1.787680979 	-0.002647381094 	8.676482687e-08 	0 	0 	0
0.03519206965 	0 	0 	0 	1.788137949 	-0.002719993567 	9.484949075e-08 	0 	0 	0
0.03617538056 	0 	0 	0 	1.78861873 	-0.002793782331 	1.033519724e-07 	0 	0 	0
0.03717717052 	0 	0 	0 	1.7891243 	-0.002868756756 	1.122850781e-07 	0 	0 	0
0.03819778678 	0 	0 	0 	1.789655657 	-0.002944925651 	1.216617399e-07 	0 	0 	0
0.0392375831 	0 	0 	0 	1.790213821 	-0.003022297173 	1.314950074e-07 	0 	0 	0
0.04029691988 	0 	0 	0 	1.790799967 	-0.003100898585 	1.417997131e-07 	0 	0 	0
0.04137715132 	0 	0 	0 	1.791415714 	-0.0031808063 	1.526058622e-07 	0 	0 	0
0.04248044704 	0 	0 	0 	1.792062472 	-0.00326205929 	1.639488167e-07 	0 	0 	0
0.04360447682 	0 	0 	0 	1.792740851 	-0.003344597296 	1.758082223e-07 	0 	0 	0
0.0447496303 	0 	0 	0 	1.793451573 	-0.003428376206 	1.881930622e-07 	0 	0 	0
0.0459163044 	0 	0 	0 	1.794195766 	-0.003513400464 	2.011168663e-07 	0 	0 	0
0.04710490353 	0 	0 	0 	1.794974564 	-0.003599675498 	2.145934335e-07 	0 	0 	0
0.04831583968 	0 	0 	0 	1.79578912 	-0.003687205307 	2.286366394e-07 	0 	0 	0
0.04954953259 	0 	0 	0 	1.796640593 	-0.003775993595 	2.432605544e-07 	0 	0 	0
0.05080640988 	0 	0 	0 	1.797530158 	-0.003866043505 	2.584794497e-07 	0 	0 	0
0.0520869072 	0 	0 	0 	1.798459 	-0.003957357678 	2.743078325e-07 	0 	0 	0
0.05339146842 	0 	0 	0 	1.799428315 	-0.004049938242 	2.907604813e-07 	0 	0 	0
0.05472054569 	0 	0 	0 	1.800439315 	-0.00414378683 	3.07852489e-07 	0 	0 	0
0.05607459971 	0 	0 	0 	1.801493223 	-0.004238904592 	3.255993139e-07 	0 	0 	0
0.05745409981 	0 	0 	0 	1.802591279 	-0.004335292184 	3.440168357e-07 	0 	0 	0
0.05885952414 	0 	0 	0 	1.803734739 	-0.004432948891 	3.631213058e-07 	0 	0 	0
0.06029135983 	0 	0 	0 	1.804925031 	-0.004531888606 	3.829316895e-07 	0 	0 	0
0.06175082975 	0 	0 	0 	1.806164471 	-0.00463219115 	4.034864273e-07 	0 	0 	0
0.06324165325 	0 	0 	0 	1.807455183 	-0.004733912403 	4.248506466e-07 	0 	0 	0
0.06476049348 	0 	0 	0 	1.808972328 	-0.004850185224 	4.480481369e-07 	0 	0 	0
0.06709213948 	0 	0 	0 	1.810912369 	-0.004994076813 	4.816568894e-07 	0 	0 	0
0.06944979626 	0 	0 	0 	1.813109492 	-0.005151151359 	4.871254009e-07 	0 	0 	0
0.07183375398 	0 	0 	0 	1.815392836 	-0.005308380242 	4.760416105e-07 	0 	0 	0
0.07424430605 	0 	0 	0 	1.817763362 	-0.005465719864 	4.636153157e-07 	0 	0 	0
0.07668174912 	0 	0 	0 	1.820222071 	-0.00562313095 	4.498557782e-07 	0 	0 	0
0.07914638319 	0 	0 	0 	1.822770009 	-0.005780577766 	4.347716148e-07 	0 	0 	0
0.08163851157 	0 	0 	0 	1.825410012 	-0.005938122466 	4.183829157e-07 	0 	0 	0
0.08416496107 	0 	0 	0 	1.828145441 	-0.006095832771 	4.005399161e-07 	0 	0 	0
0.08672030432 	0 	0 	0 	1.830976078 	-0.006253571404 	3.813953378e-07 	0 	0 	0
0.08930415544 	0 	0 	0 	1.833901347 	-0.006411183657 	3.609566549e-07 	0 	0 	0
0.09191683247 	0 	0 	0 	1.836922416 	-0.006568608074 	3.392242737e-07 	0 	0 	0
0.094558657 	0 	0 	0 	1.840040704 	-0.006725797184 	3.161988705e-07 	0 	0 	0
0.09722995421 	0 	0 	0 	1.84325769 	-0.00688269703 	2.918794813e-07 	0 	0 	0
0.09993105289 	0 	0 	0 	1.846575294 	-0.007039272811 	2.6626546e-07 	0 	0 	0
0.1026635218 	0 	0 	0 	1.84999741 	-0.007195564977 	2.393277795e-07 	0 	0 	0
0.1054324181 	0 	0 	0 	1.853527478 	-0.007351573262 	2.109583041e-07 	0 	0 	0
0.1082322065 	0 	0 	0 	1.857165001 	-0.00750712636 	1.813072559e-07 	0 	0 	0
0.1110632316 	0 	0 	0 	1.860909945 	-0.007662071846 	1.503670914e-07 	0 	0 	0
0.1139258419 	0 	0 	0 	1.864764118 	-0.007816332032 	1.181354129e-07 	0 	0 	0
0.1168203898 	0 	0 	0 	1.868729361 	-0.007969828233 	8.461013137e-08 	0 	0 	0
0.1197472316 	0 	0 	0 	1.872807759 	-0.008122487128 	4.978969601e-08 	0 	0 	0
0.12270736 	0 	0 	0 	1.877003708 	-0.008274306274 	1.365747237e-08 	0 	0 	0
0.1238092879 	0 	0 	0 	1.878589785 	-0.0083297575 	8.369246775e-07 	0 	0 	0
0.1257069328 	0 	0 	0 	1.881321407 	-0.008425263411 	2.406871646e-08 	0 	0 	0
0.128739973 	0 	0 	0 	1.885760315 	-0.008575163113 	6.316351827e-08 	0 	0 	0
0.1318068542 	0 	0 	0 	1.890320237 	-0.008723819115 	1.035341295e-07 	0 	0 	0
0.1349079538 	0 	0 	0 	1.895003079 	-0.008871115049 	1.451723556e-07 	0 	0 	0
0.1380436537 	0 	0 	0 	1.899810733 	-0.009016937257 	1.880676265e-07 	0 	0 	0
0.14121434 	0 	0 	0 	1.904746507 	-0.009161203335 	2.322085533e-07 	0 	0 	0
0.1444241869 	0 	0 	0 	1.909815141 	-0.009303854292 	2.776677463e-07 	0 	0 	0
0.1476729191 	0 	0 	0 	1.915018332 	-0.009444738694 	3.243746372e-07 	0 	0 	0
0.1509579006 	0 	0 	0 	1.920355167 	-0.009583634086 	3.722198408e-07 	0 	0 	0
0.1542795359 	0 	0 	0 	1.925826187 	-0.009720352621 	4.211675951e-07 	0 	0 	0
0.1576382339 	0 	0 	0 	1.931433029 	-0.009854735836 	4.711790179e-07 	0 	0 	0
0.1610344082 	0 	0 	0 	1.937178578 	-0.009986647179 	5.222122416e-07 	0 	0 	0
0.1644716629 	0 	0 	0 	1.94306734 	-0.01011596763 	5.742881635e-07 	0 	0 	0
0.1679506875 	0 	0 	0 	1.94910105 	-0.01024250798 	6.273107367e-07 	0 	0 	0
0.1714685328 	0 	0 	0 	1.955278225 	-0.01036600923 	6.811162642e-07 	0 	0 	0
0.175025632 	0 	0 	0 	1.961598734 	-0.01048623444 	7.356168898e-07 	0 	0 	0
0.1786224231 	0 	0 	0 	1.968063741 	-0.01060297255 	7.907180849e-07 	0 	0 	0
0.182259349 	0 	0 	0 	1.974676577 	-0.0107160378 	8.463207263e-07 	0 	0 	0
0.1859420126 	0 	0 	0 	1.981441488 	-0.01082523659 	9.024045748e-07 	0 	0 	0
0.1896669197 	0 	0 	0 	1.988357433 	-0.01093028435 	9.587173294e-07 	0 	0 	0
0.193433393 	0 	0 	0 	1.995422351 	-0.01103087389 	9.774502848e-07 	0 	0 	0
0.1972418962 	0 	0 	0 	2.002636331 	-0.01112672322 	9.351880923e-07 	0 	0 	0
0.2010928983 	0 	0 	0 	2.010001179 	-0.01121756383 	8.917321386e-07 	0 	0 	0
0.2049898859 	0 	0 	0 	2.017520224 	-0.01130312072 	8.470053594e-07 	0 	0 	0
0.2089333194 	0 	0 	0 	2.025193625 	-0.01138306854 	8.010188308e-07 	0 	0 	0
0.2129207593 	0 	0 	0 	2.03301824 	-0.0114570414 	7.53798435e-07 	0 	0 	0
0.2169526964 	0 	0 	0 	2.040992239 	-0.0115246882 	7.053496314e-07 	0 	0 	0
0.2210296273 	0 	0 	0 	2.049116147 	-0.01158568039 	6.559073685e-07 	0 	0 	0
0.2251548737 	0 	0 	0 	2.05739176 	-0.01163968377 	6.059228899e-07 	0 	0 	0
0.2293289487 	0 	0 	0 	2.065817377 	-0.01168629923 	5.562370984e-07 	0 	0 	0
0.2335496053 	0 	0 	0 	2.074387384 	-0.0117250358 	5.073849057e-07 	0 	0 	0
0.2378173632 	0 	0 	0 	2.083096168 	-0.01175512027 	4.571950367e-07 	0 	0 	0
0.2421327478 	0 	0 	0 	2.091937971 	-0.01177597497 	4.115785986e-07 	0 	0 	0
0.2465003553 	0 	0 	0 	2.100902534 	-0.01179020646 	3.642551994e-07 	0 	0 	0
0.250917877 	0 	0 	0 	2.109969398 	-0.01179755308 	3.082840439e-07 	0 	0 	0
0.2553846982 	0 	0 	0 	2.119115086 	-0.01179490835 	2.589761744e-07 	0 	0 	0
0.259901369 	0 	0 	0 	2.128325906 	-0.01178481894 	2.147628325e-07 	0 	0 	0
0.2644698782 	0 	0 	0 	2.137598612 	-0.01176861571 	1.688581522e-07 	0 	0 	0
0.2690927907 	0 	0 	0 	2.14692999 	-0.01174474881 	1.234316853e-07 	0 	0 	0
0.273767296 	0 	0 	0 	2.15631253 	-0.01171295896 	7.865889301e-08 	0 	0 	0
0.2784939696 	0 	0 	0 	2.165739228 	-0.01167305425 	3.47743455e-08 	0 	0 	0
0.2823703926 	0 	0 	0 	2.173417166 	-0.01163393143 	2.024280725e-06 	0 	0 	0
0.2832735569 	0 	0 	0 	2.175206213 	-0.01162481644 	8.108564466e-09 	0 	0 	0
0.288110785 	0 	0 	0 	2.184709545 	-0.01156802946 	5.002659218e-08 	0 	0 	0
0.2930019987 	0 	0 	0 	2.194239612 	-0.01150251165 	9.023219124e-08 	0 	0 	0
0.2979478001 	0 	0 	0 	2.203786956 	-0.01142811312 	1.285411383e-07 	0 	0 	0
0.3029487982 	0 	0 	0 	2.213345213 	-0.01134466484 	1.647708392e-07 	0 	0 	0
0.3080095909 	0 	0 	0 	2.222908222 	-0.01125199881 	1.98762389e-07 	0 	0 	0
0.3131269609 	0 	0 	0 	2.232464818 	-0.01115001191 	2.302627736e-07 	0 	0 	0
0.3183014433 	0 	0 	0 	2.242004032 	-0.01103861259 	2.591379156e-07 	0 	0 	0
0.323534034 	0 	0 	0 	2.251517172 	-0.01091768962 	2.852798767e-07 	0 	0 	0
0.3288283649 	0 	0 	0 	2.260994523 	-0.01078715509 	3.08576989e-07 	0 	0 	0
0.3341817838 	0 	0 	0 	2.270421265 	-0.01064700164 	3.288687854e-07 	0 	0 	0
0.33959495 	0 	0 	0 	2.27978229 	-0.01049727503 	3.460419905e-07 	0 	0 	0
0.3450698045 	0 	0 	0 	2.289062973 	-0.01033808998 	3.596769137e-07 	0 	0 	0
0.3506078229 	0 	0 	0 	2.298246898 	-0.01016999214 	3.691270948e-07 	0 	0 	0
0.3562076492 	0 	0 	0 	2.307313747 	-0.009987953509 	3.793004979e-07 	0 	0 	0
0.3618699728 	0 	0 	0 	2.316239463 	-0.009798975932 	3.726255819e-07 	0 	0 	0
0.3675979394 	0 	0 	0 	2.324960195 	-0.009611819038 	3.511673989e-07 	0 	0 	0
0.3733903722 	0 	0 	0 	2.333349404 	-0.009409253509 	3.547459635e-07 	0 	0 	0
0.3792474521 	0 	0 	0 	2.341302648 	-0.009186829131 	3.592337918e-07 	0 	0 	0
0.3851709504 	0 	0 	0 	2.348787939 	-0.008955034892 	3.489843037e-07 	0 	0 	0
0.3911621639 	0 	0 	0 	2.35580868 	-0.008715585376 	3.434051464e-07 	0 	0 	0
0.3972202431 	0 	0 	0 	2.362376453 	-0.008469353322 	3.3775659e-07 	0 	0 	0
0.4033461697 	0 	0 	0 	2.368502174 	-0.008217407649 	3.319227838e-07 	0 	0 	0
0.4095425735 	0 	0 	0 	2.374194719 	-0.007960767987 	3.257791613e-07 	0 	0 	0
0.415808133 	0 	0 	0 	2.379460921 	-0.007700519671 	3.195261588e-07 	0 	0 	0
0.4221436196 	0 	0 	0 	2.38430891 	-0.007437621999 	3.135319732e-07 	0 	0 	0
0.4285517109 	0 	0 	0 	2.388748472 	-0.007172896837 	3.08106314e-07 	0 	0 	0
0.4350314771 	0 	0 	0 	2.392789695 	-0.00690712047 	2.886449388e-07 	0 	0 	0
0.4415835607 	0 	0 	0 	2.396443943 	-0.006640950256 	2.690692282e-07 	0 	0 	0
0.448210299 	0 	0 	0 	2.39972293 	-0.006374927198 	2.521663326e-07 	0 	0 	0
0.4549112516 	0 	0 	0 	2.402636798 	-0.006109512613 	2.377236764e-07 	0 	0 	0
0.4616869897 	0 	0 	0 	2.405194311 	-0.005845104286 	2.255116095e-07 	0 	0 	0
0.4685397235 	0 	0 	0 	2.407404195 	-0.005582130363 	2.153234201e-07 	0 	0 	0
0.4754691032 	0 	0 	0 	2.409277514 	-0.005320910599 	2.068806418e-07 	0 	0 	0
0.4824758482 	0 	0 	0 	2.410828749 	-0.005061598412 	1.99848732e-07 	0 	0 	0
0.48956208 	0 	0 	0 	2.412073948 	-0.004804357116 	1.939500933e-07 	0 	0 	0
0.4967273963 	0 	0 	0 	2.413027477 	-0.004549929316 	1.889018069e-07 	0 	0 	0
0.5038929853 	0 	0 	0 	2.413702734 	-0.004300522469 	1.844570287e-07 	0 	0 	0
0.5109803352 	0 	0 	0 	2.414121022 	-0.004058131704 	1.804129146e-07 	0 	0 	0
0.5179894793 	0 	0 	0 	2.414309818 	-0.003823034875 	1.765450219e-07 	0 	0 	0
0.524921636 	0 	0 	0 	2.414294971 	-0.003594922198 	1.726697888e-07 	0 	0 	0
0.531777805 	0 	0 	0 	2.414099011 	-0.003373487448 	1.686720169e-07 	0 	0 	0
0.538558318 	0 	0 	0 	2.413741459 	-0.00315844341 	1.644598112e-07 	0 	0 	0
0.5452643442 	0 	0 	0 	2.413239174 	-0.002949523084 	1.599675412e-07 	0 	0 	0
0.5518967112 	0 	0 	0 	2.412606665 	-0.002746473274 	1.551802565e-07 	0 	0 	0
0.5584558909 	0 	0 	0 	2.411856399 	-0.002549065388 	1.500895449e-07 	0 	0 	0
0.5649429425 	0 	0 	0 	2.410999031 	-0.002357081834 	1.447009074e-07 	0 	0 	0
0.5713586812 	0 	0 	0 	2.410043664 	-0.00217032473 	1.390392406e-07 	0 	0 	0
0.5777036221 	0 	0 	0 	2.408998079 	-0.001988614756 	1.331161098e-07 	0 	0 	0
0.583978692 	0 	0 	0 	2.407868878 	-0.001811781575 	1.269505566e-07 	0 	0 	0
0.5901847713 	0 	0 	0 	2.406661657 	-0.00163966917 	1.205850706e-07 	0 	0 	0
0.5963223658 	0 	0 	0 	2.405381175 	-0.001472137151 	1.140530561e-07 	0 	0 	0
0.6023922714 	0 	0 	0 	2.404031411 	-0.001309051555 	1.073847592e-07 	0 	0 	0
0.6083954574 	0 	0 	0 	2.40261567 	-0.001150286841 	1.006224276e-07 	0 	0 	0
0.6143323969 	0 	0 	0 	2.401136715 	-0.000995730316 	9.380276194e-08 	0 	0 	0
0.6202038208 	0 	0 	0 	2.399596776 	-0.0008452737278 	8.695410263e-08 	0 	0 	0
0.6260106295 	0 	0 	0 	2.397997597 	-0.0006988132614 	8.010770042e-08 	0 	0 	0
0.6317534071 	0 	0 	0 	2.39634053 	-0.0005562542791 	7.329703126e-08 	0 	0 	0
0.6374328113 	0 	0 	0 	2.394626548 	-0.0004175066164 	6.654403326e-08 	0 	0 	0
0.6430495922 	0 	0 	0 	2.39285624 	-0.0002824828108 	5.986874362e-08 	0 	0 	0
0.6486045051 	0 	0 	0 	2.391029863 	-0.0001511007991 	5.32940765e-08 	0 	0 	0
0.6540981175 	0 	0 	0 	2.389147379 	-2.32841144e-05 	4.683495072e-08 	0 	0 	0
0.6595311055 	0 	0 	0 	2.387208427 	0.0001010410856 	4.050147706e-08 	0 	0 	0
0.6649042208 	0 	0 	0 	2.385212336 	0.000221945244 	3.430168942e-08 	0 	0 	0
0.6702180788 	0 	0 	0 	2.383158161 	0.0003394931822 	2.824074698e-08 	0 	0 	0
0.6754732958 	0 	0 	0 	2.381044681 	0.0004537455687 	2.231598271e-08 	0 	0 	0
0.680670519 	0 	0 	0 	2.378870381 	0.0005647598198 	1.652050011e-08 	0 	0 	0
0.6858104664 	0 	0 	0 	2.376633459 	0.0006725887685 	1.084284923e-08 	0 	0 	0
0.6908936988 	0 	0 	0 	2.374331866 	0.0007772794631 	5.26407546e-09 	0 	0 	0
0.695920835 	0 	0 	0 	2.371963284 	0.0008788746726 	-2.436537994e-10 	0 	0 	0
0.7008924939 	0 	0 	0 	2.369525119 	0.0009774133031 	-5.718046788e-09 	0 	0 	0
0.7058093461 	0 	0 	0 	2.367014516 	0.001072929785 	-1.121071371e-08 	0 	0 	0
0.7106719389 	0 	0 	0 	2.364428392 	0.00116545424 	-1.679020564e-08 	0 	0 	0
0.7154808702 	0 	0 	0 	2.361763425 	0.001255014615 	-2.254295662e-08 	0 	0 	0
0.720236732 	0 	0 	0 	2.359016061 	0.001341638628 	-2.857764012e-08 	0 	0 	0
0.724940145 	0 	0 	0 	2.356182535 	0.001425355957 	-3.503058855e-08 	0 	0 	0
0.729591658 	0 	0 	0 	2.353258921 	0.001506201897 	-4.206792319e-08 	0 	0 	0
0.7341918387 	0 	0 	0 	2.350241153 	0.001584223297 	-4.987939179e-08 	0 	0 	0
0.7387412535 	0 	0 	0 	2.34712507 	0.001659485547 	-5.867611653e-08 	0 	0 	0
0.7432404775 	0 	0 	0 	2.343906487 	0.001732080416 	-6.868063668e-08 	0 	0 	0
0.7476900611 	0 	0 	0 	2.340581307 	0.001802134398 	-8.010303566e-08 	0 	0 	0
0.7520905407 	0 	0 	0 	2.337145635 	0.001869815786 	-9.308642365e-08 	0 	0 	0
0.7564424581 	0 	0 	0 	2.333595926 	0.001935337234 	-1.076564889e-07 	0 	0 	0
0.7607463499 	0 	0 	0 	2.32992914 	0.001998946494 	-1.236596539e-07 	0 	0 	0
0.7650027615 	0 	0 	0 	2.326142903 	0.00206092591 	-1.407201792e-07 	0 	0 	0
0.7692122007 	0 	0 	0 	2.322235657 	0.00212157784 	-1.581971771e-07 	0 	0 	0
0.773375186 	0 	0 	0 	2.318206673 	0.002181174338 	-1.752506633e-07 	0 	0 	0
0.7774922298 	0 	0 	0 	2.314055824 	0.002239956882 	-1.910919962e-07 	0 	0 	0
0.781563842 	0 	0 	0 	2.309783371 	0.002298112289 	-2.050544459e-07 	0 	0 	0
0.7855905287 	0 	0 	0 	2.30539011 	0.002355631002 	-2.186033927e-07 	0 	0 	0
0.7895727781 	0 	0 	0 	2.300877297 	0.002411841495 	-2.323838795e-07 	0 	0 	0
0.7935110805 	0 	0 	0 	2.296245718 	0.002466642049 	-2.186758336e-07 	0 	0 	0
0.797405921 	0 	0 	0 	2.291493167 	0.002523181558 	-1.757435507e-07 	0 	0 	0
0.8012577807 	0 	0 	0 	2.286594544 	0.00258596778 	-8.772059629e-08 	0 	0 	0
0.8050671369 	0 	0 	0 	2.28145451 	0.002668335204 	1.469447837e-07 	0 	0 	0
0.8088344542 	0 	0 	0 	2.275912084 	0.002798420468 	4.611074332e-07 	0 	0 	0
0.8125601965 	0 	0 	0 	2.269861702 	0.002990556643 	5.76496096e-07 	0 	0 	0
0.8162448224 	0 	0 	0 	2.263377816 	0.003219126425 	2.946144703e-07 	0 	0 	0
0.8198887859 	0 	0 	0 	2.256702906 	0.00342940435 	-3.424013158e-07 	0 	0 	0
0.8234925387 	0 	0 	0 	2.250106398 	0.003569403304 	-1.09672724e-06 	0 	0 	0
0.8270565217 	0 	0 	0 	2.243735268 	0.003616854282 	-1.729094027e-06 	0 	0 	0
0.8305811736 	0 	0 	0 	2.237574841 	0.003582034602 	-2.101531439e-06 	0 	0 	0
0.8340669283 	0 	0 	0 	2.231513777 	0.003494589163 	-2.207055792e-06 	0 	0 	0
0.8375142152 	0 	0 	0 	2.225430912 	0.003384802017 	-2.170815682e-06 	0 	0 	0
0.8409234592 	0 	0 	0 	2.219256898 	0.003268267595 	-2.102391895e-06 	0 	0 	0
0.844295081 	0 	0 	0 	2.212976436 	0.003148245871 	-2.023935074e-06 	0 	0 	0
0.8476294945 	0 	0 	0 	2.206592882 	0.00302549185 	-1.942076449e-06 	0 	0 	0
0.8509271103 	0 	0 	0 	2.200110891 	0.002900110083 	-1.864370938e-06 	0 	0 	0
0.8541883344 	0 	0 	0 	2.193536096 	0.00277151079 	-1.791064464e-06 	0 	0 	0
0.8574135685 	0 	0 	0 	2.186875751 	0.002639201692 	-1.72352672e-06 	0 	0 	0
0.8606032099 	0 	0 	0 	2.180138237 	0.002502092845 	-1.672306086e-06 	0 	0 	0
0.8637576519 	0 	0 	0 	2.173329029 	0.00235741373 	-1.617538044e-06 	0 	0 	0
0.8668772823 	0 	0 	0 	2.166446865 	0.002212179498 	-1.522237741e-06 	0 	0 	0
0.8699624852 	0 	0 	0 	2.159468851 	0.002070578929 	-1.412196437e-06 	0 	0 	0
0.8730136406 	0 	0 	0 	2.15225139 	0.001936391822 	-1.155378372e-06 	0 	0 	0
0.8760311242 	0 	0 	0 	2.144430974 	0.001857404407 	-5.429343023e-07 	0 	0 	0
0.8790153077 	0 	0 	0 	2.135593079 	0.001892088961 	3.305270016e-07 	0 	0 	0
0.8819665587 	0 	0 	0 	2.125571923 	0.002060799971 	1.22905157e-06 	0 	0 	0
0.8848852405 	0 	0 	0 	2.114642696 	0.002337477372 	1.831215951e-06 	0 	0 	0
0.8877717125 	0 	0 	0 	2.103527308 	0.002640939236 	1.851146894e-06 	0 	0 	0
0.8906263301 	0 	0 	0 	2.093070378 	0.002875276432 	1.350950663e-06 	0 	0 	0
0.8934494449 	0 	0 	0 	2.083727867 	0.002981343023 	6.980062716e-07 	0 	0 	0
0.8962414044 	0 	0 	0 	2.075331564 	0.002972497133 	3.035347477e-07 	0 	0 	0
0.8990025526 	0 	0 	0 	2.067387335 	0.0029178996 	1.590738187e-07 	0 	0 	0
0.9017332295 	0 	0 	0 	2.059536014 	0.002854859432 	2.190083516e-08 	0 	0 	0
0.9044337714 	0 	0 	0 	2.051663622 	0.002781275167 	-8.542594545e-08 	0 	0 	0
0.9071045107 	0 	0 	0 	2.043751476 	0.002702171633 	-1.327657545e-07 	0 	0 	0
0.9097457765 	0 	0 	0 	2.035792948 	0.002622404972 	-1.743856494e-07 	0 	0 	0
0.9123578938 	0 	0 	0 	2.027784206 	0.002540974589 	-2.065616028e-07 	0 	0 	0
0.9149411845 	0 	0 	0 	2.019721299 	0.002458015583 	-2.312633898e-07 	0 	0 	0
0.9174959666 	0 	0 	0 	2.011598752 	0.002373829994 	-2.504479407e-07 	0 	0 	0
0.9200225548 	0 	0 	0 	2.00340973 	0.00228881223 	-2.655018605e-07 	0 	0 	0
0.9225212602 	0 	0 	0 	1.995146108 	0.002203402648 	-2.7729703e-07 	0 	0 	0
0.9249923905 	0 	0 	0 	1.986798456 	0.002118012862 	-2.860012557e-07 	0 	0 	0
0.92743625 	0 	0 	0 	1.978355941 	0.002033120456 	-2.910598955e-07 	0 	0 	0
0.9298531397 	0 	0 	0 	1.969805985 	0.001949131532 	-2.913355309e-07 	0 	0 	0
0.9322433571 	0 	0 	0 	1.961864238 	0.001873389298 	-2.870176849e-07 	0 	0 	0
0.9338003482 	0 	0 	0 	1.955355153 	0.001813304935 	-2.799292681e-07 	0 	0 	0
0.9353286156 	0 	0 	0 	1.949565315 	0.001761118593 	-2.710402289e-07 	0 	0 	0
0.936828689 	0 	0 	0 	1.943761191 	0.001710032132 	-2.609176432e-07 	0 	0 	0
0.9383010886 	0 	0 	0 	1.937938138 	0.001660288201 	-2.50273657e-07 	0 	0 	0
0.9397463251 	0 	0 	0 	1.932091784 	0.001611725574 	-2.395191897e-07 	0 	0 	0
0.9411648994 	0 	0 	0 	1.926217801 	0.001564265275 	-2.289545466e-07 	0 	0 	0
0.9425573035 	0 	0 	0 	1.920311815 	0.001517843955 	-2.187680292e-07 	0 	0 	0
0.9439240201 	0 	0 	0 	1.914369431 	0.00147240835 	-2.090687047e-07 	0 	0 	0
0.9452655232 	0 	0 	0 	1.908386259 	0.001427914622 	-1.999107151e-07 	0 	0 	0
0.9465822779 	0 	0 	0 	1.902357936 	0.00138432652 	-1.913089025e-07 	0 	0 	0
0.9478747407 	0 	0 	0 	1.896280123 	0.001341614959 	-1.832521699e-07 	0 	0 	0
0.9491433598 	0 	0 	0 	1.890148518 	0.001299757257 	-1.757134904e-07 	0 	0 	0
0.950388575 	0 	0 	0 	1.883958853 	0.001258736216 	-1.686570303e-07 	0 	0 	0
0.9516108182 	0 	0 	0 	1.877706893 	0.001218539164 	-1.620430441e-07 	0 	0 	0
0.9528105132 	0 	0 	0 	1.871388429 	0.001179157035 	-1.558310961e-07 	0 	0 	0
0.9539880758 	0 	0 	0 	1.86499928 	0.00114058354 	-1.499820551e-07 	0 	0 	0
0.9551439144 	0 	0 	0 	1.85853528 	0.001102814434 	-1.444592692e-07 	0 	0 	0
0.9562784298 	0 	0 	0 	1.851992274 	0.001065846845 	-1.392294724e-07 	0 	0 	0
0.9573920154 	0 	0 	0 	1.845366109 	0.001029678847 	-1.342628668e-07 	0 	0 	0
0.9584850572 	0 	0 	0 	1.838652624 	0.0009943090639 	-1.295330043e-07 	0 	0 	0
0.9595579343 	0 	0 	0 	1.831847639 	0.0009597361646 	-1.250171957e-07 	0 	0 	0
0.9606110187 	0 	0 	0 	1.824946946 	0.0009259586346 	-1.206959362e-07 	0 	0 	0
0.9616446755 	0 	0 	0 	1.817946291 	0.0008929746155 	-1.165520686e-07 	0 	0 	0
0.9626592631 	0 	0 	0 	1.810841367 	0.0008607816895 	-1.125706802e-07 	0 	0 	0
0.9636551333 	0 	0 	0 	1.803627786 	0.0008293767739 	-1.087388312e-07 	0 	0 	0
0.9646326314 	0 	0 	0 	1.796301074 	0.0007987560443 	-1.050453062e-07 	0 	0 	0
0.9655920964 	0 	0 	0 	1.788856642 	0.0007689148854 	-1.014803987e-07 	0 	0 	0
0.9665338609 	0 	0 	0 	1.781289769 	0.0007398478628 	-9.803571032e-08 	0 	0 	0
0.9674582514 	0 	0 	0 	1.77359558 	0.0007115487122 	-9.47039634e-08 	0 	0 	0
0.9683655886 	0 	0 	0 	1.765769017 	0.0006840103441 	-9.147882871e-08 	0 	0 	0
0.969256187 	0 	0 	0 	1.757804815 	0.0006572248604 	-8.835476972e-08 	0 	0 	0
0.9701303553 	0 	0 	0 	1.749697468 	0.0006311835809 	-8.532690384e-08 	0 	0 	0
0.9709883968 	0 	0 	0 	1.741441199 	0.0006058770783 	-8.239087966e-08 	0 	0 	0
0.9718306089 	0 	0 	0 	1.733029921 	0.0005812952172 	-7.954276854e-08 	0 	0 	0
0.9726572836 	0 	0 	0 	1.724457199 	0.0005574271991 	-7.677896892e-08 	0 	0 	0
0.9734687076 	0 	0 	0 	1.715716204 	0.0005342616078 	-7.409612167e-08 	0 	0 	0
0.9742651622 	0 	0 	0 	1.706799663 	0.0005117864581 	-7.149103545e-08 	0 	0 	0
0.9750469236 	0 	0 	0 	1.697699808 	0.0004899892426 	-6.896062043e-08 	0 	0 	0
0.9758142629 	0 	0 	0 	1.688408313 	0.0004688569777 	-6.650182999e-08 	0 	0 	0
0.9765674461 	0 	0 	0 	1.678916224 	0.0004483762475 	-6.411161016e-08 	0 	0 	0
0.9773067343 	0 	0 	0 	1.66921389 	0.0004285332433 	-6.178685796e-08 	0 	0 	0
0.978032384 	0 	0 	0 	1.65929087 	0.0004093137995 	-5.952438973e-08 	0 	0 	0
0.9787446467 	0 	0 	0 	1.649135844 	0.0003907034233 	-5.732092283e-08 	0 	0 	0
0.9794437694 	0 	0 	0 	1.638736498 	0.0003726873195 	-5.517307634e-08 	0 	0 	0
0.9801299944 	0 	0 	0 	1.628079404 	0.0003552504112 	-5.307740365e-08 	0 	0 	0
0.9808035598 	0 	0 	0 	1.61714988 	0.0003383773529 	-5.103044284e-08 	0 	0 	0
0.9814646991 	0 	0 	0 	1.605931824 	0.0003220525457 	-4.9028834e-08 	0 	0 	0
0.9821136415 	0 	0 	0 	1.594407531 	0.0003062601541 	-4.706950239e-08 	0 	0 	0
0.982750612 	0 	0 	0 	1.582557478 	0.000290984132 	-4.514992451e-08 	0 	0 	0
0.9833758316 	0 	0 	0 	1.570360075 	0.0002762082688 	-4.326849113e-08 	0 	0 	0
0.9839895169 	0 	0 	0 	1.557791378 	0.0002619162379 	-4.142497627e-08 	0 	0 	0
0.9845918807 	0 	0 	0 	1.544824745 	0.0002480917232 	-3.962109798e-08 	0 	0 	0
0.985183132 	0 	0 	0 	1.531430447 	0.0002347185611 	-3.786113442e-08 	0 	0 	0
0.9857634758 	0 	0 	0 	1.517575193 	0.000221779787 	-3.615242373e-08 	0 	0 	0
0.9863331132 	0 	0 	0 	1.503221574 	0.0002092658353 	-3.450517478e-08 	0 	0 	0
0.9868922417 	0 	0 	0 	1.488327394 	0.000197165425 	-3.293152525e-08 	0 	0 	0
0.9874410553 	0 	0 	0 	1.472844812 	0.0001854494702 	-3.143916152e-08 	0 	0 	0
0.9879797443 	0 	0 	0 	1.456719841 	0.0001746576137 	-3.002617722e-08 	0 	0 	0
0.9885084954 	0 	0 	0 	1.439891272 	0.0001632210061 	-2.876024705e-08 	0 	0 	0
0.9890274919 	0 	0 	0 	1.423823448 	0.0001526526562 	-2.784425699e-08 	0 	0 	0
0.9893615162 	0 	0 	0 	1.410245782 	0.0001457602796 	-2.721597381e-08 	0 	0 	0
0.9896955405 	0 	0 	0 	1.397741737 	0.0001394781239 	-2.661745737e-08 	0 	0 	0
0.9900295649 	0 	0 	0 	1.384644987 	0.0001326797463 	-2.6043932e-08 	0 	0 	0
0.9903635892 	0 	0 	0 	1.370900217 	0.0001262053579 	-2.553687945e-08 	0 	0 	0
0.9906976135 	0 	0 	0 	1.356444328 	0.0001197992371 	-2.506802077e-08 	0 	0 	0
0.9910316378 	0 	0 	0 	1.341204953 	0.0001134730061 	-2.46194855e-08 	0 	0 	0
0.9913656622 	0 	0 	0 	1.325098331 	0.0001072311757 	-2.417901311e-08 	0 	0 	0
0.9916996865 	0 	0 	0 	1.308027002 	0.0001010777934 	-2.373549603e-08 	0 	0 	0
0.9920337108 	0 	0 	0 	1.289876888 	9.502082421e-05 	-2.327782402e-08 	0 	0 	0
0.9923677351 	0 	0 	0 	1.270513607 	8.907342949e-05 	-2.279305555e-08 	0 	0 	0
0.9927017594 	0 	0 	0 	1.249777791 	8.324765393e-05 	-2.226857648e-08 	0 	0 	0
0.9930357838 	0 	0 	0 	1.227478941 	7.749267912e-05 	-2.170108497e-08 	0 	0 	0
0.9933698081 	0 	0 	0 	1.203388025 	7.274077067e-05 	-2.096884756e-08 	0 	0 	0
0.9937038324 	0 	0 	0 	1.177228078 	6.816133433e-05 	-2.026603497e-08 	0 	0 	0
0.9940378567 	0 	0 	0 	1.148657125 	6.109188395e-05 	-1.952023042e-08 	0 	0 	0
0.9943718811 	0 	0 	0 	1.117247192 	5.427634751e-05 	-1.832916104e-08 	0 	0 	0
0.9947059054 	0 	0 	0 	1.082475053 	5.182477844e-05 	-1.707858672e-08 	0 	0 	0
0.9950399297 	0 	0 	0 	1.043714777 	5.368496533e-05 	-1.603578619e-08 	0 	0 	0
0.995373954 	0 	0 	0 	1.000204465 	5.136528828e-05 	-1.47282648e-08 	0 	0 	0
0.9957079784 	0 	0 	0 	0.9509859596 	4.127630253e-05 	-1.276491154e-08 	0 	0 	0
0.9960420027 	0 	0 	0 	0.8948627895 	3.068860604e-05 	-1.081740229e-08 	0 	0 	0
0.996376027 	0 	0 	0 	0.8304236145 	7.154886951e-06 	-9.157700065e-09 	0 	0 	0
0.9967100513 	0 	0 	0 	0.7561396162 	-4.108347823e-05 	-7.569422507e-09 	0 	0 	0
0.9970440756 	0 	0 	0 	0.6706712603 	-7.735689248e-05 	-6.293479311e-09 	0 	0 	0
0.9973781 	0 	0 	0 	0.5736091554 	-3.701651634e-05 	-4.956470865e-09 	0 	0 	0
0.9977121243 	0 	0 	0 	0.4664408402 	5.426036317e-05 	-3.156813359e-09 	0 	0 	0
0.9980461486 	0 	0 	0 	0.3525721882 	8.411107121e-05 	-1.481317233e-09 	0 	0 	0
0.9983801729 	0 	0 	0 	0.2356546441 	4.141768411e-05 	-5.692432436e-10 	0 	0 	0
0.9987141973 	0 	0 	0 	0.117886211 	6.033863505e-06 	-1.698198391e-10 	0 	0 	0