0.2478607252 	-0.01181914658 	-0.003385204553 	3.009653562e-06 	0.06452914142 	0.01848374868 	-1.598923866e-05 	355.5548455 	101.7547289 	-0.09047789294
0.2480966905 	0 	0 	0 	0.2087993984 	0.05962095701 	-5.728562215e-05 	0 	0 	0
0.248332665 	0 	0 	0 	0.4152146772 	0.118367528 	-0.0001164175763 	0 	0 	0
0.248568647 	0 	0 	0 	0.6175474831 	0.1759765188 	-0.0001769259951 	0 	0 	0
0.2488046349 	0 	0 	0 	0.8118534877 	0.2313785692 	-0.000237401106 	0 	0 	0
0.2490406268 	0 	0 	0 	0.9930184921 	0.2830460327 	-0.0002963236787 	0 	0 	0
0.2492766213 	0 	0 	0 	1.15753035 	0.3297844205 	-0.0003523305946 	0 	0 	0
0.2495126165 	0 	0 	0 	1.304836737 	0.3713910191 	-0.0004057702265 	0 	0 	0
0.2497486107 	0 	0 	0 	1.436377347 	0.4085003371 	-0.0004578419652 	0 	0 	0
0.2499846024 	0 	0 	0 	1.554099412 	0.4417827445 	-0.0005078479439 	0 	0 	0
0.2502205898 	0 	0 	0 	1.659766248 	0.4716196917 	-0.0005555340227 	0 	0 	0
0.2504565713 	0 	0 	0 	1.754857768 	0.4983964456 	-0.0006013239716 	0 	0 	0
0.2506925451 	0 	0 	0 	1.840606929 	0.5224997687 	-0.0006300678519 	0 	0 	0
0.2509285096 	0 	0 	0 	1.918057555 	0.5442291229 	-0.000642565977 	0 	0 	0
0.2511644632 	0 	0 	0 	1.988247564 	0.5638796419 	-0.0006508419292 	0 	0 	0
0.2514004042 	0 	0 	0 	2.052350387 	0.5817845963 	-0.0006553019967 	0 	0 	0
0.2516363308 	0 	0 	0 	2.111422747 	0.5982440353 	-0.0006566663998 	0 	0 	0
0.2518722415 	0 	0 	0 	2.166152082 	0.6134531188 	-0.0006554455865 	0 	0 	0
0.2521081347 	0 	0 	0 	2.216966643 	0.6275339495 	-0.0006518058964 	0 	0 	0
0.2523440085 	0 	0 	0 	2.26417422 	0.6405742569 	-0.0006457436706 	0 	0 	0
0.2525798615 	0 	0 	0 	2.307987048 	0.6526334516 	-0.000637195148 	0 	0 	0
0.2528156919 	0 	0 	0 	2.348548812 	0.6637504016 	-0.0006262073136 	0 	0 	0
0.2530514981 	0 	0 	0 	2.385970353 	0.6739548836 	-0.0006129591784 	0 	0 	0
0.2532872785 	0 	0 	0 	2.420350269 	0.6832736056 	-0.0005976572236 	0 	0 	0
0.2535230314 	0 	0 	0 	2.451778296 	0.6917306846 	-0.00058049017 	0 	0 	0
0.2537587551 	0 	0 	0 	2.4803346 	0.6993473265 	-0.0005616620454 	0 	0 	0
0.2539944482 	0 	0 	0 	2.506092865 	0.7061431108 	-0.0005414230203 	0 	0 	0
0.2542301088 	0 	0 	0 	2.529126786 	0.7121410443 	-0.0005201549887 	0 	0 	0
0.2544657354 	0 	0 	0 	2.549526305 	0.7173667167 	-0.0004979834907 	0 	0 	0
0.2547013264 	0 	0 	0 	2.567442208 	0.7218534524 	-0.0004754667138 	0 	0 	0
0.2549368801 	0 	0 	0 	2.58517738 	0.726167538 	-0.0004533457975 	0 	0 	0
0.2553027985 	0 	0 	0 	2.604029604 	0.7305690219 	-0.0004224928432 	0 	0 	0
0.2556754916 	0 	0 	0 	2.621470339 	0.7344593199 	-0.0003913278508 	0 	0 	0
0.2560550761 	0 	0 	0 	2.636080448 	0.7374810303 	-0.0003606686861 	0 	0 	0
0.2564416703 	0 	0 	0 	2.648270545 	0.7397433424 	-0.0003308109036 	0 	0 	0
0.2568353939 	0 	0 	0 	2.658401824 	0.7413676779 	-0.0003015630945 	0 	0 	0
0.2572363681 	0 	0 	0 	2.666793974 	0.7424482652 	-0.0002728502375 	0 	0 	0
0.2576447153 	0 	0 	0 	2.673724 	0.7430662358 	-0.0002446541692 	0 	0 	0
0.2580605592 	0 	0 	0 	2.679442863 	0.7432962628 	-0.0002169538355 	0 	0 	0
0.2584840249 	0 	0 	0 	2.684184598 	0.7432088674 	-0.0001896452392 	0 	0 	0
0.2589152389 	0 	0 	0 	2.68815664 	0.7428660736 	-0.0001625758528 	0 	0 	0
0.2593543286 	0 	0 	0 	2.691525919 	0.7423173861 	-0.0001356122448 	0 	0 	0
0.2598014228 	0 	0 	0 	2.694418243 	0.7416003965 	-0.0001086579363 	0 	0 	0
0.2602566512 	0 	0 	0 	2.696927435 	0.7407433166 	-8.164781069e-05 	0 	0 	0
0.260720145 	0 	0 	0 	2.699124268 	0.7397673291 	-5.454033879e-05 	0 	0 	0
0.2611920358 	0 	0 	0 	2.70106273 	0.7386885265 	-2.731020542e-05 	0 	0 	0
0.2616714541 	0 	0 	0 	2.702780919 	0.7375217433 	-1.728401413e-07 	0 	0 	0
0.2621588784 	0 	0 	0 	2.704304513 	0.7362815011 	-2.670987482e-05 	0 	0 	0
0.2626540653 	0 	0 	0 	2.705666759 	0.7349706091 	-5.350433386e-05 	0 	0 	0
0.2631581466 	0 	0 	0 	2.706891776 	0.7335927022 	-8.043824969e-05 	0 	0 	0
0.2636712583 	0 	0 	0 	2.707996291 	0.7321526727 	-0.0001075076333 	0 	0 	0
0.2641935365 	0 	0 	0 	2.708994064 	0.7306545212 	-0.000134705555 	0 	0 	0
0.2647251181 	0 	0 	0 	2.709896513 	0.7291015509 	-0.0001620227378 	0 	0 	0
0.2652661398 	0 	0 	0 	2.710713194 	0.7274965094 	-0.0001894479426 	0 	0 	0
0.265816739 	0 	0 	0 	2.711452671 	0.7258404061 	-0.0002169673944 	0 	0 	0
0.2663787789 	0 	0 	0 	2.712126433 	0.724121348 	-0.0002446452321 	0 	0 	0
0.2669678609 	0 	0 	0 	2.71274406 	0.7223259056 	-0.00027327076 	0 	0 	0
0.2675675323 	0 	0 	0 	2.7133017 	0.7204711827 	-0.000301994364 	0 	0 	0
0.2681779758 	0 	0 	0 	2.713800118 	0.7185701609 	-0.0003308146478 	0 	0 	0
0.2687993775 	0 	0 	0 	2.714243357 	0.7166238602 	-0.0003597205483 	0 	0 	0
0.269431926 	0 	0 	0 	2.714634888 	0.7146331092 	-0.000388699672 	0 	0 	0
0.2700758133 	0 	0 	0 	2.714977719 	0.7125984733 	-0.0004177361199 	0 	0 	0
0.2707312343 	0 	0 	0 	2.715274337 	0.7105207179 	-0.000446824946 	0 	0 	0
0.2713983871 	0 	0 	0 	2.715526688 	0.7084004874 	-0.0004759537073 	0 	0 	0
0.2720774729 	0 	0 	0 	2.715736184 	0.7062376045 	-0.0005050858245 	0 	0 	0
0.2727686961 	0 	0 	0 	2.715903713 	0.7040320626 	-0.0005341975293 	0 	0 	0
0.2734722645 	0 	0 	0 	2.716030021 	0.7017840192 	-0.0005120688709 	0 	0 	0
0.274188389 	0 	0 	0 	2.716116069 	0.6994934114 	-0.0004757562454 	0 	0 	0
0.274917284 	0 	0 	0 	2.716163188 	0.6971607595 	-0.0004393840688 	0 	0 	0
0.2756591673 	0 	0 	0 	2.716173081 	0.6947866079 	-0.0004029613878 	0 	0 	0
0.27641426 	0 	0 	0 	2.71614763 	0.6923712423 	-0.0003665110346 	0 	0 	0
0.277182787 	0 	0 	0 	2.716088754 	0.6899151781 	-0.0003300486507 	0 	0 	0
0.2779649765 	0 	0 	0 	2.715998433 	0.6874189823 	-0.0002935884722 	0 	0 	0
0.2787610603 	0 	0 	0 	2.715878672 	0.684883228 	-0.0002571444929 	0 	0 	0
0.2795712742 	0 	0 	0 	2.715731463 	0.6823085047 	-0.0002207300541 	0 	0 	0
0.2803958572 	0 	0 	0 	2.715558759 	0.6796954075 	-0.0001843580035 	0 	0 	0
0.2812350526 	0 	0 	0 	2.715362443 	0.6770445278 	-0.0001480409348 	0 	0 	0
0.2820891073 	0 	0 	0 	2.715144305 	0.6743564424 	-0.0001117914045 	0 	0 	0
0.2829582719 	0 	0 	0 	2.714906028 	0.6716316881 	-7.562216525e-05 	0 	0 	0
0.2838428013 	0 	0 	0 	2.714647642 	0.6688614949 	-3.95452628e-05 	0 	0 	0
0.2847556243 	0 	0 	0 	2.714369179 	0.6660234137 	-3.067163873e-06 	0 	0 	0
0.2848333523 	0 	0 	0 	2.714344696 	0.6657837882 	-1.533184517e-05 	0 	0 	0
0.2856962892 	0 	0 	0 	2.714048848 	0.6631247264 	-3.307074725e-05 	0 	0 	0
0.2866531183 	0 	0 	0 	2.713709147 	0.6601800174 	-6.897808778e-05 	0 	0 	0
0.2876267427 	0 	0 	0 	2.713355053 	0.6572001828 	-0.0001047138207 	0 	0 	0
0.2886174419 	0 	0 	0 	2.712987398 	0.6541855887 	-0.0001402612284 	0 	0 	0
0.2896255 	0 	0 	0 	2.712606855 	0.6511365637 	-0.0001756026443 	0 	0 	0
0.2906512055 	0 	0 	0 	2.71221395 	0.6480534033 	-0.000210719439 	0 	0 	0
0.2916948513 	0 	0 	0 	2.711809082 	0.6449363249 	-0.0002455919771 	0 	0 	0
0.292756735 	0 	0 	0 	2.71139257 	0.6417855898 	-0.0002801998099 	0 	0 	0
0.2938371588 	0 	0 	0 	2.710964511 	0.6386019419 	-0.0003145225576 	0 	0 	0
0.2949364296 	0 	0 	0 	2.710445389 	0.6349939727 	-0.0003481410536 	0 	0 	0
0.2966211408 	0 	0 	0 	2.709844779 	0.6305004022 	-0.0003989257037 	0 	0 	0
0.2983211975 	0 	0 	0 	2.709150717 	0.6256211053 	-0.0003637676515 	0 	0 	0
0.3000367404 	0 	0 	0 	2.708443192 	0.6207515106 	-0.0003041106283 	0 	0 	0
0.3017679123 	0 	0 	0 	2.707715655 	0.6158608264 	-0.0002460767882 	0 	0 	0
0.3035615948 	0 	0 	0 	2.706968042 	0.6109096041 	-0.0001882214714 	0 	0 	0
0.3053762146 	0 	0 	0 	2.706199573 	0.6059334783 	-0.0001319807518 	0 	0 	0
0.3072070693 	0 	0 	0 	2.705416827 	0.6009678885 	-7.753403588e-05 	0 	0 	0
0.309054309 	0 	0 	0 	2.704620407 	0.5960163111 	-2.487912339e-05 	0 	0 	0
0.3099572036 	0 	0 	0 	2.704228528 	0.5936216611 	-0.0001556253612 	0 	0 	0
0.3109144486 	0 	0 	0 	2.703791669 	0.5910815965 	-2.557581072e-05 	0 	0 	0
0.3127878846 	0 	0 	0 	2.702931926 	0.5861625296 	-7.393521516e-05 	0 	0 	0
0.3146782044 	0 	0 	0 	2.702058515 	0.581256603 	-0.0001206166406 	0 	0 	0
0.3165855688 	0 	0 	0 	2.701171258 	0.5763640686 	-0.0001656260983 	0 	0 	0
0.318510141 	0 	0 	0 	2.700264453 	0.5714642477 	-0.0002089554112 	0 	0 	0
0.3204874336 	0 	0 	0 	2.699334366 	0.5665217406 	-0.0002514104852 	0 	0 	0
0.3225010989 	0 	0 	0 	2.698380784 	0.5615502312 	-0.0002925069896 	0 	0 	0
0.324532613 	0 	0 	0 	2.697408933 	0.5565851725 	-0.0002804655787 	0 	0 	0
0.3265821488 	0 	0 	0 	2.696421306 	0.5516379073 	-0.0002311368101 	0 	0 	0
0.3286498823 	0 	0 	0 	2.695417538 	0.5467086135 	-0.0001836042023 	0 	0 	0
0.3307359925 	0 	0 	0 	2.694397248 	0.5417975058 	-0.0001378547998 	0 	0 	0
0.3328406618 	0 	0 	0 	2.693360083 	0.5369047234 	-9.387477254e-05 	0 	0 	0
0.334964076 	0 	0 	0 	2.692301548 	0.5320166439 	-5.164662498e-05 	0 	0 	0
0.3371320833 	0 	0 	0 	2.691215689 	0.5271013022 	-1.06686929e-05 	0 	0 	0
0.3377175152 	0 	0 	0 	2.690922367 	0.5257939688 	-8.635568439e-05 	0 	0 	0
0.3393444052 	0 	0 	0 	2.690079576 	0.5221534889 	-2.889305104e-05 	0 	0 	0
0.3415743451 	0 	0 	0 	2.688912461 	0.5172087564 	-6.662396336e-05 	0 	0 	0
0.3438239536 	0 	0 	0 	2.687726821 	0.5122848555 	-0.0001026181159 	0 	0 	0
0.346093434 	0 	0 	0 	2.686522266 	0.5073818678 	-0.0001368969368 	0 	0 	0
0.3483829935 	0 	0 	0 	2.685298418 	0.5024999041 	-0.0001694827235 	0 	0 	0
0.3506928437 	0 	0 	0 	2.684053891 	0.4976358781 	-0.0002003960861 	0 	0 	0
0.3530295839 	0 	0 	0 	2.682779551 	0.4927617373 	-0.0002213014617 	0 	0 	0
0.3554374975 	0 	0 	0 	2.681472711 	0.4878531939 	-0.0001823360889 	0 	0 	0
0.3578664156 	0 	0 	0 	2.680136399 	0.4829441019 	-0.0001451461511 	0 	0 	0
0.3603165657 	0 	0 	0 	2.678778531 	0.4780597674 	-0.0001097264501 	0 	0 	0
0.3627881801 	0 	0 	0 	2.67739875 	0.4732001059 	-7.6047123e-05 	0 	0 	0
0.3652814963 	0 	0 	0 	2.67599675 	0.4683650482 	-4.407788135e-05 	0 	0 	0
0.3677967568 	0 	0 	0 	2.674567715 	0.4635428641 	-1.378690792e-05 	0 	0 	0
0.3690001284 	0 	0 	0 	2.673882061 	0.4612704412 	-0.0001516019237 	0 	0 	0
0.3703570904 	0 	0 	0 	2.673092315 	0.4587000358 	-1.525630028e-05 	0 	0 	0
0.3729676944 	0 	0 	0 	2.671571688 	0.4538353178 	-4.309515636e-05 	0 	0 	0
0.3756010887 	0 	0 	0 	2.670023002 	0.4489834087 	-6.929808021e-05 	0 	0 	0
0.3782575372 	0 	0 	0 	2.668451201 	0.4441583145 	-9.390239134e-05 	0 	0 	0
0.3809373097 	0 	0 	0 	2.666856046 	0.4393598483 	-0.0001169448549 	0 	0 	0
0.3836406821 	0 	0 	0 	2.665233488 	0.4345790067 	-0.0001384565074 	0 	0 	0
0.3863896793 	0 	0 	0 	2.663575369 	0.4297912924 	-0.0001579453697 	0 	0 	0
0.389197645 	0 	0 	0 	2.661880244 	0.4249915527 	-0.000129793941 	0 	0 	0
0.3920300409 	0 	0 	0 	2.660154425 	0.4202067254 	-0.000103250462 	0 	0 	0
0.3948871681 	0 	0 	0 	2.658403728 	0.4154513223 	-7.828399334e-05 	0 	0 	0
0.397769335 	0 	0 	0 	2.656627997 	0.4107249808 	-5.485153089e-05 	0 	0 	0
0.4006768572 	0 	0 	0 	2.654819153 	0.4060109694 	-3.290681299e-05 	0 	0 	0
0.4036541291 	0 	0 	0 	2.652970858 	0.4012859128 	-1.209729194e-05 	0 	0 	0
0.4055087421 	0 	0 	0 	2.651812464 	0.398380137 	-0.0001213309255 	0 	0 	0
0.4066666498 	0 	0 	0 	2.651079853 	0.3965594369 	-7.482710579e-06 	0 	0 	0
0.4097021532 	0 	0 	0 	2.649152003 	0.391850171 	-2.591340291e-05 	0 	0 	0
0.4127643706 	0 	0 	0 	2.647198963 	0.3871714692 	-4.297878271e-05 	0 	0 	0
0.4158536567 	0 	0 	0 	2.645214555 	0.3825115165 	-5.872095702e-05 	0 	0 	0
0.4190035533 	0 	0 	0 	2.643191316 	0.3778496131 	-7.335580431e-05 	0 	0 	0
0.4222017372 	0 	0 	0 	2.641130319 	0.3731919512 	-8.680320944e-05 	0 	0 	0
0.4254279802 	0 	0 	0 	2.639039493 	0.3685594826 	-9.899424276e-05 	0 	0 	0
0.428682672 	0 	0 	0 	2.636922367 	0.3639591053 	-9.176335492e-05 	0 	0 	0
0.4319662123 	0 	0 	0 	2.634771282 	0.3593772283 	-7.454167921e-05 	0 	0 	0
0.4353200549 	0 	0 	0 	2.63257933 	0.3547948848 	-5.836188944e-05 	0 	0 	0
0.4387139945 	0 	0 	0 	2.630349757 	0.3502245807 	-4.337623751e-05 	0 	0 	0
0.4421378657 	0 	0 	0 	2.628090963 	0.3456842119 	-2.959513911e-05 	0 	0 	0
0.445592109 	0 	0 	0 	2.625802117 	0.3411725849 	-1.696640694e-05 	0 	0 	0
0.4490909705 	0 	0 	0 	2.623474827 	0.3366739063 	-5.389622861e-06 	0 	0 	0
0.4508620033 	0 	0 	0 	2.622299536 	0.3344409612 	-0.0001500504796 	0 	0 	0
0.4526540059 	0 	0 	0 	2.621102289 	0.332173443 	-5.478783073e-06 	0 	0 	0
0.4562464102 	0 	0 	0 	2.618691874 	0.3276887425 	-1.554651803e-05 	0 	0 	0
0.4598709613 	0 	0 	0 	2.616253265 	0.3232372339 	-2.461995413e-05 	0 	0 	0
0.4635297771 	0 	0 	0 	2.613777766 	0.3188054316 	-3.27511264e-05 	0 	0 	0
0.4672662354 	0 	0 	0 	2.611259135 	0.3143789296 	-4.008160438e-05 	0 	0 	0
0.4710361103 	0 	0 	0 	2.608703248 	0.3099737785 	-4.651794625e-05 	0 	0 	0
0.4748399356 	0 	0 	0 	2.606117513 	0.3056023304 	-5.211601863e-05 	0 	0 	0
0.4786793613 	0 	0 	0 	2.603493651 	0.301252681 	-5.692267843e-05 	0 	0 	0
0.4825957524 	0 	0 	0 	2.60082522 	0.2969118048 	-4.89586849e-05 	0 	0 	0
0.486547475 	0 	0 	0 	2.598117826 	0.2925936507 	-4.020882003e-05 	0 	0 	0
0.4905351173 	0 	0 	0 	2.5953768 	0.2883071213 	-3.228286944e-05 	0 	0 	0
0.4945682564 	0 	0 	0 	2.59259452 	0.2840413549 	-2.511267217e-05 	0 	0 	0
0.4986692407 	0 	0 	0 	2.589766853 	0.2797897421 	-1.86317176e-05 	0 	0 	0
0.5028076531 	0 	0 	0 	2.586899291 	0.2755639008 	-1.286187444e-05 	0 	0 	0
0.5069841407 	0 	0 	0 	2.5839925 	0.2713661148 	-7.755807626e-06 	0 	0 	0
0.5112216396 	0 	0 	0 	2.581039427 	0.267186238 	-3.242388575e-06 	0 	0 	0
0.5147184832 	0 	0 	0 	2.578595857 	0.2637959845 	-5.059210287e-05 	0 	0 	0
0.5155119101 	0 	0 	0 	2.578040027 	0.2630245646 	-7.64920621e-07 	0 	0 	0
0.5198395751 	0 	0 	0 	2.574998112 	0.2588829526 	-4.524575759e-06 	0 	0 	0
0.5242131926 	0 	0 	0 	2.571910311 	0.2547652475 	-7.765767198e-06 	0 	0 	0
0.5286556948 	0 	0 	0 	2.568771487 	0.2506650423 	-1.053764565e-05 	0 	0 	0
0.5331398208 	0 	0 	0 	2.565585815 	0.2465910247 	-1.284576881e-05 	0 	0 	0
0.5376663255 	0 	0 	0 	2.562352117 	0.2425436909 	-1.47301921e-05 	0 	0 	0
0.5422617001 	0 	0 	0 	2.559063487 	0.238514898 	-1.623882525e-05 	0 	0 	0
0.5469046699 	0 	0 	0 	2.555721944 	0.2345100466 	-1.738361574e-05 	0 	0 	0
0.5515919481 	0 	0 	0 	2.552327675 	0.2305317517 	-1.819880089e-05 	0 	0 	0
0.556343005 	0 	0 	0 	2.548874553 	0.2265739381 	-1.872244358e-05 	0 	0 	0
0.5611476171 	0 	0 	0 	2.545362334 	0.2226388744 	-1.897350992e-05 	0 	0 	0
0.5659985932 	0 	0 	0 	2.541790828 	0.2187291496 	-1.869365249e-05 	0 	0 	0
0.5709123736 	0 	0 	0 	2.538154611 	0.2148403661 	-1.601495181e-05 	0 	0 	0
0.5758818988 	0 	0 	0 	2.534452488 	0.2109738259 	-1.364696029e-05 	0 	0 	0
0.5808999763 	0 	0 	0 	2.530683396 	0.2071314147 	-1.156464134e-05 	0 	0 	0
0.585982671 	0 	0 	0 	2.526841831 	0.2033093477 	-9.735386296e-06 	0 	0 	0
0.5911208992 	0 	0 	0 	2.522926604 	0.1995092688 	-8.143421451e-06 	0 	0 	0
0.5963100062 	0 	0 	0 	2.518935454 	0.1957320171 	-6.765113098e-06 	0 	0 	0
0.6015672442 	0 	0 	0 	2.514862236 	0.1919737866 	-5.574505762e-06 	0 	0 	0
0.6068785218 	0 	0 	0 	2.510705954 	0.1882368495 	-4.557532778e-06 	0 	0 	0
0.6122458951 	0 	0 	0 	2.506463394 	0.1845211159 	-3.692462826e-06 	0 	0 	0
0.6176802584 	0 	0 	0 	2.502140386 	0.1808332699 	-2.961738425e-06 	0 	0 	0
0.6231089688 	0 	0 	0 	2.497772874 	0.1772055372 	-2.356210055e-06 	0 	0 	0
0.628479262 	0 	0 	0 	2.493395956 	0.1736653463 	-1.859633285e-06 	0 	0 	0
0.6337917032 	0 	0 	0 	2.489020347 	0.170217646 	-1.454822809e-06 	0 	0 	0
0.6390410869 	0 	0 	0 	2.484646406 	0.1668595625 	-1.125066643e-06 	0 	0 	0
0.644236594 	0 	0 	0 	2.480272278 	0.1635860526 	-8.55568991e-07 	0 	0 	0
0.6493731342 	0 	0 	0 	2.475898709 	0.1603945829 	-6.356215204e-07 	0 	0 	0
0.6544495689 	0 	0 	0 	2.471525782 	0.1572823004 	-4.546949407e-07 	0 	0 	0
0.6594747915 	0 	0 	0 	2.46715153 	0.1542446011 	-3.041837691e-07 	0 	0 	0
0.6644417602 	0 	0 	0 	2.462777372 	0.1512798425 	-1.775119407e-07 	0 	0 	0
0.6693518272 	0 	0 	0 	2.458403384 	0.1483854392 	-6.849983495e-08 	0 	0 	0
0.6742111561 	0 	0 	0 	2.454027964 	0.1455576003 	2.773997836e-08 	0 	0 	0
0.6790145641 	0 	0 	0 	2.449652351 	0.1427948675 	1.151296982e-07 	0 	0 	0
0.6837634788 	0 	0 	0 	2.445276514 	0.1400949282 	1.969862494e-07 	0 	0 	0
0.6884626381 	0 	0 	0 	2.440899153 	0.1374546774 	2.760064605e-07 	0 	0 	0
0.6931082167 	0 	0 	0 	2.436521297 	0.1348727977 	3.543232971e-07 	0 	0 	0
0.6977011208 	0 	0 	0 	2.432142887 	0.1323473195 	4.334788992e-07 	0 	0 	0
0.7022457724 	0 	0 	0 	2.427762645 	0.129875561 	5.148033235e-07 	0 	0 	0
0.7067390029 	0 	0 	0 	2.423381299 	0.1274562839 	5.993432028e-07 	0 	0 	0
0.7111815988 	0 	0 	0 	2.418998916 	0.1250879282 	6.875712353e-07 	0 	0 	0
0.7155766245 	0 	0 	0 	2.414614393 	0.1227682548 	7.798919842e-07 	0 	0 	0
0.7199227611 	0 	0 	0 	2.410227864 	0.1204959206 	8.767804993e-07 	0 	0 	0
0.7242202053 	0 	0 	0 	2.405839462 	0.1182696859 	9.780999379e-07 	0 	0 	0
0.7284707509 	0 	0 	0 	2.401448369 	0.1160877559 	1.083624677e-06 	0 	0 	0
0.7326748377 	0 	0 	0 	2.397054158 	0.1139486951 	1.193512466e-06 	0 	0 	0
0.7368320496 	0 	0 	0 	2.39265698 	0.1118514907 	1.307366655e-06 	0 	0 	0
0.7409431719 	0 	0 	0 	2.388256293 	0.1097947482 	1.424612444e-06 	0 	0 	0
0.7450100561 	0 	0 	0 	2.383851212 	0.1077769928 	1.545051618e-06 	0 	0 	0
0.7490317742 	0 	0 	0 	2.379441696 	0.1057972849 	1.668347683e-06 	0 	0 	0
0.7530089314 	0 	0 	0 	2.3750275 	0.1038546223 	1.793810812e-06 	0 	0 	0
0.7569426995 	0 	0 	0 	2.370607745 	0.101947713 	1.920825147e-06 	0 	0 	0
0.7608334894 	0 	0 	0 	2.366181815 	0.1000754994 	2.049226077e-06 	0 	0 	0
0.7646812936 	0 	0 	0 	2.361749461 	0.09823716008 	2.1783914e-06 	0 	0 	0
0.7684866645 	0 	0 	0 	2.357310099 	0.0964317123 	2.307639069e-06 	0 	0 	0
0.7722507669 	0 	0 	0 	2.352862848 	0.09465808669 	2.4364984e-06 	0 	0 	0
0.7759735373 	0 	0 	0 	2.3484072 	0.09291546757 	2.564684796e-06 	0 	0 	0
0.779655338 	0 	0 	0 	2.34394275 	0.09120313083 	2.691484456e-06 	0 	0 	0
0.7832966776 	0 	0 	0 	2.339468719 	0.08952019288 	2.816275298e-06 	0 	0 	0
0.7868985473 	0 	0 	0 	2.334984204 	0.08786575104 	2.938835515e-06 	0 	0 	0
0.7904608766 	0 	0 	0 	2.330488724 	0.08623911396 	3.059010546e-06 	0 	0 	0
0.7939841139 	0 	0 	0 	2.325981885 	0.08463965053 	3.176150093e-06 	0 	0 	0
0.7974687307 	0 	0 	0 	2.32146289 	0.08306663549 	3.289490316e-06 	0 	0 	0
0.8009155059 	0 	0 	0 	2.316930618 	0.08151932336 	3.398636733e-06 	0 	0 	0
0.8043245387 	0 	0 	0 	2.312384065 	0.07999707985 	3.503598542e-06 	0 	0 	0
0.8076962384 	0 	0 	0 	2.307822443 	0.07849930218 	3.60418276e-06 	0 	0 	0
0.8110310454 	0 	0 	0 	2.303245118 	0.07702535912 	3.700029787e-06 	0 	0 	0
0.8143295486 	0 	0 	0 	2.298651589 	0.07557463575 	3.7907259e-06 	0 	0 	0
0.8175920432 	0 	0 	0 	2.294041478 	0.07414660795 	3.87611174e-06 	0 	0 	0
0.820818861 	0 	0 	0 	2.289414344 	0.07274079508 	3.955953143e-06 	0 	0 	0
0.824010415 	0 	0 	0 	2.284769477 	0.07135667877 	4.03015736e-06 	0 	0 	0
0.8271671471 	0 	0 	0 	2.280105865 	0.06999370772 	4.098672861e-06 	0 	0 	0
0.8302895134 	0 	0 	0 	2.275422385 	0.0686513534 	4.070508368e-06 	0 	0 	0
0.8333777685 	0 	0 	0 	2.27071805 	0.0673291596 	3.906998823e-06 	0 	0 	0
0.8364323014 	0 	0 	0 	2.265991994 	0.06602667598 	3.744315894e-06 	0 	0 	0
0.839453495 	0 	0 	0 	2.261243417 	0.06474345256 	3.58301772e-06 	0 	0 	0
0.8424417766 	0 	0 	0 	2.256471588 	0.06347903532 	3.423592075e-06 	0 	0 	0
0.8453974796 	0 	0 	0 	2.251675878 	0.06223300741 	3.266285457e-06 	0 	0 	0
0.8483209236 	0 	0 	0 	2.246855724 	0.06100499137 	3.111492617e-06 	0 	0 	0
0.851212471 	0 	0 	0 	2.24201044 	0.05979460246 	2.959516632e-06 	0 	0 	0
0.8540724785 	0 	0 	0 	2.237139056 	0.058601458 	2.81057507e-06 	0 	0 	0
0.8569013304 	0 	0 	0 	2.232240332 	0.05742515892 	2.664839213e-06 	0 	0 	0
0.8596993388 	0 	0 	0 	2.227312959 	0.05626532373 	2.522402123e-06 	0 	0 	0
0.862466824 	0 	0 	0 	2.222355766 	0.05512159829 	2.383520407e-06 	0 	0 	0
0.8652041249 	0 	0 	0 	2.217367729 	0.05399363732 	2.248358579e-06 	0 	0 	0
0.8679115756 	0 	0 	0 	2.212347836 	0.05288112328 	2.116993351e-06 	0 	0 	0
0.8705895185 	0 	0 	0 	2.207294928 	0.05178373923 	1.989482082e-06 	0 	0 	0
0.8732382701 	0 	0 	0 	2.202207693 	0.0507011764 	1.865798288e-06 	0 	0 	0
0.8758581305 	0 	0 	0 	2.197084816 	0.04963313772 	1.746017033e-06 	0 	0 	0
0.8784494179 	0 	0 	0 	2.19192512 	0.0485793135 	1.63017567e-06 	0 	0 	0
0.8810124466 	0 	0 	0 	2.186727609 	0.04753939273 	1.518243278e-06 	0 	0 	0
0.8835475265 	0 	0 	0 	2.181491352 	0.04651305917 	1.410171594e-06 	0 	0 	0
0.8860549743 	0 	0 	0 	2.176215206 	0.04549998964 	1.305900174e-06 	0 	0 	0
0.8885350713 	0 	0 	0 	2.170897473 	0.04449988144 	1.205419191e-06 	0 	0 	0
0.8909881153 	0 	0 	0 	2.1655356 	0.04351245928 	1.108855266e-06 	0 	0 	0
0.8934144021 	0 	0 	0 	2.160126132 	0.04253748028 	1.016354968e-06 	0 	0 	0
0.8958142242 	0 	0 	0 	2.154665178 	0.04157474963 	9.280226939e-07 	0 	0 	0
0.8981878702 	0 	0 	0 	2.14914939 	0.04062409687 	8.438613462e-07 	0 	0 	0
0.9005356294 	0 	0 	0 	2.143577197 	0.03968534008 	7.637068535e-07 	0 	0 	0
0.9028577716 	0 	0 	0 	2.137949668 	0.03875825135 	6.873076979e-07 	0 	0 	0
0.905154576 	0 	0 	0 	2.132270188 	0.03784251329 	6.144505522e-07 	0 	0 	0
0.9074263184 	0 	0 	0 	2.126542492 	0.03693771801 	5.450265206e-07 	0 	0 	0
0.9096732718 	0 	0 	0 	2.120767426 	0.03604342542 	4.790871889e-07 	0 	0 	0
0.9118957056 	0 	0 	0 	2.114939737 	0.03515924813 	4.168051084e-07 	0 	0 	0
0.9140938875 	0 	0 	0 	2.109046765 	0.03428492951 	3.583466563e-07 	0 	0 	0
0.9162680758 	0 	0 	0 	2.103070616 	0.03342039023 	3.03744833e-07 	0 	0 	0
0.9184185298 	0 	0 	0 	2.096994085 	0.03256568602 	2.528942548e-07 	0 	0 	0
0.9205455076 	0 	0 	0 	2.090808581 	0.03172087829 	2.055633977e-07 	0 	0 	0
0.9226492639 	0 	0 	0 	2.084520406 	0.03088588048 	1.615319495e-07 	0 	0 	0
0.924730051 	0 	0 	0 	2.078150964 	0.03006035579 	1.207470766e-07 	0 	0 	0
0.9267881181 	0 	0 	0 	2.071728278 	0.0292437686 	8.335271404e-08 	0 	0 	0
0.9288237114 	0 	0 	0 	2.065271841 	0.02843559745 	4.951269111e-08 	0 	0 	0
0.9308370718 	0 	0 	0 	2.058777876 	0.0276355795 	1.91924466e-08 	0 	0 	0
0.9322268398 	0 	0 	0 	2.054196751 	0.02708298018 	-1.119093062e-05 	0 	0 	0
0.932828417 	0 	0 	0 	2.052214019 	0.02684373754 	1.046826363e-08 	0 	0 	0
0.9347979584 	0 	0 	0 	2.045527938 	0.02606030146 	4.279165293e-08 	0 	0 	0
0.9367459879 	0 	0 	0 	2.038668753 	0.02528559987 	7.190441482e-08 	0 	0 	0
0.9386727387 	0 	0 	0 	2.031616272 	0.02451928363 	9.76127263e-08 	0 	0 	0
0.9405784416 	0 	0 	0 	2.024397856 	0.02376016985 	1.191086256e-07 	0 	0 	0
0.9424633245 	0 	0 	0 	2.017080871 	0.0230074276 	1.37157643e-07 	0 	0 	0
0.9443276118 	0 	0 	0 	2.00973412 	0.02225827214 	1.466443799e-07 	0 	0 	0
0.9461715263 	0 	0 	0 	2.002372432 	0.02151027018 	1.516874336e-07 	0 	0 	0
0.947995289 	0 	0 	0 	1.995573859 	0.02083022059 	1.623674e-07 	0 	0 	0
0.9491833964 	0 	0 	0 	1.989989257 	0.0202846919 	1.6286331e-07 	0 	0 	0
0.9503496664 	0 	0 	0 	1.985017928 	0.0198079501 	1.61329495e-07 	0 	0 	0
0.9514944991 	0 	0 	0 	1.980024632 	0.01933843459 	1.614438537e-07 	0 	0 	0
0.9526182872 	0 	0 	0 	1.975004148 	0.01887678391 	1.59862059e-07 	0 	0 	0
0.9537214162 	0 	0 	0 	1.969951957 	0.0184225621 	1.572096585e-07 	0 	0 	0
0.9548042646 	0 	0 	0 	1.964863868 	0.01797560901 	1.536293421e-07 	0 	0 	0
0.9558672041 	0 	0 	0 	1.959735739 	0.01753578085 	1.491843303e-07 	0 	0 	0
0.9569105994 	0 	0 	0 	1.954563479 	0.01710294559 	1.439467958e-07 	0 	0 	0
0.9579348086 	0 	0 	0 	1.949343043 	0.01667698483 	1.379639297e-07 	0 	0 	0
0.9589401833 	0 	0 	0 	1.944070422 	0.01625778657 	1.312812996e-07 	0 	0 	0
0.9599270689 	0 	0 	0 	1.938741634 	0.01584524413 	1.239464559e-07 	0 	0 	0
0.9608958043 	0 	0 	0 	1.933352708 	0.01543925575 	1.160099246e-07 	0 	0 	0
0.9618467224 	0 	0 	0 	1.927899679 	0.0150397239 	1.075252938e-07 	0 	0 	0
0.9627801499 	0 	0 	0 	1.922378573 	0.01464655464 	9.854832433e-08 	0 	0 	0
0.9636964077 	0 	0 	0 	1.916785402 	0.01425965733 	8.91357994e-08 	0 	0 	0
0.9645958106 	0 	0 	0 	1.911116147 	0.01387894436 	7.934435023e-08 	0 	0 	0
0.9654786679 	0 	0 	0 	1.905366748 	0.01350433107 	6.922944825e-08 	0 	0 	0
0.9663452831 	0 	0 	0 	1.899533092 	0.0131357356 	5.884465711e-08 	0 	0 	0
0.9671959541 	0 	0 	0 	1.893610996 	0.01277307885 	4.824115776e-08 	0 	0 	0
0.9680309737 	0 	0 	0 	1.88759619 	0.01241628443 	3.746751705e-08 	0 	0 	0
0.968850629 	0 	0 	0 	1.881484301 	0.0120652785 	2.656964503e-08 	0 	0 	0
0.9696552019 	0 	0 	0 	1.875270831 	0.01171998998 	1.559090698e-08 	0 	0 	0
0.9704449694 	0 	0 	0 	1.868951134 	0.01138035 	4.572279635e-09 	0 	0 	0
0.971220203 	0 	0 	0 	1.862520398 	0.01104629199 	-6.447457721e-09 	0 	0 	0
0.9719811697 	0 	0 	0 	1.855973616 	0.01071775199 	-1.74314419e-08 	0 	0 	0
0.9727281314 	0 	0 	0 	1.84930556 	0.01039466809 	-2.834448455e-08 	0 	0 	0
0.9734613452 	0 	0 	0 	1.842510754 	0.01007698033 	-3.91528528e-08 	0 	0 	0
0.9741810636 	0 	0 	0 	1.83558344 	0.00976463083 	-4.982409044e-08 	0 	0 	0
0.9748875344 	0 	0 	0 	1.828517549 	0.009457563634 	-6.032689017e-08 	0 	0 	0
0.9755810009 	0 	0 	0 	1.821306663 	0.009155724634 	-7.063095287e-08 	0 	0 	0
0.9762617019 	0 	0 	0 	1.813943976 	0.00885906151 	-8.070688513e-08 	0 	0 	0
0.9769298721 	0 	0 	0 	1.806422252 	0.008567523685 	-9.052614396e-08 	0 	0 	0
0.9775857414 	0 	0 	0 	1.798733779 	0.008281062277 	-1.000609835e-07 	0 	0 	0
0.9782295361 	0 	0 	0 	1.790870323 	0.00799963007 	-1.092844167e-07 	0 	0 	0
0.9788614778 	0 	0 	0 	1.782823065 	0.007723181483 	-1.181701988e-07 	0 	0 	0
0.9794817844 	0 	0 	0 	1.774582548 	0.007451672554 	-1.26692824e-07 	0 	0 	0
0.9800906697 	0 	0 	0 	1.766138609 	0.007185060925 	-1.34827533e-07 	0 	0 	0
0.9806883436 	0 	0 	0 	1.757480303 	0.00692330584 	-1.425503318e-07 	0 	0 	0
0.9812750122 	0 	0 	0 	1.748595825 	0.006666368136 	-1.498380217e-07 	0 	0 	0
0.9818508776 	0 	0 	0 	1.739472417 	0.006414210246 	-1.566682397e-07 	0 	0 	0
0.9824161385 	0 	0 	0 	1.73009627 	0.006166796206 	-1.630195105e-07 	0 	0 	0
0.9829709899 	0 	0 	0 	1.72045241 	0.005924091657 	-1.688713105e-07 	0 	0 	0
0.983515623 	0 	0 	0 	1.710524571 	0.005686063845 	-1.742041441e-07 	0 	0 	0
0.9840502257 	0 	0 	0 	1.700295056 	0.005452681661 	-1.789996314e-07 	0 	0 	0
0.9845749826 	0 	0 	0 	1.689744571 	0.005223915606 	-1.832406166e-07 	0 	0 	0
0.9850900744 	0 	0 	0 	1.678852047 	0.004999737743 	-1.869113294e-07 	0 	0 	0
0.9855956791 	0 	0 	0 	1.667594433 	0.004780121839 	-1.899974786e-07 	0 	0 	0
0.9860919711 	0 	0 	0 	1.655946455 	0.00456504331 	-1.924863607e-07 	0 	0 	0
0.9865791216 	0 	0 	0 	1.643880345 	0.004354479118 	-1.943670853e-07 	0 	0 	0
0.9870572987 	0 	0 	0 	1.63136553 	0.004148407834 	-1.956307617e-07 	0 	0 	0
0.9875266675 	0 	0 	0 	1.618368265 	0.003946809581 	-1.962707035e-07 	0 	0 	0
0.9879873901 	0 	0 	0 	1.604851216 	0.003749666029 	-1.962826443e-07 	0 	0 	0
0.9884396253 	0 	0 	0 	1.590772961 	0.003556960235 	-1.956651778e-07 	0 	0 	0
0.9888835295 	0 	0 	0 	1.576087415 	0.003368675476 	-1.944199313e-07 	0 	0 	0
0.9893192558 	0 	0 	0 	1.560743146 	0.003184804617 	-1.92554895e-07 	0 	0 	0
0.9897469547 	0 	0 	0 	1.544682569 	0.003005330519 	-1.900960827e-07 	0 	0 	0
0.9901667739 	0 	0 	0 	1.527840924 	0.002830226898 	-1.870404687e-07 	0 	0 	0
0.9905788583 	0 	0 	0 	1.510145732 	0.002660132608 	-1.835616712e-07 	0 	0 	0
0.9909833503 	0 	0 	0 	1.491515213 	0.002492820645 	-1.795174292e-07 	0 	0 	0
0.9913803896 	0 	0 	0 	1.473578069 	0.002343785309 	-1.714864805e-07 	0 	0 	0
0.9916359276 	0 	0 	0 	1.458309145 	0.002227349072 	-1.70755974e-07 	0 	0 	0
0.9918914696 	0 	0 	0 	1.444157347 	0.002123903285 	-1.739702784e-07 	0 	0 	0
0.9921470154 	0 	0 	0 	1.429232553 	0.002020930384 	-1.624303031e-07 	0 	0 	0
0.9924025651 	0 	0 	0 	1.413452079 	0.001920026618 	-1.542414744e-07 	0 	0 	0
0.9926581187 	0 	0 	0 	1.39672968 	0.001819670387 	-1.530712617e-07 	0 	0 	0
0.9929136762 	0 	0 	0 	1.378971207 	0.00171999814 	-1.47772611e-07 	0 	0 	0
0.9931692375 	0 	0 	0 	1.360069946 	0.001621292271 	-1.42064136e-07 	0 	0 	0
0.9934248028 	0 	0 	0 	1.33990383 	0.00152361469 	-1.361768054e-07 	0 	0 	0
0.9936803719 	0 	0 	0 	1.31833236 	0.001427019569 	-1.300898773e-07 	0 	0 	0
0.9939359449 	0 	0 	0 	1.29519301 	0.001331576166 	-1.237695542e-07 	0 	0 	0
0.9941915218 	0 	0 	0 	1.270297036 	0.001237364602 	-1.172344833e-07 	0 	0 	0
0.9944471026 	0 	0 	0 	1.24342428 	0.001144475683 	-1.105078075e-07 	0 	0 	0
0.9947026873 	0 	0 	0 	1.21431718 	0.001053016512 	-1.036122485e-07 	0 	0 	0
0.9949582759 	0 	0 	0 	1.182674784 	0.0009630738204 	-9.658100815e-08 	0 	0 	0
0.9952138683 	0 	0 	0 	1.148145993 	0.0008746006301 	-8.947012108e-08 	0 	0 	0
0.9954694647 	0 	0 	0 	1.110321033 	0.0007875866576 	-8.230005205e-08 	0 	0 	0
0.9957250649 	0 	0 	0 	1.06872441 	0.0007063779524 	-7.417914222e-08 	0 	0 	0
0.995980669 	0 	0 	0 	1.022813665 	0.0006337222443 	-6.643069308e-08 	0 	0 	0
0.996236277 	0 	0 	0 	0.9719650184 	0.0005481918592 	-6.165685343e-08 	0 	0 	0
0.9964918889 	0 	0 	0 	0.9154309274 	0.0004483471306 	-5.66003323e-08 	0 	0 	0
0.9967475047 	0 	0 	0 	0.8523577823 	0.0003627335524 	-4.856038143e-08 	0 	0 	0
0.9970031244 	0 	0 	0 	0.7819296134 	0.0002824345978 	-3.849242331e-08 	0 	0 	0
0.9972587479 	0 	0 	0 	0.7035592704 	0.0002072317164 	-2.659657371e-08 	0 	0 	0
0.9975143753 	0 	0 	0 	0.6171596644 	0.0001641002207 	-1.691939898e-08 	0 	0 	0
0.9977700067 	0 	0 	0 	0.5234666287 	0.0001476965579 	-1.429650161e-08 	0 	0 	0
0.9980256419 	0 	0 	0 	0.4240684135 	0.0001240512642 	-1.46219935e-08 	0 	0 	0
0.998281281 	0 	0 	0 	0.3208799199 	7.815831531e-05 	-1.098163969e-08 	0 	0 	0
0.998536924 	0 	0 	0 	0.2153925126 	3.252305522e-05 	-4.82365351e-09 	0 	0 	0
0.9987925708 	0 	0 	0 	0.108355682 	1.348091634e-06 	-1.616095563e-09 	0 	0 	0
0.9990482216 	-0.002407110198 	5.857022704e-07 	1.398145358e-10 	0.04524345008 	-9.415601371e-06 	-1.084814523e-09 	72.40517954 	-0.01505402848 	-3.033218316e-06
