0.4709558481 	-0.00652312199 	-6.572290304e-08 	1.623083814e-12 	0.04585753661 	2.785243811e-07 	-4.470181181e-12 	196.2136258 	0.00119060612 	-1.910865058e-08
0.4711314108 	0 	0 	0 	0.1260943114 	-7.530990832e-07 	1.053242004e-11 	0 	0 	0
0.4713069734 	0 	0 	0 	0.251997306 	-9.619073928e-06 	1.448978694e-10 	0 	0 	0
0.471482536 	0 	0 	0 	0.3774046392 	-2.886804306e-05 	3.31275219e-10 	0 	0 	0
0.4716580986 	0 	0 	0 	0.5013814994 	-3.880978395e-05 	8.993299391e-11 	0 	0 	0
0.4718336613 	0 	0 	0 	0.6220979904 	-1.440284633e-05 	-7.675663553e-10 	0 	0 	0
0.4720092239 	0 	0 	0 	0.7371354018 	3.258304884e-05 	-1.561223374e-09 	0 	0 	0
0.4721847865 	0 	0 	0 	0.844323491 	6.35452015e-05 	-1.719003838e-09 	0 	0 	0
0.4723603491 	0 	0 	0 	0.942430142 	6.444336109e-05 	-1.555382874e-09 	0 	0 	0
0.4725359118 	0 	0 	0 	1.031246255 	5.153869375e-05 	-1.555345234e-09 	0 	0 	0
0.4727114744 	0 	0 	0 	1.111262033 	4.115625836e-05 	-1.79228445e-09 	0 	0 	0
0.472887037 	0 	0 	0 	1.183302747 	4.232753079e-05 	-2.465254942e-09 	0 	0 	0
0.4730625996 	0 	0 	0 	1.248286778 	4.577200926e-05 	-2.591678923e-09 	0 	0 	0
0.4732381623 	0 	0 	0 	1.30711865 	4.198959341e-05 	-2.476084828e-09 	0 	0 	0
0.4734137249 	0 	0 	0 	1.360630077 	4.648046879e-05 	-3.443962629e-09 	0 	0 	0
0.4735892875 	0 	0 	0 	1.409524054 	5.967475347e-05 	-4.069627782e-09 	0 	0 	0
0.4737648501 	0 	0 	0 	1.454378803 	6.894106335e-05 	-4.192207734e-09 	0 	0 	0
0.4739404128 	0 	0 	0 	1.495687752 	7.552985661e-05 	-4.597878679e-09 	0 	0 	0
0.4741159754 	0 	0 	0 	1.533878798 	8.236916857e-05 	-5.018501562e-09 	0 	0 	0
0.474291538 	0 	0 	0 	1.569320247 	8.93737574e-05 	-5.440577953e-09 	0 	0 	0
0.4744671006 	0 	0 	0 	1.602328385 	9.643187449e-05 	-5.867311312e-09 	0 	0 	0
0.4746426632 	0 	0 	0 	1.6331751 	0.000103523511 	-6.302603927e-09 	0 	0 	0
0.4748182259 	0 	0 	0 	1.662094564 	0.000110645118 	-6.747129476e-09 	0 	0 	0
0.4749937885 	0 	0 	0 	1.6892892 	0.0001178132881 	-7.194754559e-09 	0 	0 	0
0.4751693511 	0 	0 	0 	1.714934545 	0.0001254822813 	-7.550699379e-09 	0 	0 	0
0.4753449137 	0 	0 	0 	1.73918379 	0.0001330575801 	-8.109386925e-09 	0 	0 	0
0.4755204764 	0 	0 	0 	1.762174222 	0.0001395345277 	-8.746303386e-09 	0 	0 	0
0.475696039 	0 	0 	0 	1.784030475 	0.0001464273033 	-9.031501915e-09 	0 	0 	0
0.4758716016 	0 	0 	0 	1.804861001 	0.0001540174356 	-9.448120259e-09 	0 	0 	0
0.4760471642 	0 	0 	0 	1.824756984 	0.0001623619028 	-1.002682913e-08 	0 	0 	0
0.4762227269 	0 	0 	0 	1.846375847 	0.0001721516745 	-1.05766868e-08 	0 	0 	0
0.4764955107 	0 	0 	0 	1.871979982 	0.0001815423343 	-1.127972624e-08 	0 	0 	0
0.4767734216 	0 	0 	0 	1.898828082 	0.0001928307913 	-1.207617463e-08 	0 	0 	0
0.4770565557 	0 	0 	0 	1.924588539 	0.0002062232202 	-1.290327263e-08 	0 	0 	0
0.4773450114 	0 	0 	0 	1.94936039 	0.0002191719698 	-1.375753266e-08 	0 	0 	0
0.4776388886 	0 	0 	0 	1.973231352 	0.000232495185 	-1.464046392e-08 	0 	0 	0
0.4779382892 	0 	0 	0 	1.996279499 	0.0002461919353 	-1.555296043e-08 	0 	0 	0
0.4782433171 	0 	0 	0 	2.018573965 	0.0002602727463 	-1.649582251e-08 	0 	0 	0
0.4785540779 	0 	0 	0 	2.040176252 	0.000274757512 	-1.746990726e-08 	0 	0 	0
0.4788706795 	0 	0 	0 	2.061141274 	0.0002896555796 	-1.847604541e-08 	0 	0 	0
0.4791932316 	0 	0 	0 	2.081518238 	0.0003049779723 	-1.95150893e-08 	0 	0 	0
0.4795218461 	0 	0 	0 	2.101351378 	0.0003207362054 	-2.058791717e-08 	0 	0 	0
0.4798566368 	0 	0 	0 	2.120680581 	0.0003369421957 	-2.169543369e-08 	0 	0 	0
0.48019772 	0 	0 	0 	2.139541912 	0.0003536083347 	-2.283857087e-08 	0 	0 	0
0.4805452138 	0 	0 	0 	2.157968075 	0.0003707474726 	-2.401828823e-08 	0 	0 	0
0.4808992388 	0 	0 	0 	2.175988794 	0.0003883729425 	-2.523557342e-08 	0 	0 	0
0.4812599177 	0 	0 	0 	2.19363115 	0.0004064985834 	-2.649144169e-08 	0 	0 	0
0.4816273755 	0 	0 	0 	2.210919869 	0.0004251387609 	-2.778693629e-08 	0 	0 	0
0.4820017397 	0 	0 	0 	2.227877577 	0.0004443083886 	-2.912312974e-08 	0 	0 	0
0.48238314 	0 	0 	0 	2.244525013 	0.0004640229484 	-3.050112458e-08 	0 	0 	0
0.4827717088 	0 	0 	0 	2.260881226 	0.0004842985093 	-3.192205487e-08 	0 	0 	0
0.4831675807 	0 	0 	0 	2.276963737 	0.0005051517462 	-3.338708895e-08 	0 	0 	0
0.4835708931 	0 	0 	0 	2.292788692 	0.0005265999581 	-3.489743332e-08 	0 	0 	0
0.4839817856 	0 	0 	0 	2.308370989 	0.000548661086 	-3.645433828e-08 	0 	0 	0
0.4844004009 	0 	0 	0 	2.323724394 	0.0005713537306 	-3.805910566e-08 	0 	0 	0
0.4848268841 	0 	0 	0 	2.338861641 	0.0005946971684 	-3.971309909e-08 	0 	0 	0
0.485261383 	0 	0 	0 	2.35379453 	0.0006187113689 	-4.141775642e-08 	0 	0 	0
0.4857040484 	0 	0 	0 	2.368533998 	0.0006434170089 	-4.317460376e-08 	0 	0 	0
0.4861550336 	0 	0 	0 	2.383090201 	0.0006688354885 	-4.498526986e-08 	0 	0 	0
0.4866144951 	0 	0 	0 	2.397472571 	0.0006949889415 	-4.685146343e-08 	0 	0 	0
0.4870825921 	0 	0 	0 	2.411689879 	0.0007219002022 	-4.877496872e-08 	0 	0 	0
0.487559487 	0 	0 	0 	2.425750283 	0.0007495927651 	-5.075749253e-08 	0 	0 	0
0.4880453452 	0 	0 	0 	2.439661376 	0.0007780903507 	-5.279891659e-08 	0 	0 	0
0.4885403351 	0 	0 	0 	2.453430227 	0.000807414964 	-5.490258e-08 	0 	0 	0
0.4890446283 	0 	0 	0 	2.46706343 	0.0008375919337 	-5.706503711e-08 	0 	0 	0
0.4895583997 	0 	0 	0 	2.48056718 	0.0008686333711 	-5.92367117e-08 	0 	0 	0
0.4900818274 	0 	0 	0 	2.493947491 	0.0009005429002 	-6.184555549e-08 	0 	0 	0
0.4906150929 	0 	0 	0 	2.5072102 	0.0009338491314 	-6.423470247e-08 	0 	0 	0
0.4911583811 	0 	0 	0 	2.520361536 	0.0009678802041 	-6.602733817e-08 	0 	0 	0
0.4917118805 	0 	0 	0 	2.533411571 	0.001002084178 	-6.880033048e-08 	0 	0 	0
0.4922757829 	0 	0 	0 	2.546374071 	0.001038053956 	-7.198148087e-08 	0 	0 	0
0.4928502838 	0 	0 	0 	2.559260229 	0.001075592724 	-7.461924966e-08 	0 	0 	0
0.4934355824 	0 	0 	0 	2.572076946 	0.001113937814 	-7.733269213e-08 	0 	0 	0
0.4940318817 	0 	0 	0 	2.584829389 	0.00115351088 	-8.020718641e-08 	0 	0 	0
0.4946393885 	0 	0 	0 	2.597521783 	0.00119436504 	-8.315777594e-08 	0 	0 	0
0.4952583133 	0 	0 	0 	2.610157522 	0.001236532406 	-8.619636419e-08 	0 	0 	0
0.4958888709 	0 	0 	0 	2.622739489 	0.001280048717 	-8.933937234e-08 	0 	0 	0
0.4965312797 	0 	0 	0 	2.635270258 	0.001324954771 	-9.259307638e-08 	0 	0 	0
0.4971857627 	0 	0 	0 	2.647752201 	0.001371291724 	-9.595654336e-08 	0 	0 	0
0.4978525466 	0 	0 	0 	2.660187552 	0.001419101077 	-9.942612143e-08 	0 	0 	0
0.4985318627 	0 	0 	0 	2.672578436 	0.001468424995 	-1.029986284e-07 	0 	0 	0
0.4992239466 	0 	0 	0 	2.68492689 	0.001519306597 	-1.066732449e-07 	0 	0 	0
0.4999290382 	0 	0 	0 	2.697234878 	0.001571790229 	-1.104519912e-07 	0 	0 	0
0.5006473819 	0 	0 	0 	2.709504308 	0.00162592173 	-1.143391211e-07 	0 	0 	0
0.501379227 	0 	0 	0 	2.721737065 	0.001681748658 	-1.183400862e-07 	0 	0 	0
0.502124827 	0 	0 	0 	2.733935075 	0.001739320448 	-1.224606633e-07 	0 	0 	0
0.5028844406 	0 	0 	0 	2.7461004 	0.001798688136 	-1.267065e-07 	0 	0 	0
0.5036583311 	0 	0 	0 	2.758235402 	0.001859904016 	-1.310830684e-07 	0 	0 	0
0.5044467669 	0 	0 	0 	2.770342969 	0.001923027703 	-1.355965256e-07 	0 	0 	0
0.5052500214 	0 	0 	0 	2.782426777 	0.001988147823 	-1.402563768e-07 	0 	0 	0
0.506068373 	0 	0 	0 	2.796028522 	0.002063991682 	-1.456871951e-07 	0 	0 	0
0.507324668 	0 	0 	0 	2.812555851 	0.002159814914 	-1.525383548e-07 	0 	0 	0
0.5085949819 	0 	0 	0 	2.830294333 	0.002267336216 	-1.601801758e-07 	0 	0 	0
0.5098794711 	0 	0 	0 	2.847712683 	0.002377887868 	-1.678988413e-07 	0 	0 	0
0.5111782938 	0 	0 	0 	2.864811806 	0.002491283204 	-1.755515292e-07 	0 	0 	0
0.5124916099 	0 	0 	0 	2.881575802 	0.002607255886 	-1.829738788e-07 	0 	0 	0
0.5138195812 	0 	0 	0 	2.897961352 	0.002725346604 	-1.898227597e-07 	0 	0 	0
0.5151623712 	0 	0 	0 	2.913889316 	0.002844660842 	-1.955371755e-07 	0 	0 	0
0.5165201452 	0 	0 	0 	2.929246212 	0.002963751617 	-1.99647298e-07 	0 	0 	0
0.5178930705 	0 	0 	0 	2.943899357 	0.003080850498 	-2.022388218e-07 	0 	0 	0
0.5192813161 	0 	0 	0 	2.957722732 	0.0031946608 	-2.077758552e-07 	0 	0 	0
0.520685053 	0 	0 	0 	2.970622894 	0.003310388721 	-2.074205083e-07 	0 	0 	0
0.522104454 	0 	0 	0 	2.982576492 	0.00341175838 	-1.9605289e-07 	0 	0 	0
0.523539694 	0 	0 	0 	2.993685299 	0.003496797491 	-2.014948929e-07 	0 	0 	0
0.5249909497 	0 	0 	0 	3.004110826 	0.003596124172 	-2.194041037e-07 	0 	0 	0
0.5264583998 	0 	0 	0 	3.013940187 	0.0036965937 	-2.22011662e-07 	0 	0 	0
0.527942225 	0 	0 	0 	3.023193719 	0.003785858888 	-2.210419084e-07 	0 	0 	0
0.5294426081 	0 	0 	0 	3.031883144 	0.003874043329 	-2.242289025e-07 	0 	0 	0
0.5309597337 	0 	0 	0 	3.040018199 	0.003959513734 	-2.251932863e-07 	0 	0 	0
0.5324937889 	0 	0 	0 	3.047606395 	0.00404192065 	-2.252432467e-07 	0 	0 	0
0.5340449624 	0 	0 	0 	3.054656774 	0.004120982762 	-2.245772835e-07 	0 	0 	0
0.5356134452 	0 	0 	0 	3.061180275 	0.004196425024 	-2.232721765e-07 	0 	0 	0
0.5371994306 	0 	0 	0 	3.067189815 	0.004268051165 	-2.213747138e-07 	0 	0 	0
0.5388031139 	0 	0 	0 	3.07270027 	0.004335691092 	-2.189108351e-07 	0 	0 	0
0.5404246925 	0 	0 	0 	3.077728363 	0.004399203149 	-2.159002955e-07 	0 	0 	0
0.5420643661 	0 	0 	0 	3.08229244 	0.004458476328 	-2.123714429e-07 	0 	0 	0
0.5437223366 	0 	0 	0 	3.086412176 	0.004513432801 	-2.083676261e-07 	0 	0 	0
0.5453988083 	0 	0 	0 	3.090108226 	0.004564018602 	-2.039250914e-07 	0 	0 	0
0.5470939875 	0 	0 	0 	3.093401953 	0.004610229012 	-1.991505068e-07 	0 	0 	0
0.5488080831 	0 	0 	0 	3.096315297 	0.004652105349 	-1.94072492e-07 	0 	0 	0
0.5505413061 	0 	0 	0 	3.09887158 	0.004689651918 	-1.886602968e-07 	0 	0 	0
0.5522938699 	0 	0 	0 	3.101097629 	0.00472296637 	-1.832058107e-07 	0 	0 	0
0.5540659904 	0 	0 	0 	3.103024068 	0.004752356645 	-1.779385473e-07 	0 	0 	0
0.5558578859 	0 	0 	0 	3.104681984 	0.004778133712 	-1.727885504e-07 	0 	0 	0
0.5576697768 	0 	0 	0 	3.106099799 	0.004800536095 	-1.677683813e-07 	0 	0 	0
0.5595018865 	0 	0 	0 	3.107302607 	0.004819813134 	-1.62929107e-07 	0 	0 	0
0.5613544406 	0 	0 	0 	3.108312467 	0.00483620538 	-1.58263367e-07 	0 	0 	0
0.563227667 	0 	0 	0 	3.109148713 	0.004849924314 	-1.537652266e-07 	0 	0 	0
0.5651217966 	0 	0 	0 	3.109828244 	0.004861160267 	-1.494287971e-07 	0 	0 	0
0.5670370626 	0 	0 	0 	3.110365805 	0.004870083781 	-1.452467483e-07 	0 	0 	0
0.5689737009 	0 	0 	0 	3.110774238 	0.004876847103 	-1.412105202e-07 	0 	0 	0
0.5709319499 	0 	0 	0 	3.111064717 	0.004881585495 	-1.373110447e-07 	0 	0 	0
0.5729120508 	0 	0 	0 	3.11124695 	0.004884418733 	-1.3353875e-07 	0 	0 	0
0.5749142474 	0 	0 	0 	3.111329361 	0.004885452262 	-1.298852419e-07 	0 	0 	0
0.5769387863 	0 	0 	0 	3.111319281 	0.004884779098 	-1.263393533e-07 	0 	0 	0
0.5789859169 	0 	0 	0 	3.111223028 	0.004882480751 	-1.228896674e-07 	0 	0 	0
0.5810558911 	0 	0 	0 	3.111046037 	0.004878627774 	-1.195301334e-07 	0 	0 	0
0.583148964 	0 	0 	0 	3.110793017 	0.004873281626 	-1.16254073e-07 	0 	0 	0
0.5852653933 	0 	0 	0 	3.110468012 	0.004866495459 	-1.13053498e-07 	0 	0 	0
0.5874054395 	0 	0 	0 	3.110074483 	0.004858314766 	-1.099213545e-07 	0 	0 	0
0.5895693664 	0 	0 	0 	3.109615381 	0.004848778206 	-1.068513832e-07 	0 	0 	0
0.5917574402 	0 	0 	0 	3.1090932 	0.004837918244 	-1.038380946e-07 	0 	0 	0
0.5939699306 	0 	0 	0 	3.108510033 	0.004825761747 	-1.008767443e-07 	0 	0 	0
0.5962071099 	0 	0 	0 	3.107867622 	0.004812330457 	-9.796297947e-08 	0 	0 	0
0.5984692536 	0 	0 	0 	3.107167388 	0.004797641533 	-9.509279853e-08 	0 	0 	0
0.6007566404 	0 	0 	0 	3.106410474 	0.004781707356 	-9.225923855e-08 	0 	0 	0
0.6030695519 	0 	0 	0 	3.105597769 	0.004764538528 	-8.946233831e-08 	0 	0 	0
0.6054082729 	0 	0 	0 	3.104729942 	0.004746138482 	-8.668571265e-08 	0 	0 	0
0.6077730914 	0 	0 	0 	3.103807462 	0.004726509754 	-8.392565407e-08 	0 	0 	0
0.6101642987 	0 	0 	0 	3.102830609 	0.004705654038 	-8.118383599e-08 	0 	0 	0
0.6125821893 	0 	0 	0 	3.101799497 	0.004683566222 	-7.844941582e-08 	0 	0 	0
0.6150270608 	0 	0 	0 	3.100714088 	0.004660241067 	-7.572580676e-08 	0 	0 	0
0.6174992144 	0 	0 	0 	3.099574209 	0.004635670807 	-7.301012443e-08 	0 	0 	0
0.6199989545 	0 	0 	0 	3.098379563 	0.004609845375 	-7.029979065e-08 	0 	0 	0
0.622526589 	0 	0 	0 	3.097129738 	0.004582752619 	-6.75914294e-08 	0 	0 	0
0.625082429 	0 	0 	0 	3.09582422 	0.004554378469 	-6.488153254e-08 	0 	0 	0
0.6276667894 	0 	0 	0 	3.094462398 	0.00452470707 	-6.216673375e-08 	0 	0 	0
0.6302799884 	0 	0 	0 	3.093043577 	0.004493720913 	-5.944399157e-08 	0 	0 	0
0.6329223478 	0 	0 	0 	3.091566979 	0.004461400953 	-5.671061636e-08 	0 	0 	0
0.6355941931 	0 	0 	0 	3.090031758 	0.004427726723 	-5.396422207e-08 	0 	0 	0
0.6382958531 	0 	0 	0 	3.088436999 	0.004392676435 	-5.120265286e-08 	0 	0 	0
0.6410276607 	0 	0 	0 	3.086781728 	0.004356227083 	-4.84239184e-08 	0 	0 	0
0.6437899523 	0 	0 	0 	3.085064919 	0.004318354539 	-4.56261533e-08 	0 	0 	0
0.646583068 	0 	0 	0 	3.083285496 	0.004279033664 	-4.280760403e-08 	0 	0 	0
0.6494073518 	0 	0 	0 	3.081442342 	0.004238238416 	-3.99666405e-08 	0 	0 	0
0.6522631514 	0 	0 	0 	3.079534303 	0.004195941981 	-3.710178734e-08 	0 	0 	0
0.6551508186 	0 	0 	0 	3.077560195 	0.004152116904 	-3.421176981e-08 	0 	0 	0
0.658070709 	0 	0 	0 	3.075518813 	0.004106735253 	-3.129557082e-08 	0 	0 	0
0.6610231822 	0 	0 	0 	3.073408931 	0.0040597688 	-2.835249744e-08 	0 	0 	0
0.6640086017 	0 	0 	0 	3.071229316 	0.004011189221 	-2.538225649e-08 	0 	0 	0
0.6670273351 	0 	0 	0 	3.068978733 	0.003960968344 	-2.238504075e-08 	0 	0 	0
0.6700797543 	0 	0 	0 	3.066655954 	0.003909078419 	-1.936162897e-08 	0 	0 	0
0.6731662352 	0 	0 	0 	3.064259766 	0.003855492437 	-1.631349924e-08 	0 	0 	0
0.6762871577 	0 	0 	0 	3.061788985 	0.003800184502 	-1.324296545e-08 	0 	0 	0
0.6794429063 	0 	0 	0 	3.059242466 	0.003743130258 	-1.01533384e-08 	0 	0 	0
0.6826338695 	0 	0 	0 	3.056619115 	0.00368430738 	-7.049111217e-09 	0 	0 	0
0.6858604404 	0 	0 	0 	3.053917907 	0.003623696118 	-3.936186913e-09 	0 	0 	0
0.6891230163 	0 	0 	0 	3.051137902 	0.003561279932 	-8.221439996e-10 	0 	0 	0
0.6924219988 	0 	0 	0 	3.04827826 	0.003497046206 	2.283453294e-09 	0 	0 	0
0.6957577944 	0 	0 	0 	3.045338268 	0.003430987021 	5.368684469e-09 	0 	0 	0
0.6991308138 	0 	0 	0 	3.042317355 	0.003363100002 	8.41882749e-09 	0 	0 	0
0.7025414724 	0 	0 	0 	3.039215124 	0.003293389217 	1.141578131e-08 	0 	0 	0
0.7059901901 	0 	0 	0 	3.03603137 	0.0032218661 	1.433715965e-08 	0 	0 	0
0.7094773917 	0 	0 	0 	3.032766112 	0.003148550355 	1.715448453e-08 	0 	0 	0
0.7130035066 	0 	0 	0 	3.029419611 	0.003073470747 	1.982957557e-08 	0 	0 	0
0.7165689691 	0 	0 	0 	3.025992399 	0.002996665702 	2.230692141e-08 	0 	0 	0
0.7201742182 	0 	0 	0 	3.022485286 	0.002918183621 	2.450180667e-08 	0 	0 	0
0.7238196978 	0 	0 	0 	3.018899366 	0.002838081575 	2.630577455e-08 	0 	0 	0
0.727505857 	0 	0 	0 	3.015235993 	0.002756433281 	2.757272866e-08 	0 	0 	0
0.7312331497 	0 	0 	0 	3.011496694 	0.002673333408 	2.810497217e-08 	0 	0 	0
0.7350020349 	0 	0 	0 	3.007693084 	0.002589118878 	2.756039533e-08 	0 	0 	0
0.7387709215 	0 	0 	0 	3.003859507 	0.002505090376 	2.315650244e-08 	0 	0 	0
0.7424982157 	0 	0 	0 	3.000030642 	0.002421408513 	1.464492669e-08 	0 	0 	0
0.7461843763 	0 	0 	0 	2.996217337 	0.002337717521 	1.728884906e-09 	0 	0 	0
0.7498298574 	0 	0 	0 	2.992423795 	0.002254536797 	-2.028823336e-08 	0 	0 	0
0.7534351078 	0 	0 	0 	2.988662815 	0.002169822181 	-4.005399331e-08 	0 	0 	0
0.7570005716 	0 	0 	0 	2.984945452 	0.002082754858 	-4.536074912e-08 	0 	0 	0
0.7605266877 	0 	0 	0 	2.981267865 	0.001995460174 	-3.540299293e-08 	0 	0 	0
0.7640138905 	0 	0 	0 	2.97760695 	0.001910499875 	-5.74705927e-09 	0 	0 	0
0.7674626093 	0 	0 	0 	2.973927382 	0.001831698616 	3.304933141e-08 	0 	0 	0
0.770873269 	0 	0 	0 	2.970204389 	0.001760569598 	5.583208028e-08 	0 	0 	0
0.7742462894 	0 	0 	0 	2.966446052 	0.00169385524 	4.205260091e-08 	0 	0 	0
0.777582086 	0 	0 	0 	2.96269479 	0.001625049321 	-1.165118911e-08 	0 	0 	0
0.7808810695 	0 	0 	0 	2.959004871 	0.001547703736 	-8.236436709e-08 	0 	0 	0
0.7841436462 	0 	0 	0 	2.955406626 	0.00146002194 	-1.312674808e-07 	0 	0 	0
0.787370218 	0 	0 	0 	2.951881203 	0.001366921721 	-1.249175793e-07 	0 	0 	0
0.7905611821 	0 	0 	0 	2.94836447 	0.001278246315 	-5.190842282e-08 	0 	0 	0
0.7937169314 	0 	0 	0 	2.944778417 	0.001204449416 	7.061471132e-08 	0 	0 	0
0.7968378547 	0 	0 	0 	2.941073273 	0.001151677665 	1.971410504e-07 	0 	0 	0
0.7999243362 	0 	0 	0 	2.937260662 	0.001117836641 	2.672387157e-07 	0 	0 	0
0.8029767561 	0 	0 	0 	2.933419291 	0.001091902503 	2.346565808e-07 	0 	0 	0
0.8059954902 	0 	0 	0 	2.929661918 	0.001058198801 	9.91962613e-08 	0 	0 	0
0.8089809102 	0 	0 	0 	2.926077722 	0.001003362798 	-9.681154553e-08 	0 	0 	0
0.8119333839 	0 	0 	0 	2.922686144 	0.0009224515094 	-2.718357251e-07 	0 	0 	0
0.8148532749 	0 	0 	0 	2.919439195 	0.0008232819385 	-3.458692629e-07 	0 	0 	0
0.8177409426 	0 	0 	0 	2.916266475 	0.0007146536407 	-3.443737277e-07 	0 	0 	0
0.8205967427 	0 	0 	0 	2.913094869 	0.000601352776 	-3.009623514e-07 	0 	0 	0
0.8234210268 	0 	0 	0 	2.909827268 	0.0004959149766 	-1.668307371e-07 	0 	0 	0
0.8262141429 	0 	0 	0 	2.906353277 	0.0004126775204 	5.953369105e-08 	0 	0 	0
0.8289764348 	0 	0 	0 	2.902594365 	0.0003618176848 	3.185516675e-07 	0 	0 	0
0.8317082427 	0 	0 	0 	2.898549213 	0.0003472665499 	5.36595293e-07 	0 	0 	0
0.8344099031 	0 	0 	0 	2.894329176 	0.0003592309686 	6.105862102e-07 	0 	0 	0
0.8370817486 	0 	0 	0 	2.89015049 	0.0003733235767 	4.91532062e-07 	0 	0 	0
0.8397241082 	0 	0 	0 	2.886249622 	0.0003630683959 	2.311712396e-07 	0 	0 	0
0.8423373074 	0 	0 	0 	2.882749648 	0.0003119845751 	-4.535036811e-08 	0 	0 	0
0.844921668 	0 	0 	0 	2.879589561 	0.0002245394503 	-2.004472455e-07 	0 	0 	0
0.8474775082 	0 	0 	0 	2.876605177 	0.000122305854 	-2.234832658e-07 	0 	0 	0
0.8500051427 	0 	0 	0 	2.873674253 	1.934438365e-05 	-1.951065523e-07 	0 	0 	0
0.8525048829 	0 	0 	0 	2.870742224 	-7.911257735e-05 	-1.160678891e-07 	0 	0 	0
0.8549770366 	0 	0 	0 	2.867730054 	-0.000163877853 	1.478514571e-07 	0 	0 	0
0.8574219081 	0 	0 	0 	2.864479397 	-0.0002139947179 	6.228263404e-07 	0 	0 	0
0.8598397987 	0 	0 	0 	2.860838279 	-0.0002098212357 	1.051115374e-06 	0 	0 	0
0.862231006 	0 	0 	0 	2.856810971 	-0.0001592721711 	1.121575142e-06 	0 	0 	0
0.8645958245 	0 	0 	0 	2.852612327 	-9.989608657e-05 	7.248321118e-07 	0 	0 	0
0.8669345455 	0 	0 	0 	2.848563201 	-7.872367505e-05 	2.128438498e-08 	0 	0 	0
0.8692474569 	0 	0 	0 	2.844892635 	-0.0001251374305 	-6.277078451e-07 	0 	0 	0
0.8715348435 	0 	0 	0 	2.841603206 	-0.000231457493 	-9.325005091e-07 	0 	0 	0
0.8737969871 	0 	0 	0 	2.838505867 	-0.0003634866961 	-8.841290497e-07 	0 	0 	0
0.8760341663 	0 	0 	0 	2.835345937 	-0.0004872555257 	-5.246274433e-07 	0 	0 	0
0.8782466565 	0 	0 	0 	2.831895482 	-0.0005728576437 	8.321962305e-08 	0 	0 	0
0.8804347301 	0 	0 	0 	2.828034968 	-0.0006001564371 	6.631534558e-07 	0 	0 	0
0.8825986568 	0 	0 	0 	2.823825665 	-0.000577816432 	9.250717528e-07 	0 	0 	0
0.8847387028 	0 	0 	0 	2.819498859 	-0.0005392815463 	7.712463775e-07 	0 	0 	0
0.8868551318 	0 	0 	0 	2.815337553 	-0.0005235657977 	2.929882923e-07 	0 	0 	0
0.8889482045 	0 	0 	0 	2.811517131 	-0.0005561621051 	-2.350509851e-07 	0 	0 	0
0.8910181784 	0 	0 	0 	2.808021097 	-0.0006339606075 	-5.606298025e-07 	0 	0 	0
0.8930653087 	0 	0 	0 	2.804697169 	-0.0007347768929 	-6.955924339e-07 	0 	0 	0
0.8950898473 	0 	0 	0 	2.801361684 	-0.0008389615399 	-6.812478802e-07 	0 	0 	0
0.8970920436 	0 	0 	0 	2.797840468 	-0.0009284150272 	-4.714400173e-07 	0 	0 	0
0.8990721441 	0 	0 	0 	2.794007072 	-0.0009849537419 	-1.606125839e-07 	0 	0 	0
0.9010303927 	0 	0 	0 	2.7898568 	-0.001005106254 	8.019951007e-08 	0 	0 	0
0.9029670306 	0 	0 	0 	2.785526447 	-0.001003407924 	1.60536129e-07 	0 	0 	0
0.9048822962 	0 	0 	0 	2.781216215 	-0.0010014963 	7.743136174e-08 	0 	0 	0
0.9067764254 	0 	0 	0 	2.777075963 	-0.001018019318 	-9.986032177e-08 	0 	0 	0
0.9086496514 	0 	0 	0 	2.773129431 	-0.001059897849 	-2.394547822e-07 	0 	0 	0
0.910502205 	0 	0 	0 	2.769287239 	-0.001118429789 	-2.675612168e-07 	0 	0 	0
0.9123343142 	0 	0 	0 	2.765437417 	-0.001181591326 	-2.343324299e-07 	0 	0 	0
0.9141462048 	0 	0 	0 	2.761508797 	-0.001243858775 	-1.709941873e-07 	0 	0 	0
0.9159380997 	0 	0 	0 	2.757442286 	-0.001300671476 	-2.681050784e-08 	0 	0 	0
0.9177102197 	0 	0 	0 	2.753137118 	-0.001342586986 	2.873623529e-07 	0 	0 	0
0.9194627831 	0 	0 	0 	2.748458304 	-0.001353459538 	7.591520235e-07 	0 	0 	0
0.9211960055 	0 	0 	0 	2.743300464 	-0.001320679301 	1.243366996e-06 	0 	0 	0
0.9229101006 	0 	0 	0 	2.737650787 	-0.001246257051 	1.584395962e-06 	0 	0 	0
0.9246052793 	0 	0 	0 	2.731605513 	-0.001144836521 	1.651616853e-06 	0 	0 	0
0.9262817504 	0 	0 	0 	2.725341593 	-0.001039541356 	1.394357459e-06 	0 	0 	0
0.9279397204 	0 	0 	0 	2.719046624 	-0.0009549865204 	8.935361107e-07 	0 	0 	0
0.9295793934 	0 	0 	0 	2.712833827 	-0.0009078948214 	3.040428875e-07 	0 	0 	0
0.9312009714 	0 	0 	0 	2.7067038 	-0.0009020134553 	-2.364950285e-07 	0 	0 	0
0.9328046541 	0 	0 	0 	2.700567474 	-0.0009304109363 	-6.410216014e-07 	0 	0 	0
0.9343906389 	0 	0 	0 	2.694294105 	-0.0009802366245 	-8.777249363e-07 	0 	0 	0
0.9359591211 	0 	0 	0 	2.687753628 	-0.001037539243 	-9.467249379e-07 	0 	0 	0
0.937510294 	0 	0 	0 	2.680838958 	-0.001090180828 	-8.784139103e-07 	0 	0 	0
0.9390443485 	0 	0 	0 	2.673478422 	-0.001129351407 	-7.281384095e-07 	0 	0 	0
0.9405614735 	0 	0 	0 	2.665646471 	-0.001151210784 	-5.530733283e-07 	0 	0 	0
0.942061856 	0 	0 	0 	2.657355434 	-0.001156046216 	-3.905696982e-07 	0 	0 	0
0.9435456805 	0 	0 	0 	2.648633467 	-0.0011465219 	-2.510574961e-07 	0 	0 	0
0.9450131299 	0 	0 	0 	2.639505741 	-0.001125696648 	-1.312937748e-07 	0 	0 	0
0.946464385 	0 	0 	0 	2.629989927 	-0.001096148117 	-2.487176186e-08 	0 	0 	0
0.9478996243 	0 	0 	0 	2.620097413 	-0.001059951719 	6.77689968e-08 	0 	0 	0
0.9493190246 	0 	0 	0 	2.609834481 	-0.001018880843 	1.451722344e-07 	0 	0 	0
0.9507227608 	0 	0 	0 	2.599203902 	-0.0009744522411 	2.024160727e-07 	0 	0 	0
0.9521110058 	0 	0 	0 	2.588206777 	-0.0009281181674 	2.344917419e-07 	0 	0 	0
0.9534839303 	0 	0 	0 	2.576843765 	-0.0008813183351 	2.395066719e-07 	0 	0 	0
0.9548417036 	0 	0 	0 	2.565115371 	-0.0008353907027 	2.208193932e-07 	0 	0 	0
0.9561844929 	0 	0 	0 	2.553021028 	-0.0007913872201 	1.86812651e-07 	0 	0 	0
0.9575124634 	0 	0 	0 	2.54055706 	-0.0007498842817 	1.48188565e-07 	0 	0 	0
0.9588257788 	0 	0 	0 	2.527715293 	-0.0007108974207 	1.142682502e-07 	0 	0 	0
0.9601246008 	0 	0 	0 	2.51448308 	-0.0006739645038 	9.037018593e-08 	0 	0 	0
0.9614090893 	0 	0 	0 	2.500844667 	-0.0006383660215 	7.733221313e-08 	0 	0 	0
0.9626794024 	0 	0 	0 	2.486783143 	-0.0006033934428 	7.275004258e-08 	0 	0 	0
0.9639356968 	0 	0 	0 	2.47352724 	-0.0005714867616 	7.262164674e-08 	0 	0 	0
0.9647540487 	0 	0 	0 	2.462507173 	-0.0005455648803 	7.322806862e-08 	0 	0 	0
0.9655573034 	0 	0 	0 	2.452639029 	-0.0005228448546 	7.298446577e-08 	0 	0 	0
0.9663457395 	0 	0 	0 	2.442687011 	-0.0005005601973 	7.18153845e-08 	0 	0 	0
0.9671196303 	0 	0 	0 	2.432656308 	-0.0004788701378 	6.98688485e-08 	0 	0 	0
0.9678792442 	0 	0 	0 	2.422551908 	-0.0004579001149 	6.745611606e-08 	0 	0 	0
0.9686248445 	0 	0 	0 	2.412378051 	-0.000437730941 	6.48730632e-08 	0 	0 	0
0.9693566897 	0 	0 	0 	2.402138228 	-0.0004184051267 	6.230061757e-08 	0 	0 	0
0.9700750337 	0 	0 	0 	2.391835349 	-0.0003999444386 	5.978745234e-08 	0 	0 	0
0.9707801255 	0 	0 	0 	2.381471728 	-0.0003823670777 	5.731866288e-08 	0 	0 	0
0.9714722095 	0 	0 	0 	2.371048705 	-0.0003656775628 	5.493348624e-08 	0 	0 	0
0.9721515258 	0 	0 	0 	2.360565994 	-0.0003496954243 	5.368356832e-08 	0 	0 	0
0.9728183099 	0 	0 	0 	2.350020825 	-0.0003343111374 	5.016711356e-08 	0 	0 	0
0.9734727929 	0 	0 	0 	2.339405487 	-0.000320540638 	4.637279901e-08 	0 	0 	0
0.9741152019 	0 	0 	0 	2.328705162 	-0.0003077760455 	4.716961196e-08 	0 	0 	0
0.9747457596 	0 	0 	0 	2.317904245 	-0.0002943571795 	4.588776076e-08 	0 	0 	0
0.9753646845 	0 	0 	0 	2.306994491 	-0.0002814669179 	4.282828249e-08 	0 	0 	0
0.9759721914 	0 	0 	0 	2.295972629 	-0.0002696117248 	4.142122974e-08 	0 	0 	0
0.9765684907 	0 	0 	0 	2.28483583 	-0.0002580972335 	3.981751185e-08 	0 	0 	0
0.9771537895 	0 	0 	0 	2.273581388 	-0.0002470125485 	3.822383199e-08 	0 	0 	0
0.9777282904 	0 	0 	0 	2.262206654 	-0.0002363533752 	3.666656437e-08 	0 	0 	0
0.9782921928 	0 	0 	0 	2.25070876 	-0.0002261070557 	3.514039916e-08 	0 	0 	0
0.9788456922 	0 	0 	0 	2.23908456 	-0.0002162638202 	3.36569682e-08 	0 	0 	0
0.9793889805 	0 	0 	0 	2.227330612 	-0.0002068101649 	3.221923189e-08 	0 	0 	0
0.979922246 	0 	0 	0 	2.215443152 	-0.0001977323297 	3.082853421e-08 	0 	0 	0
0.9804456737 	0 	0 	0 	2.203418082 	-0.0001890166049 	2.948527257e-08 	0 	0 	0
0.9809594451 	0 	0 	0 	2.191250944 	-0.0001806494239 	2.818907512e-08 	0 	0 	0
0.9814637383 	0 	0 	0 	2.1789369 	-0.0001726174529 	2.693913334e-08 	0 	0 	0
0.9819587281 	0 	0 	0 	2.166470701 	-0.0001649076222 	2.573436143e-08 	0 	0 	0
0.9824445862 	0 	0 	0 	2.153846663 	-0.000157507158 	2.457352e-08 	0 	0 	0
0.9829214811 	0 	0 	0 	2.141058629 	-0.00015040361 	2.345530399e-08 	0 	0 	0
0.9833895781 	0 	0 	0 	2.128099937 	-0.0001435848749 	2.237839863e-08 	0 	0 	0
0.9838490396 	0 	0 	0 	2.114963377 	-0.0001370392131 	2.134151146e-08 	0 	0 	0
0.9843000247 	0 	0 	0 	2.101641151 	-0.0001307552624 	2.034338702e-08 	0 	0 	0
0.98474269 	0 	0 	0 	2.088124818 	-0.0001247220459 	1.938281103e-08 	0 	0 	0
0.9851771888 	0 	0 	0 	2.074405246 	-0.0001189289762 	1.845860867e-08 	0 	0 	0
0.9856036719 	0 	0 	0 	2.060472544 	-0.0001133658567 	1.75696396e-08 	0 	0 	0
0.9860222871 	0 	0 	0 	2.046315999 	-0.0001080228798 	1.671479178e-08 	0 	0 	0
0.9864331796 	0 	0 	0 	2.031923995 	-0.0001028906226 	1.5892976e-08 	0 	0 	0
0.9868364919 	0 	0 	0 	2.017283928 	-9.796004064e-05 	1.510312164e-08 	0 	0 	0
0.9872323637 	0 	0 	0 	2.002382109 	-9.322246001e-05 	1.434417363e-08 	0 	0 	0
0.9876209323 	0 	0 	0 	1.987203651 	-8.866956775e-05 	1.361509027e-08 	0 	0 	0
0.9880023326 	0 	0 	0 	1.971732345 	-8.429340105e-05 	1.291484279e-08 	0 	0 	0
0.9883766967 	0 	0 	0 	1.955950517 	-8.008633511e-05 	1.224241659e-08 	0 	0 	0
0.9887441544 	0 	0 	0 	1.939838867 	-7.604106987e-05 	1.159681343e-08 	0 	0 	0
0.9891048331 	0 	0 	0 	1.92337628 	-7.215061551e-05 	1.097705497e-08 	0 	0 	0
0.9894588579 	0 	0 	0 	1.90653962 	-6.840827648e-05 	1.038218735e-08 	0 	0 	0
0.9898063516 	0 	0 	0 	1.88930348 	-6.480763382e-05 	9.811287116e-09 	0 	0 	0
0.9901474347 	0 	0 	0 	1.871639902 	-6.134252544e-05 	9.263467482e-09 	0 	0 	0
0.9904822253 	0 	0 	0 	1.853518055 	-5.800702351e-05 	8.737883764e-09 	0 	0 	0
0.9908108397 	0 	0 	0 	1.834903855 	-5.479540995e-05 	8.233737476e-09 	0 	0 	0
0.9911333916 	0 	0 	0 	1.815759529 	-5.170218028e-05 	7.750277487e-09 	0 	0 	0
0.9914499931 	0 	0 	0 	1.7960431 	-4.872198481e-05 	7.286793939e-09 	0 	0 	0
0.9917607538 	0 	0 	0 	1.775707788 	-4.584971435e-05 	6.842604251e-09 	0 	0 	0
0.9920657815 	0 	0 	0 	1.7547013 	-4.308136349e-05 	6.417021975e-09 	0 	0 	0
0.9923651819 	0 	0 	0 	1.732964996 	-4.040399433e-05 	6.009332839e-09 	0 	0 	0
0.992659059 	0 	0 	0 	1.710432893 	-3.78131508e-05 	5.618836863e-09 	0 	0 	0
0.9929475145 	0 	0 	0 	1.687030425 	-3.531313253e-05 	5.244804092e-09 	0 	0 	0
0.9932306485 	0 	0 	0 	1.662673764 	-3.214920543e-05 	4.886108215e-09 	0 	0 	0
0.9935085592 	0 	0 	0 	1.637268199 	-3.076213325e-05 	4.539072347e-09 	0 	0 	0
0.9937813429 	0 	0 	0 	1.613022034 	-3.014960346e-05 	4.229730767e-09 	0 	0 	0
0.9939569055 	0 	0 	0 	1.592537263 	-2.734936016e-05 	3.983077195e-09 	0 	0 	0
0.9941324681 	0 	0 	0 	1.573677106 	-2.539335606e-05 	3.77159085e-09 	0 	0 	0
0.9943080307 	0 	0 	0 	1.553926275 	-2.449006774e-05 	3.573127576e-09 	0 	0 	0
0.9944835934 	0 	0 	0 	1.533202589 	-2.230005392e-05 	3.265977924e-09 	0 	0 	0
0.994659156 	0 	0 	0 	1.51141338 	-2.069044896e-05 	3.1390719e-09 	0 	0 	0
0.9948347186 	0 	0 	0 	1.488448612 	-2.102465066e-05 	3.151359849e-09 	0 	0 	0
0.9950102812 	0 	0 	0 	1.464176808 	-1.981290609e-05 	2.76890484e-09 	0 	0 	0
0.9951858439 	0 	0 	0 	1.438452531 	-1.757937881e-05 	2.475416609e-09 	0 	0 	0
0.9953614065 	0 	0 	0 	1.411116825 	-1.625733724e-05 	2.406104538e-09 	0 	0 	0
0.9955369691 	0 	0 	0 	1.381988888 	-1.495906669e-05 	2.230046219e-09 	0 	0 	0
0.9957125317 	0 	0 	0 	1.350861548 	-1.367973567e-05 	2.051700826e-09 	0 	0 	0
0.9958880943 	0 	0 	0 	1.317497713 	-1.253704985e-05 	1.882500684e-09 	0 	0 	0
0.996063657 	0 	0 	0 	1.281625529 	-1.102002885e-05 	1.818183472e-09 	0 	0 	0
0.9962392196 	0 	0 	0 	1.242935467 	-5.192349562e-06 	1.552064335e-09 	0 	0 	0
0.9964147822 	0 	0 	0 	1.201074604 	-2.639811963e-06 	1.187980625e-09 	0 	0 	0
0.9965903448 	0 	0 	0 	1.155621213 	-8.661177451e-06 	1.258479717e-09 	0 	0 	0
0.9967659075 	0 	0 	0 	1.106069727 	-8.989399405e-06 	1.199536742e-09 	0 	0 	0
0.9969414701 	0 	0 	0 	1.051861912 	-6.958836266e-06 	9.201637084e-10 	0 	0 	0
0.9971170327 	0 	0 	0 	0.9924104887 	-1.12474395e-05 	7.845120179e-10 	0 	0 	0
0.9972925953 	0 	0 	0 	0.9271186804 	-1.880688586e-05 	6.585930171e-10 	0 	0 	0
0.997468158 	0 	0 	0 	0.855451423 	-2.805414938e-05 	5.558565939e-10 	0 	0 	0
0.9976437206 	0 	0 	0 	0.7770654922 	-3.217991609e-05 	4.794351995e-10 	0 	0 	0
0.9978192832 	0 	0 	0 	0.6920012671 	-2.188262802e-05 	4.008218432e-10 	0 	0 	0
0.9979948458 	0 	0 	0 	0.6008814363 	2.158634412e-06 	2.796708807e-10 	0 	0 	0
0.9981704085 	0 	0 	0 	0.5049586183 	2.295476402e-05 	1.331309874e-10 	0 	0 	0
0.9983459711 	0 	0 	0 	0.4058515738 	2.529213557e-05 	3.161763677e-11 	0 	0 	0
0.9985215337 	0 	0 	0 	0.30505282 	1.41976858e-05 	9.586643435e-13 	0 	0 	0
0.9986970963 	0 	0 	0 	0.2035539903 	3.995268291e-06 	1.98088014e-12 	0 	0 	0
0.998872659 	0 	0 	0 	0.1018204891 	2.238060365e-07 	1.981194887e-12 	0 	0 	0
0.9990482216 	-0.003047592249 	1.64369302e-08 	-1.037010301e-13 	0.04287863354 	-1.620560636e-07 	3.06520069e-13 	91.67069482 	-0.0003461316582 	6.546888542e-10
