0 	0.04347977874 	0.04234474458
0.0003187685654 	0.04347992967 	0.04248673331
0.0006375366992 	0.04348042612 	0.04259695732
0.0009563044009 	0.0434812978 	0.04256230034
0.00127507167 	0.04348253207 	0.04256029791
0.001593838506 	0.0434841285 	0.04256379672
0.001912604908 	0.04348608899 	0.04256919284
0.002231370876 	0.04348841656 	0.04257525827
0.00255013641 	0.04349111501 	0.04258230141
0.002868901509 	0.04349418889 	0.04259031426
0.003187666173 	0.04349764338 	0.0425992615
0.003506430401 	0.04350148427 	0.04260910108
0.003825194194 	0.04350571796 	0.04261979918
0.004143957551 	0.04351035144 	0.04263132314
0.004462720473 	0.04351539224 	0.04264364041
0.004781482958 	0.04352084843 	0.04265671784
0.005100245007 	0.04352672839 	0.04267052115
0.005419006621 	0.04353304072 	0.04268501561
0.005737767798 	0.0435397948 	0.04270016717
0.006056528539 	0.04354700083 	0.04271594227
0.006375288844 	0.04355466949 	0.04273230713
0.006694048713 	0.04356281178 	0.04274922792
0.007012808146 	0.04357143906 	0.04276667107
0.007331567144 	0.04358056299 	0.04278460363
0.007650325706 	0.04359019556 	0.04280299336
0.007969083833 	0.04360034904 	0.04282180886
0.008287841526 	0.04361103592 	0.04284101912
0.008438152439 	0.04361633258 	0.0428502497
0.008606598784 	0.04362227132 	0.04286059642
0.008925355608 	0.04363406796 	0.04288051328
0.009244111998 	0.04364643686 	0.0429007673
0.009562867956 	0.04366125091 	0.0429242241
0.01005814041 	0.04368087847 	0.04295373069
0.01056272043 	0.04370416742 	0.04298654997
0.01107678292 	0.04372954424 	0.04301999767
0.01160050606 	0.04375715458 	0.04305412591
0.01213407138 	0.04378715143 	0.04308897324
0.01267766382 	0.04381969507 	0.04312457723
0.0132314718 	0.04385495314 	0.04316097623
0.01379568729 	0.04389310057 	0.04319821026
0.01437050583 	0.04393431947 	0.04323632072
0.01495612668 	0.04397879896 	0.04327535031
0.01555275282 	0.04402673498 	0.04331534297
0.01616059103 	0.04407832989 	0.0433563438
0.01677985201 	0.04413379219 	0.04339839887
0.0174107504 	0.04419333597 	0.04344155514
0.01805350487 	0.04425718036 	0.04348586012
0.01870833821 	0.0443255489 	0.04353136591
0.01937547739 	0.04439866879 	0.04357812504
0.02005515365 	0.04447683328 	0.04362621396
0.02074973489 	0.04456039738 	0.04367574383
0.02145891097 	0.04464960166 	0.04372677408
0.02218141423 	0.04474458191 	0.04377929725
0.02291749508 	0.04484552506 	0.0438333261
0.02366740865 	0.04495266094 	0.04388890839
0.02443141487 	0.04506621483 	0.04394609491
0.02520977853 	0.04518640596 	0.04400493324
0.02600276941 	0.045313446 	0.04406547054
0.02681066236 	0.04544753758 	0.04412775329
0.0276337374 	0.04558887311 	0.04419182751
0.02847227978 	0.04573763449 	0.04425773874
0.02932658013 	0.04589398798 	0.04432553224
0.03019693456 	0.04605807823 	0.0443952533
0.03108364469 	0.04623003203 	0.04446694759
0.03198701787 	0.04640996036 	0.04454066158
0.03290736717 	0.04659795481 	0.04461644294
0.03384501156 	0.0467940858 	0.04469434109
0.03480027602 	0.04699840182 	0.04477440764
0.03577349161 	0.0472109288 	0.04485669698
0.03676499562 	0.04743166976 	0.04494126705
0.03777513168 	0.04766060482 	0.04502818215
0.03880424986 	0.04789769139 	0.04511751331
0.03985270682 	0.04814294631 	0.045209352
0.04092224332 	0.04839660182 	0.04530389006
0.04201573527 	0.04865872195 	0.04540130807
0.04312977608 	0.04892888725 	0.04550160198
0.04426475188 	0.04920673127 	0.04560477028
0.04542105602 	0.04949209533 	0.0457109268
0.04659908925 	0.04978480762 	0.0458202063
0.04779925985 	0.05008468547 	0.04593274664
0.04902198377 	0.0503915376 	0.04604869849
0.05026768478 	0.05070516654 	0.04616822534
0.0515367946 	0.05102537092 	0.04629150419
0.05282975307 	0.05135194777 	0.0464187257
0.05414700828 	0.05168469468 	0.04655009442
0.05548901676 	0.05202341179 	0.04668582922
0.05685624359 	0.05236790363 	0.04682616548
0.0582491626 	0.05271798057 	0.04697135658
0.05966825653 	0.05307352355 	0.04712166246
0.06111503113 	0.05343476343 	0.04727745535
0.06259447228 	0.05380181463 	0.04743925033
0.06410171493 	0.05422192024 	0.0476296179
0.06641555434 	0.05474207784 	0.0478729031
0.06875520273 	0.05531006939 	0.04814797374
0.071120948 	0.05587854703 	0.04843412398
0.07351308122 	0.05644722603 	0.04873188313
0.07593189671 	0.05701584449 	0.04904155138
0.07632011608 	0.05710603863 	0.04909263502
0.07837769209 	0.05758419839 	0.04936342447
0.08085076829 	0.05815251843 	0.04969807368
0.08336052856 	0.05872112625 	0.05004622741
0.08589927374 	0.05928924612 	0.05040794219
0.08846633884 	0.05985603597 	0.05078310703
0.09106203976 	0.06042113369 	0.05117192692
0.09368669594 	0.06098419854 	0.05157465854
0.09634063038 	0.06154485232 	0.05199152912
0.09902416969 	0.06210276191 	0.05242279147
0.1017393693 	0.06265796187 	0.05286904844
0.1044931516 	0.06321025324 	0.0533308673
0.1072776549 	0.06375849771 	0.05380803498
0.1100932221 	0.06430165583 	0.05430034704
0.1129401997 	0.06483902818 	0.05480797003
0.1158189381 	0.06536985083 	0.05533109386
0.1187297916 	0.06589333128 	0.05586989881
0.1216740009 	0.06640898574 	0.05642500252
0.1246600133 	0.0669161718 	0.05699709531
0.1276793402 	0.06741334316 	0.05758592955
0.1307323531 	0.06789900679 	0.05819127017
0.133819428 	0.0683719633 	0.05881337154
0.1369409448 	0.06883093794 	0.05945253197
0.1400972879 	0.06927475618 	0.06010933506
0.1432941265 	0.06970229002 	0.06078476697
0.1465309182 	0.0701119225 	0.0614793523
0.1498038247 	0.07050170942 	0.06219318157
0.1531132491 	0.0708698506 	0.06292677633
0.1564595988 	0.07121460052 	0.06368106511
0.1598432859 	0.07153423184 	0.06445739781
0.1622455712 	0.07173953553 	0.06501853058
0.1632691728 	0.07182701282 	0.06525770072
0.166738053 	0.07209087447 	0.06608361923
0.1702456403 	0.07232347728 	0.06693654037
0.1737923664 	0.0725225721 	0.06781902237
0.1773786681 	0.07268591941 	0.06873408498
0.181004987 	0.07281125102 	0.06968002575
0.1846789635 	0.07289619334 	0.07062847399
0.1883955412 	0.07293830187 	0.07145461949
0.1921535923 	0.07293543477 	0.07200798824
0.1959535793 	0.0728855639 	0.07233494737
0.1997959703 	0.07278680454 	0.07260007041
0.2036854422 	0.07263750285 	0.07286246454
0.207622447 	0.07243608133 	0.07311118646
0.2116033871 	0.07218113344 	0.0733427626
0.2156287526 	0.07187130529 	0.07355666498
0.2196990393 	0.0715051807 	0.07375265991
0.2238186833 	0.07108126306 	0.0739303752
0.2279881992 	0.07059831252 	0.07408932627
0.2322042471 	0.07005550233 	0.07422900081
0.2364673461 	0.06945210609 	0.07434899329
0.2407780212 	0.06878727511 	0.0744490094
0.2451424756 	0.06806019189 	0.074528796
0.2495572744 	0.06727079438 	0.07458808983
0.2540213443 	0.06641949711 	0.07462671735
0.2585352349 	0.06550674401 	0.07464462211
0.2631015014 	0.06453300002 	0.07464182922
0.2677235004 	0.06349928523 	0.07461847033
0.2723970843 	0.062408065 	0.07457490825
0.2771228289 	0.06126258612 	0.0745117234
0.2819015436 	0.06006565498 	0.07442952357
0.2856247682 	0.05910712727 	0.0743521162
0.2867395924 	0.05882002029 	0.07432890928
0.2916316388 	0.05752997727 	0.07421067964
0.2965782852 	0.05620064998 	0.07407587934
0.3015801406 	0.05483720609 	0.0739256752
0.3066433777 	0.0534454834 	0.07376143188
0.3117632608 	0.05203308495 	0.07358486758
0.3169402875 	0.0506082781 	0.07339788864
0.3221755961 	0.04917940248 	0.07320250869
0.3274740002 	0.04775540314 	0.07300093663
0.3328315415 	0.04634650192 	0.07279566033
0.3382488796 	0.0449629397 	0.07258910742
0.3437284602 	0.04361452638 	0.07238330178
0.3492720763 	0.04231105237 	0.07218214718
0.3548775666 	0.04106208178 	0.07200606775
0.3605456213 	0.03987598141 	0.07180294459
0.3662803549 	0.03876053173 	0.0713151373
0.3720798471 	0.03772331933 	0.07037348713
0.3779440693 	0.03677017824 	0.06922231808
0.3838752086 	0.03590472395 	0.06818267774
0.3898747874 	0.03512825605 	0.06732828273
0.3959413295 	0.03443958894 	0.06661102837
0.4020759106 	0.03383528295 	0.06598851138
0.4082819034 	0.03331038957 	0.06543602433
0.4145571631 	0.03285906879 	0.0649400207
0.4209024623 	0.03247462497 	0.06449217665
0.4273212302 	0.03214981772 	0.0640877233
0.4338118586 	0.03187993809 	0.06372335976
0.4403749296 	0.03166358856 	0.06339532434
0.4470133871 	0.03149861189 	0.06310070387
0.4537262957 	0.03138150021 	0.06283814751
0.4605141271 	0.03130899175 	0.06260664962
0.4673796373 	0.03127811755 	0.06240522549
0.4743220061 	0.03128600021 	0.06223304542
0.4813419013 	0.03132968367 	0.06208928747
0.4884419439 	0.03140616184 	0.06197320117
0.4956212291 	0.03151223908 	0.0618844321
0.5028008938 	0.0316438463 	0.06182299513
0.5099024955 	0.03179656175 	0.06178829967
0.5169257377 	0.03196695816 	0.06177896075
0.5238719808 	0.03215243506 	0.06179336265
0.5307422839 	0.03235082308 	0.06183001582
0.5375367779 	0.03256029287 	0.06188763114
0.5442567658 	0.0327793145 	0.06196498674
0.5509030776 	0.03300659377 	0.0620609025
0.5574760505 	0.03324102771 	0.06217427117
0.5639768449 	0.0334816883 	0.06230405501
0.5704062842 	0.03372778119 	0.06244927976
0.5767647764 	0.03397861874 	0.06260902742
0.5811471973 	0.03415632582 	0.06272987748
0.5830533074 	0.03423361668 	0.06278244673
0.589272802 	0.03449226926 	0.06296873848
0.5954236652 	0.03475412898 	0.06316710935
0.6015067106 	0.03501881187 	0.0633768406
0.6075229967 	0.03528598617 	0.06359725885
0.6134728931 	0.03555535148 	0.06382771746
0.6193571321 	0.03582664959 	0.06406761597
0.6251766858 	0.03609966198 	0.06431639972
0.630932088 	0.03637419406 	0.06457353422
0.6366239786 	0.03665008036 	0.06483851572
0.6422531291 	0.03692718861 	0.06511088364
0.6478203216 	0.03720541317 	0.06539020355
0.6533260788 	0.03748467004 	0.06567605438
0.6587710783 	0.03776490429 	0.06596805202
0.6641561061 	0.03804608984 	0.06626584895
0.6694817605 	0.03832822224 	0.06656911061
0.6747486444 	0.03861132041 	0.06687752562
0.6799574061 	0.03889543002 	0.06719083112
0.6851087964 	0.03918062069 	0.06750880821
0.6902033484 	0.03946697958 	0.0678312532
0.6952416799 	0.03975461471 	0.06815798372
0.700224411 	0.04004365709 	0.06848888256
0.7051522365 	0.04033425748 	0.06882394849
0.7100256822 	0.04062658028 	0.06916337754
0.714845347 	0.04092080286 	0.06950773718
0.7196118242 	0.04121711128 	0.06985820719
0.7243257496 	0.04151569254 	0.0702168896
0.7289876612 	0.04181672628 	0.07058728564
0.733598126 	0.04212037918 	0.07097501278
0.7381577117 	0.04242679543 	0.07138941613
0.7426670004 	0.04273608104 	0.07184537396
0.7471265425 	0.04304827985 	0.07236390431
0.7515368708 	0.04336334991 	0.07298231248
0.7558985284 	0.04368127204 	0.0736224825
0.7602120533 	0.04400458821 	0.07403380373
0.7644779982 	0.04433768633 	0.07413367252
0.7686968657 	0.04467994536 	0.07407409417
0.7728691753 	0.0450256252 	0.0739455747
0.7769954407 	0.04536922956 	0.07378159395
0.781076174 	0.04570801303 	0.07364834613
0.7851118841 	0.04604265667 	0.07359893013
0.7891030575 	0.04637612195 	0.07365032487
0.7930501855 	0.04671128498 	0.07378786304
0.7969537543 	0.04704953614 	0.07397383168
0.8008142466 	0.04739112289 	0.07416889331
0.804632142 	0.04773577972 	0.07435124681
0.8084079044 	0.04808305493 	0.0745126772
0.8121419985 	0.04843255301 	0.07464938908
0.8158348843 	0.04878402543 	0.07475524115
0.8194870164 	0.04913730937 	0.07483542987
0.823098849 	0.04949226079 	0.07495777587
0.8266708229 	0.04984919125 	0.0752562427
0.8302033775 	0.05021038501 	0.07582678328
0.8336969477 	0.05058135066 	0.0766382899
0.8371519639 	0.05096838558 	0.07755186211
0.8405688521 	0.05137282048 	0.07837022907
0.8439480343 	0.05178675607 	0.0788902838
0.8472899247 	0.05219365563 	0.07898361495
0.8505949349 	0.05257475205 	0.07865189029
0.853863472 	0.05291778196 	0.0780236076
0.8570959383 	0.05322106552 	0.07730618998
0.8602927321 	0.05349056759 	0.07669150823
0.863454248 	0.05373446215 	0.0762687084
0.8665808742 	0.05395958494 	0.07602995577
0.8696729957 	0.05417010472 	0.07592798728
0.8727309934 	0.05436769605 	0.07590459319
0.8757552438 	0.05455257246 	0.07590620136
0.8787461193 	0.05472445986 	0.07590566911
0.8817039887 	0.05488302973 	0.07593926695
0.8846292159 	0.05502792777 	0.07611361213
0.887522161 	0.05515885427 	0.07648104901
0.8903831803 	0.05527507586 	0.07696299256
0.8932126262 	0.05537241455 	0.07746567539
0.8960108469 	0.0554401841 	0.07793048415
0.8987781872 	0.05546362553 	0.07828071564
0.901514988 	0.05543172941 	0.07844940558
0.9042215861 	0.05534478609 	0.07843100681
0.9068983149 	0.05521434028 	0.07823665328
0.909545504 	0.05505375468 	0.07785414194
0.9121634793 	0.05486958694 	0.077371466
0.9147525634 	0.05466274008 	0.07697131287
0.9173130749 	0.05443329445 	0.07670755179
0.9198453292 	0.05418163 	0.07650366102
0.9223496383 	0.05390799408 	0.07630749094
0.9248263104 	0.05361258857 	0.076109949
0.9272756506 	0.05329560272 	0.07590944842
0.9296979604 	0.05295722272 	0.07570086178
0.9320935383 	0.05262874158 	0.07549430184
0.9336540211 	0.05235084579 	0.07531117275
0.9351857158 	0.05209889002 	0.07514192786
0.9366891533 	0.05184244338 	0.07497675984
0.938164855 	0.05158171961 	0.07482043781
0.9396133326 	0.05131690234 	0.07467302093
0.9410350883 	0.05104815135 	0.07453341979
0.942430615 	0.05077561095 	0.07440063947
0.9438003967 	0.05049941738 	0.07427392982
0.9451449083 	0.0502197043 	0.07415273812
0.9464646159 	0.04993660669 	0.07403664821
0.9477599773 	0.04965026343 	0.07392534028
0.9490314414 	0.04936081879 	0.07381856518
0.9502794492 	0.04906842321 	0.07371612636
0.9515044335 	0.04877323345 	0.07361786635
0.9527068189 	0.04847541237 	0.07352365656
0.9538870224 	0.04817512833 	0.07343338965
0.9550454531 	0.04787255454 	0.07334697364
0.9561825128 	0.04756786818 	0.07326432766
0.9572985957 	0.04726124953 	0.07318537869
0.9583940889 	0.04695288107 	0.07311005907
0.959469372 	0.04664294662 	0.0730383045
0.9605248181 	0.0463316304 	0.07297005231
0.961560793 	0.04601911622 	0.07290524083
0.9625776559 	0.04570558662 	0.07284380931
0.9635757595 	0.04539122206 	0.07278569755
0.9645554498 	0.04507619999 	0.0727308451
0.9655170665 	0.04476069406 	0.07267919069
0.966460943 	0.04444487311 	0.07263067192
0.9673874067 	0.04412890029 	0.07258522489
0.9682967787 	0.04381293194 	0.07254278396
0.9691893743 	0.04349711651 	0.07250328153
0.9700655031 	0.04318159333 	0.07246664805
0.9709254688 	0.04286649125 	0.07243281205
0.9717695697 	0.04255192713 	0.07240169912
0.9725980983 	0.04223800409 	0.07237322913
0.9734113421 	0.04192480962 	0.07234731629
0.9742095829 	0.04161241372 	0.072323875
0.9749930975 	0.04130086711 	0.07230282036
0.9757621576 	0.04099019874 	0.07228406073
0.9765170299 	0.04068041299 	0.07226749446
0.9772579761 	0.04037148627 	0.07225301176
0.9779852532 	0.04006336353 	0.07224049561
0.9786991132 	0.03975595412 	0.07222982101
0.9793998037 	0.03944912724 	0.07222085385
0.9800875677 	0.03914270666 	0.07221344969
0.9807626437 	0.03883646459 	0.07220745239
0.9814252657 	0.03853011453 	0.07220269262
0.9820756634 	0.03822330296 	0.0721989861
0.9827140624 	0.03791559949 	0.07219613152
0.9833406841 	0.03760648512 	0.07219390819
0.9839557457 	0.03729533836 	0.0721920732
0.9845594604 	0.03698141837 	0.07219035835
0.9851520377 	0.03666384469 	0.07218846714
0.9857336829 	0.03634157242 	0.07218607252
0.9863045978 	0.03601336174 	0.07218282724
0.9868649803 	0.03567774003 	0.07217835131
0.9874150247 	0.03533295355 	0.07217217839
0.9879549217 	0.03497691119 	0.07216388293
0.9884848586 	0.03460711574 	0.07214954445
0.9890050191 	0.0342542446 	0.07212759443
0.9893397925 	0.03395543813 	0.07210677898
0.9896745659 	0.0336792413 	0.07209109624
0.9900093393 	0.03338828054 	0.07207513932
0.9903441127 	0.03308036031 	0.07205563532
0.9906788861 	0.0327528596 	0.07203170495
0.9910136596 	0.03240264129 	0.0720023608
0.991348433 	0.03202593472 	0.07196645652
0.9916832064 	0.0316181833 	0.07192258281
0.9920179798 	0.03117384923 	0.07186897911
0.9923527532 	0.03068616138 	0.07180343009
0.9926875266 	0.03014678839 	0.07172311275
0.9930223001 	0.02954541355 	0.07162438182
0.9933570735 	0.02886918227 	0.07150247151
0.9936918469 	0.0281019884 	0.07135108675
0.9940266203 	0.02722356647 	0.07116185833
0.9943613937 	0.02620837482 	0.07092365565
0.9946961672 	0.02502431387 	0.07062179372
0.9950309406 	0.02363148349 	0.0702372913
0.995365714 	0.02198157213 	0.06974667351
0.9957004874 	0.02001936172 	0.0691235007
0.9960352608 	0.01768971064 	0.06834424716
0.9963700342 	0.01495678679 	0.06740401108
0.9967048077 	0.01184627385 	0.06634809025
0.9970395811 	0.008516278557 	0.06530571445
0.9973743545 	0.005319145548 	0.06446665245
0.9977091279 	0.002729387928 	0.06396248831
0.9980439013 	0.00106885038 	0.06376171481
0.9983786747 	0.0002827834363 	0.06372121476
0.9987134482 	3.908365587e-05 	0.06372343205
0.9990482216 	2.287022237e-06 	0.06372604346
