0.3179529243 	6.24276927e-06 	-5.913751786e-08 	6.289920739e-12 	6.183487316e-06 	-4.845287155e-10 	1.178744544e-08
0.318152706 	8.66675598e-05 	-3.309270177e-06 	6.013247946e-10 	8.385384751e-05 	-1.106362198e-08 	1.598487393e-07
0.3183524966 	0.0005131026619 	-4.457810729e-05 	9.536274512e-09 	0.0004764417278 	-7.272652186e-08 	9.082303533e-07
0.318552295 	0.00176120369 	-0.0002630462518 	5.984986505e-08 	0.001547124623 	-2.512984604e-07 	2.949249533e-06
0.3187521003 	0.004304055083 	-0.0009202885118 	2.07981366e-07 	0.003558026714 	-5.783319219e-07 	6.782587819e-06
0.3189519114 	0.0082590307 	-0.00222251315 	4.739649238e-07 	0.006462224941 	-1.000997502e-06 	1.231879682e-05
0.3191517275 	0.01321712514 	-0.004103333309 	7.976008391e-07 	0.009907739364 	-1.41164749e-06 	1.888690494e-05
0.3193515475 	0.01849318274 	-0.006263648425 	1.090944888e-06 	0.01345183294 	-1.730929475e-06 	2.564293234e-05
0.3195513705 	0.02350699836 	-0.008393171945 	1.307201187e-06 	0.01676383049 	-1.934123832e-06 	3.195652019e-05
0.3197511955 	0.02790845532 	-0.01021018784 	1.309175832e-06 	0.01970869754 	-2.079209202e-06 	3.757025526e-05
0.3199510214 	0.03159639228 	-0.01161723275 	1.232925658e-06 	0.02225827165 	-2.165302066e-06 	4.243045214e-05
0.3201508474 	0.03464344559 	-0.01274181924 	1.246800507e-06 	0.02440084335 	-2.156866881e-06 	4.651478929e-05
0.3203506724 	0.03713186476 	-0.01367033585 	1.234106962e-06 	0.02615265002 	-2.07152224e-06 	4.985421968e-05
0.3205504955 	0.03913150419 	-0.01443240875 	1.204796225e-06 	0.02754806769 	-1.912806074e-06 	5.25142736e-05
0.3207503157 	0.04070908864 	-0.01504600932 	1.11927698e-06 	0.02863876851 	-1.720641813e-06 	5.459345251e-05
0.3209501321 	0.04191236427 	-0.01549116837 	9.859704593e-07 	0.0294906141 	-1.499378843e-06 	5.621730696e-05
0.3211499436 	0.04280279164 	-0.01579588867 	8.487232697e-07 	0.03014243716 	-1.235327871e-06 	5.745986289e-05
0.3213497493 	0.04344353208 	-0.0160154815 	6.905126263e-07 	0.03061292801 	-9.316255959e-07 	5.835674921e-05
0.3215495483 	0.04387033264 	-0.01616065162 	5.116277189e-07 	0.03092903166 	-5.886849996e-07 	5.895933063e-05
0.3217493395 	0.04411268843 	-0.01624078616 	3.121071695e-07 	0.03111264429 	-2.064737066e-07 	5.930934734e-05
0.3219491221 	0.04419517062 	-0.01626402299 	9.185115045e-08 	0.03118179335 	2.153115312e-07 	5.944116465e-05
0.322148895 	0.04413828724 	-0.01623733532 	-1.49250853e-07 	0.03115136772 	6.769641057e-07 	5.938316495e-05
0.3223486573 	0.04395923431 	-0.01616668198 	-4.112427522e-07 	0.03103376901 	1.17862001e-06 	5.915898913e-05
0.322548408 	0.04367255116 	-0.01605717148 	-6.940741057e-07 	0.03083943781 	1.720204402e-06 	5.878853984e-05
0.3227481462 	0.04329066663 	-0.01591321573 	-9.976100821e-07 	0.0305772739 	2.301455774e-06 	5.828878256e-05
0.322947871 	0.04282433895 	-0.01573866344 	-1.321660521e-06 	0.03025496751 	2.921991694e-06 	5.767437701e-05
0.3231475813 	0.04228300484 	-0.01553691035 	-1.666010193e-06 	0.02987925005 	3.581371674e-06 	5.695815511e-05
0.3233472762 	0.04167505362 	-0.0153109874 	-2.030449561e-06 	0.02945607675 	4.279190118e-06 	5.615146917e-05
0.3235469548 	0.04100802819 	-0.01506362358 	-2.414780842e-06 	0.02899072948 	5.015087396e-06 	5.526438794e-05
0.3237466161 	0.04028790063 	-0.01479701441 	-2.818223394e-06 	0.02848760591 	5.787589037e-06 	5.430529459e-05
0.3239462591 	0.03940857709 	-0.01447193909 	-3.288935052e-06 	0.02787292014 	6.686980928e-06 	5.313353267e-05
0.32425642 	0.03822818621 	-0.01403607271 	-3.934829541e-06 	0.0270471607 	7.922574612e-06 	5.155940566e-05
0.3245723591 	0.0368208353 	-0.01351675101 	-4.681697326e-06 	0.02606136647 	9.349293901e-06 	4.968020788e-05
0.3248941791 	0.03530643319 	-0.01295849232 	-5.429800198e-06 	0.025000149 	1.077650485e-05 	4.765723242e-05
0.3252219844 	0.03371195174 	-0.01237163828 	-6.116188299e-06 	0.02388360981 	1.208030491e-05 	4.55287984e-05
0.3255558808 	0.03206419834 	-0.01176628645 	-6.755740334e-06 	0.02273146581 	1.328763161e-05 	4.333249172e-05
0.3258959756 	0.03038172251 	-0.01114926879 	-7.361561665e-06 	0.02155732706 	1.442202908e-05 	4.109425692e-05
0.3262423775 	0.02868170865 	-0.01052688087 	-7.501743192e-06 	0.02037394202 	1.463642049e-05 	3.883839613e-05
0.3265951969 	0.02698472358 	-0.009906715121 	-7.431177526e-06 	0.01919676554 	1.443352247e-05 	3.659437059e-05
0.3269545455 	0.02531517277 	-0.009297675064 	-7.211249074e-06 	0.01804336591 	1.395372565e-05 	3.439567031e-05
0.3273205366 	0.02370109036 	-0.008709899438 	-6.823775755e-06 	0.01693313297 	1.313277168e-05 	3.227925776e-05
0.3276932849 	0.02217190731 	-0.008155333347 	-6.257896564e-06 	0.01589424358 	1.185433715e-05 	3.029884584e-05
0.3280729065 	0.020745745 	-0.007629240505 	-6.255468728e-06 	0.01495403984 	1.03435185e-05 	2.850655619e-05
0.328459519 	0.01939854913 	-0.007055705962 	-7.339010781e-06 	0.01412108036 	8.903895673e-06 	2.691870391e-05
0.3288532414 	0.01811115453 	-0.006405510599 	-7.434008414e-06 	0.01338327297 	7.680525341e-06 	2.551223796e-05
0.3292541942 	0.01691432796 	-0.005773059871 	-6.433164046e-06 	0.01272550528 	6.573078946e-06 	2.425834993e-05
0.329662499 	0.01582857466 	-0.005205424992 	-5.663697146e-06 	0.01214103712 	5.551219032e-06 	2.314419118e-05
0.330078279 	0.01485296095 	-0.004689240139 	-4.938316615e-06 	0.01162527447 	4.560803431e-06 	2.216100421e-05
0.3305016584 	0.01398805636 	-0.004222305237 	-4.248544754e-06 	0.01118149582 	3.544482314e-06 	2.131503876e-05
0.330932763 	0.01323176616 	-0.00380243832 	-3.613814317e-06 	0.01081383885 	2.605616103e-06 	2.061418241e-05
0.3313717196 	0.01257940369 	-0.003426556614 	-3.03660518e-06 	0.01052005164 	1.767504897e-06 	2.005414233e-05
0.3318186562 	0.01202408923 	-0.00309145692 	-2.521926149e-06 	0.01029631318 	1.046980683e-06 	1.962763464e-05
0.332273702 	0.01155707915 	-0.002793516527 	-2.069862201e-06 	0.01013763018 	4.486954512e-07 	1.932514073e-05
0.3327369872 	0.01116844588 	-0.002529219231 	-1.671176655e-06 	0.0100387843 	-3.521440026e-08 	1.913671302e-05
0.333208643 	0.0108481109 	-0.002296220146 	-1.310259413e-06 	0.009995226255 	-4.193489199e-07 	1.905367927e-05
0.333690202 	0.0105863931 	-0.002092425926 	-1.00108241e-06 	0.01000444534 	-7.063763374e-07 	1.907125341e-05
0.3341943182 	0.01037652383 	-0.00191300767 	-7.6102972e-07 	0.01006440796 	-8.703378989e-07 	1.918555884e-05
0.3347076387 	0.01021365248 	-0.001752617593 	-5.716469508e-07 	0.01016771592 	-9.064233695e-07 	1.938249252e-05
0.3352303273 	0.01009062437 	-0.001608542603 	-4.119059218e-07 	0.0103034092 	-8.41699465e-07 	1.964116161e-05
0.3357625509 	0.009999216698 	-0.001478811131 	-2.797050734e-07 	0.010462868 	-7.040416186e-07 	1.994513441e-05
0.3363044791 	0.009932430158 	-0.001361129432 	-1.705097459e-07 	0.01064004387 	-5.114798178e-07 	2.028288087e-05
0.3368562843 	0.009884715743 	-0.001253363351 	-7.918165465e-08 	0.01083055669 	-2.762158083e-07 	2.064605125e-05
0.337418142 	0.009851751817 	-0.001153794015 	-1.800367585e-09 	0.01103105345 	-7.161579188e-09 	2.102825379e-05
0.3374324648 	0.009851215996 	-0.001151475025 	1.051880963e-07 	0.01103626108 	2.140879782e-07 	2.103818099e-05
0.337988836 	0.009830325931 	-0.001061131758 	-7.010250378e-08 	0.01123918503 	-2.74173207e-07 	2.142501045e-05
0.3385698873 	0.0098175135 	-0.0009740823919 	-1.324592808e-07 	0.01145255457 	-5.79683984e-07 	2.183175208e-05
0.3391615162 	0.009811195214 	-0.0008917055425 	-1.872511398e-07 	0.01166959286 	-9.052908838e-07 	2.224548738e-05
0.3397639102 	0.009809674586 	-0.0008132293278 	-2.361390466e-07 	0.01188910128 	-1.247658781e-06 	2.266393145e-05
0.3403772602 	0.009811579261 	-0.0007380137595 	-2.804165903e-07 	0.01211015938 	-1.604315272e-06 	2.308532962e-05
0.3410017602 	0.009815790738 	-0.0006655241331 	-3.210973837e-07 	0.0123320602 	-1.973421929e-06 	2.350833425e-05
0.3416376076 	0.009821391012 	-0.0005953096864 	-3.589840303e-07 	0.01255426084 	-2.353603345e-06 	2.393191044e-05
0.342285003 	0.009827621859 	-0.0005269865041 	-3.947222794e-07 	0.01277634456 	-2.743819981e-06 	2.435526374e-05
0.3429441507 	0.009833853554 	-0.0004602238477 	-4.288433105e-07 	0.01299799176 	-3.143274422e-06 	2.47777849e-05
0.3436152583 	0.009839560677 	-0.0003947332379 	-4.617965961e-07 	0.01321895791 	-3.551342771e-06 	2.51990078e-05
0.3442985368 	0.009844303251 	-0.0003302597559 	-4.939753251e-07 	0.01343905677 	-3.967524862e-06 	2.561857739e-05
0.3449942011 	0.009847711893 	-0.0002665750063 	-5.257358091e-07 	0.01365814712 	-4.391409008e-06 	2.60362245e-05
0.3457024694 	0.009849476129 	-0.0002034715436 	-5.574132505e-07 	0.01387612109 	-4.822641573e-06 	2.645174348e-05
0.3464235639 	0.009849334177 	-0.0001407559258 	-5.893321911e-07 	0.01409289416 	-5.260914606e-06 	2.686497319e-05
0.3471577105 	0.009847070632 	-7.826746036e-05 	-6.218138454e-07 	0.01430848664 	-5.705933995e-06 	2.727595237e-05
0.3479051389 	0.00984248642 	-1.578390082e-05 	-6.551820156e-07 	0.01452273644 	-6.157448242e-06 	2.768437205e-05
0.3486660827 	0.009835413764 	4.702932085e-05 	-6.897705251e-07 	0.01473628878 	-6.615391571e-06 	2.809146215e-05
0.34945109 	0.00982565833 	0.0001106854421 	-7.242918831e-07 	0.01495084419 	-7.063282798e-06 	2.850046439e-05
0.3502630611 	0.009812999241 	0.0001755320775 	-6.697816318e-07 	0.01516612759 	-6.616686284e-06 	2.891085439e-05
0.3510896352 	0.009797400552 	0.0002412520668 	-6.175037087e-07 	0.01538043347 	-6.159914835e-06 	2.931938096e-05
0.3519310666 	0.009778881227 	0.0003076310143 	-5.663113892e-07 	0.01559312357 	-5.695667057e-06 	2.972482741e-05
0.3527876142 	0.009757380444 	0.0003748789621 	-5.185471823e-07 	0.01580410486 	-5.213387365e-06 	3.012701638e-05
0.3536595409 	0.009733045536 	0.0004433622125 	-4.804275359e-07 	0.01601156268 	-4.650839675e-06 	3.052248866e-05
0.3545471142 	0.009708225694 	0.0005130594697 	-4.124621418e-07 	0.01620269556 	-3.585991708e-06 	3.088684104e-05
0.3554506062 	0.00969014408 	0.0005816602892 	-3.046765643e-07 	0.01634406339 	-2.21788137e-06 	3.115632742e-05
0.3563702933 	0.0096832715 	0.0006466753401 	-2.299908258e-07 	0.01641830514 	-1.510937338e-06 	3.129785284e-05
0.357306457 	0.009680889241 	0.0007094628734 	-1.746780069e-07 	0.01646146767 	-1.236802215e-06 	3.138013261e-05
0.358259383 	0.00967764986 	0.0007778822198 	-1.147837301e-07 	0.0165065269 	-9.720844729e-07 	3.146602802e-05
0.3597206513 	0.00967319078 	0.0008570906926 	-5.153910635e-08 	0.0165566148 	-5.925260707e-07 	3.156150948e-05
0.3611962551 	0.009667567906 	0.000937527046 	-1.180564114e-08 	0.01660487421 	-2.318431784e-07 	3.165350532e-05
0.3622065599 	0.009663307198 	0.0009875283399 	9.846337194e-07 	0.01663308712 	-2.667241755e-07 	3.170728698e-05
0.3626853298 	0.009661273223 	0.00101130878 	-4.650679318e-09 	0.01664650919 	-1.068261629e-07 	3.173287317e-05
0.3641869071 	0.009654467031 	0.001078660221 	-1.386984375e-09 	0.01668263514 	-4.25091033e-07 	3.180173927e-05
0.3657415917 	0.009647258451 	0.001140478902 	2.916435674e-08 	0.01671415567 	-7.314487296e-07 	3.186182617e-05
0.3673153958 	0.009639622006 	0.00119699329 	8.653078661e-08 	0.0167410651 	-1.018827244e-06 	3.191312303e-05
0.3689044967 	0.009631862101 	0.001247861989 	1.684200053e-07 	0.01676403027 	-1.288330629e-06 	3.195690101e-05
0.3705090474 	0.009624058577 	0.001293670058 	2.720631853e-07 	0.01678362559 	-1.542201566e-06 	3.199425514e-05
0.372129203 	0.009616315433 	0.001334946102 	3.942355988e-07 	0.01680046169 	-1.782581514e-06 	3.202634943e-05
0.3737651208 	0.009608710674 	0.001372246327 	5.315725993e-07 	0.01681506102 	-2.011497333e-06 	3.20541798e-05
0.3754169603 	0.009601346948 	0.001406044216 	6.807065274e-07 	0.01682798147 	-2.23066938e-06 	3.207880979e-05
0.3770848833 	0.009594207069 	0.001437001461 	6.79273355e-07 	0.01683946311 	-1.977863277e-06 	3.210069698e-05
0.3787690537 	0.009587384666 	0.001465482714 	6.348670825e-07 	0.01685006767 	-1.675549626e-06 	3.212091221e-05
0.3804988631 	0.009580932403 	0.001492037236 	5.691148332e-07 	0.01686031139 	-1.382299168e-06 	3.214043959e-05
0.3822608994 	0.009574790151 	0.001517244815 	4.858527012e-07 	0.01687018557 	-1.099644747e-06 	3.215926252e-05
0.384039893 	0.009569080416 	0.001541095687 	3.888026188e-07 	0.01687994805 	-8.288449015e-07 	3.217787252e-05
0.3858360178 	0.009563860719 	0.001563811068 	2.806494518e-07 	0.01688983414 	-5.684967636e-07 	3.219671815e-05
0.3876494502 	0.009559144575 	0.00158569349 	1.637217575e-07 	0.01690001204 	-3.173813265e-07 	3.221612006e-05
0.3894803696 	0.009554970131 	0.001606930451 	3.990347654e-08 	0.01691067975 	-7.445592754e-08 	3.223645568e-05
0.3900584941 	0.009553818667 	0.001613443483 	1.402603799e-07 	0.01691416626 	-8.691572334e-07 	3.224310194e-05
0.3913268074 	0.009551259885 	0.001627740744 	8.71752754e-08 	0.01692176234 	-1.61021645e-07 	3.225758218e-05
0.3931901374 	0.009548062007 	0.001648288359 	2.179578937e-07 	0.01693347074 	-3.897557056e-07 	3.227990165e-05
0.3950927878 	0.009545488179 	0.001668702834 	3.54142656e-07 	0.01694622787 	-6.151817508e-07 	3.230422027e-05
0.3970388981 	0.009543486117 	0.001689342406 	4.952758237e-07 	0.01695995136 	-8.379797393e-07 	3.233038106e-05
0.3990036413 	0.009542070902 	0.001710121522 	6.387948909e-07 	0.0169745733 	-1.055287926e-06 	3.235825456e-05
0.400987215 	0.009541313524 	0.001730894978 	7.842257959e-07 	0.01699022226 	-1.267548041e-06 	3.238808582e-05
0.4029898197 	0.009541215608 	0.001751771161 	9.313107516e-07 	0.01700692826 	-1.475213361e-06 	3.241993209e-05
0.4050116593 	0.00954180761 	0.00177274737 	1.079824301e-06 	0.01702478066 	-1.678578642e-06 	3.245396372e-05
0.4070529411 	0.009543000587 	0.001794041803 	1.009364291e-06 	0.01704357325 	-1.541562395e-06 	3.248978763e-05
0.4091191997 	0.009544947378 	0.00181543783 	8.739482823e-07 	0.01706378262 	-1.312625132e-06 	3.252831231e-05
0.4112474576 	0.009547675628 	0.001837247145 	7.333655437e-07 	0.0170855305 	-1.083699242e-06 	3.256976981e-05
0.4133959597 	0.009551050071 	0.001859601206 	5.911760725e-07 	0.0171083928 	-8.601272955e-07 	3.261335171e-05
0.4155649276 	0.009555164394 	0.001882063638 	4.474232891e-07 	0.01713252723 	-6.413787508e-07 	3.265935864e-05
0.4177545874 	0.009560023267 	0.001904718751 	3.022682744e-07 	0.01715795474 	-4.271708856e-07 	3.270783054e-05
0.4199651688 	0.009565585328 	0.001927657063 	1.558114443e-07 	0.01718457486 	-2.171994095e-07 	3.27585759e-05
0.4221969057 	0.009571865611 	0.001950857401 	8.127155448e-09 	0.01721246896 	-1.118093274e-08 	3.28117498e-05
0.4223203246 	0.009572251134 	0.001952128964 	2.248890941e-08 	0.0172140722 	-1.385034268e-07 	3.281480601e-05
0.424469228 	0.009578934057 	0.001974248507 	1.398362397e-07 	0.01724192124 	-1.926961652e-07 	3.286789402e-05
0.4267889352 	0.009586789019 	0.001998173425 	2.90420998e-07 	0.01727286172 	-3.952850984e-07 	3.292687519e-05
0.4291306938 	0.009595365393 	0.002022478064 	4.417597761e-07 	0.01730507501 	-5.941496013e-07 	3.298828266e-05
0.4314947558 	0.009604704241 	0.002046928005 	5.937758155e-07 	0.01733864873 	-7.894739497e-07 	3.305228351e-05
0.4338813777 	0.009614766789 	0.002071649477 	7.464311542e-07 	0.01737348395 	-9.814864641e-07 	3.311868912e-05
0.4362908213 	0.009625550298 	0.002096653067 	8.996879095e-07 	0.01740961381 	-1.170416966e-06 	3.318756268e-05
0.43874163 	0.009637196896 	0.00212190715 	1.05476353e-06 	0.01744744762 	-1.35790011e-06 	3.325968444e-05
0.4412451404 	0.009649677691 	0.002147696398 	1.151259016e-06 	0.01748687553 	-1.466960489e-06 	3.333484499e-05
0.4437723886 	0.009662875012 	0.002173920372 	1.003996036e-06 	0.01752758106 	-1.266704472e-06 	3.341244105e-05
0.446323657 	0.009676835338 	0.002200266199 	8.563095337e-07 	0.01756969151 	-1.070057191e-06 	3.349271526e-05
0.4488992335 	0.009691462504 	0.002226985853 	7.083125461e-07 	0.01761294364 	-8.76974017e-07 	3.357516584e-05
0.4514994119 	0.009706875273 	0.002253890934 	5.599833604e-07 	0.01765772667 	-6.87189144e-07 	3.366053475e-05
0.4541616688 	0.009723206518 	0.002281197935 	4.08941929e-07 	0.01770433773 	-4.974238092e-07 	3.374938837e-05
0.4568588278 	0.009740284412 	0.002309149515 	2.573150102e-07 	0.01775229251 	-3.103386572e-07 	3.384080353e-05
0.4595815725 	0.00975809897 	0.002337309089 	1.057862194e-07 	0.01780162131 	-1.265405032e-07 	3.393483793e-05
0.4615041402 	0.00977102808 	0.002357238926 	1.44041942e-07 	0.01783695927 	-6.759010453e-07 	3.40022019e-05
0.4623294293 	0.009776572458 	0.002365780566 	4.459015002e-08 	0.01785211528 	-5.38224578e-08 	3.403109347e-05
0.4651017109 	0.009795760862 	0.002394439444 	1.923825512e-07 	0.01790400307 	-2.305144545e-07 	3.413000601e-05
0.4679286799 	0.009815848858 	0.002423485259 	3.415688521e-07 	0.01795767698 	-4.06325421e-07 	3.423232341e-05
0.4708000474 	0.009836728016 	0.002453186143 	4.912029782e-07 	0.01801279108 	-5.802742617e-07 	3.433738619e-05
0.4736987461 	0.009858337982 	0.002483214707 	6.400972571e-07 	0.01806926057 	-7.511435858e-07 	3.444503273e-05
0.476625129 	0.009880598079 	0.002513636844 	7.882249376e-07 	0.01812686453 	-9.191176664e-07 	3.45548419e-05
0.4795795562 	0.009903634186 	0.002544322131 	9.355032568e-07 	0.01818599677 	-1.08431811e-06 	3.466756438e-05
0.4825972259 	0.009927599611 	0.002575514586 	1.083878531e-06 	0.0182469304 	-1.248899021e-06 	3.478372081e-05
0.4856526605 	0.009952333216 	0.002607426238 	1.186715632e-06 	0.01830919315 	-1.359826987e-06 	3.490241092e-05
0.4887372686 	0.009977755301 	0.002639713363 	1.046081452e-06 	0.018372697 	-1.192404186e-06 	3.502346691e-05
0.4918514422 	0.01000386808 	0.002672411852 	9.064927434e-07 	0.01843743742 	-1.028243743e-06 	3.514688014e-05
0.4950073042 	0.01003083768 	0.002705519439 	7.672965886e-07 	0.01850382831 	-8.66355851e-07 	3.527343962e-05
0.4982235491 	0.01005869692 	0.002739353536 	6.278209777e-07 	0.018571792 	-7.057690731e-07 	3.540299731e-05
0.5014705527 	0.01008729367 	0.002773824377 	4.898888465e-07 	0.01864098285 	-5.485207191e-07 	3.553489431e-05
0.5047487424 	0.01011653142 	0.002808801128 	3.535519483e-07 	0.01871122534 	-3.94432656e-07 	3.566879601e-05
0.5080599365 	0.01014658694 	0.002844188109 	2.187574185e-07 	0.01878299878 	-2.432646576e-07 	3.580561615e-05
0.5114411945 	0.01017761131 	0.002880330589 	8.388534849e-08 	0.01885643943 	-9.299947089e-08 	3.594561443e-05
0.5135991682 	0.01019770125 	0.002903714696 	2.348682516e-07 	0.01890357154 	-7.648864747e-07 	3.603546133e-05
0.5148541725 	0.01020938156 	0.002917290926 	4.751847242e-08 	0.01893097542 	-5.35421665e-08 	3.608770074e-05
0.5182988631 	0.01024176989 	0.002954762763 	1.744790058e-07 	0.01900646436 	-1.961820191e-07 	3.623160365e-05
0.5217779526 	0.01027498718 	0.002992744107 	2.992148722e-07 	0.01908339065 	-3.358703343e-07 	3.637824654e-05
0.52532682 	0.01030919998 	0.003031569889 	4.230712206e-07 	0.01916188547 	-4.742220468e-07 	3.652787948e-05
0.528910028 	0.01034417544 	0.00307138841 	5.440835081e-07 	0.01924131622 	-6.093291401e-07 	3.667929655e-05
0.5325280828 	0.01037984407 	0.003111825643 	6.622188458e-07 	0.01932173762 	-7.41285468e-07 	3.68326021e-05
0.5361891746 	0.01041640299 	0.003152959453 	7.777206451e-07 	0.01940349319 	-8.705755628e-07 	3.698845094e-05
0.539912511 	0.01045393666 	0.003195087589 	8.909854534e-07 	0.01948652278 	-9.977491619e-07 	3.714672842e-05
0.5436721471 	0.01049222261 	0.003238260358 	1.000677394e-06 	0.0195702862 	-1.121667027e-06 	3.730640479e-05
0.5474686338 	0.01053129249 	0.003282128141 	1.106757928e-06 	0.01965506154 	-1.242377785e-06 	3.746801013e-05
0.5513216279 	0.01057135763 	0.003326937596 	1.129643385e-06 	0.01974103483 	-1.270518599e-06 	3.763189913e-05
0.5552246668 	0.0106123308 	0.003372939649 	1.022250879e-06 	0.01982779509 	-1.152620854e-06 	3.77972883e-05
0.5591661162 	0.01065407702 	0.00341991237 	9.180293242e-07 	0.01991519134 	-1.038303691e-06 	3.796388983e-05
0.5631511971 	0.01069675109 	0.00346778385 	8.167931328e-07 	0.0200035242 	-9.27199118e-07 	3.813227682e-05
0.5671996694 	0.0107404795 	0.003516869499 	7.181618116e-07 	0.02009271267 	-8.186773496e-07 	3.830229483e-05
0.5712881919 	0.01078504694 	0.003567230893 	6.231914576e-07 	0.02018221395 	-7.139186968e-07 	3.847290915e-05
0.5754174009 	0.010830506 	0.003618521587 	5.318942593e-07 	0.02027236564 	-6.12716069e-07 	3.864476332e-05
0.5796100922 	0.01087708462 	0.003671055052 	4.437204622e-07 	0.02036321179 	-5.142968951e-07 	3.881794134e-05
0.5838480727 	0.01092459931 	0.003725029619 	3.595779945e-07 	0.02045414661 	-4.196648887e-07 	3.899128837e-05
0.5881285045 	0.01097303386 	0.003780059996 	2.795846862e-07 	0.02054542201 	-3.287903618e-07 	3.916528465e-05
0.592468147 	0.01102261674 	0.00383638043 	2.033605104e-07 	0.02063708765 	-2.411399284e-07 	3.934002485e-05
0.5968582973 	0.01107322667 	0.003894225475 	1.31502644e-07 	0.02072860167 	-1.573552296e-07 	3.951447601e-05
0.6012927572 	0.01112482569 	0.003953259024 	6.417890858e-08 	0.02082013566 	-7.755330344e-08 	3.968896523e-05
0.6057856853 	0.01117762622 	0.004013659231 	1.081125005e-09 	0.02091170658 	-1.320295279e-09 	3.986352485e-05
0.6058686619 	0.01117861029 	0.004014791172 	2.433710679e-08 	0.02091336955 	-5.113304624e-08 	3.986669492e-05
0.6103303191 	0.01123152152 	0.004075612936 	5.575476392e-08 	0.02100278735 	-6.992643115e-08 	4.003715011e-05
0.6149212656 	0.01128649452 	0.004138844585 	1.079061123e-07 	0.0210935554 	-1.369623404e-07 	4.021017924e-05
0.6195723842 	0.01134274729 	0.004203532857 	1.556638316e-07 	0.02118395964 	-2.001198385e-07 	4.038251485e-05
0.6242759264 	0.01140017842 	0.004269839672 	1.986558361e-07 	0.02127349921 	-2.588965034e-07 	4.055320215e-05
0.6290278534 	0.01145878995 	0.004337458567 	2.369410629e-07 	0.02136238187 	-3.132935675e-07 	4.072263722e-05
0.6338430612 	0.0115187631 	0.004406632918 	2.707066576e-07 	0.02145041066 	-3.634946089e-07 	4.089044455e-05
0.6387094544 	0.01157998118 	0.004477367719 	2.996518776e-07 	0.02153722165 	-4.089945443e-07 	4.105593042e-05
0.6436287687 	0.01164250399 	0.00454944224 	3.240758688e-07 	0.02162297738 	-4.499958105e-07 	4.121940469e-05
0.6486104566 	0.01170626443 	0.004622914961 	3.441069491e-07 	0.02170709346 	-4.864629218e-07 	4.137975332e-05
0.6535885607 	0.01177058743 	0.004696935161 	3.595584967e-07 	0.02178881501 	-5.17862392e-07 	4.15355373e-05
0.65851419 	0.01183501324 	0.004770774737 	3.70741276e-07 	0.02186757599 	-5.443025042e-07 	4.168567762e-05
0.6633878192 	0.01189934903 	0.004844372142 	3.778922106e-07 	0.02194291252 	-5.658078196e-07 	4.182928998e-05
0.6682048624 	0.01196351649 	0.004917462318 	3.814714166e-07 	0.02201507823 	-5.827243374e-07 	4.196685788e-05
0.6729731885 	0.01202763563 	0.004990128459 	3.819612282e-07 	0.02208406988 	-5.954915851e-07 	4.209837514e-05
0.6776883892 	0.01209159315 	0.005062376235 	3.795725945e-07 	0.02214972106 	-6.04163701e-07 	4.222352454e-05
0.6823494001 	0.01215535115 	0.005133955493 	3.747843783e-07 	0.02221236428 	-6.091803124e-07 	4.234293992e-05
0.6869638811 	0.01221902606 	0.005205004463 	3.679286518e-07 	0.02227192706 	-6.108448096e-07 	4.245648314e-05
0.69152573 	0.01228248731 	0.005275454359 	3.592085222e-07 	0.02232836184 	-6.092600884e-07 	4.256406351e-05
0.6960360527 	0.01234573925 	0.005345135819 	3.490209804e-07 	0.02238195798 	-6.048454889e-07 	4.266623266e-05
0.7005001735 	0.01240887411 	0.00541419309 	3.375751998e-07 	0.02243261002 	-5.977931245e-07 	4.276278952e-05
0.7049135952 	0.01247176986 	0.005482531988 	3.250651412e-07 	0.02248035968 	-5.882549415e-07 	4.285381364e-05
0.7092775063 	0.01253445995 	0.005550048704 	3.117929542e-07 	0.02252544851 	-5.76598863e-07 	4.293976549e-05
0.7135960089 	0.01259703114 	0.005616878252 	2.978995148e-07 	0.0225677779 	-5.62972054e-07 	4.302045706e-05
0.7178657865 	0.01265937504 	0.005682947494 	2.835338016e-07 	0.02260739825 	-5.475224299e-07 	4.309598446e-05
0.7220875898 	0.0127215228 	0.005748168312 	2.689194403e-07 	0.0226445479 	-5.305642309e-07 	4.316680202e-05
0.7262652504 	0.01278358482 	0.005812670893 	2.541596461e-07 	0.02267915658 	-5.122418807e-07 	4.323277578e-05
0.7303960315 	0.01284547214 	0.00587643047 	2.393421048e-07 	0.02271122819 	-4.926619184e-07 	4.329391318e-05
0.7344805912 	0.01290718503 	0.005939342361 	2.246321557e-07 	0.02274102506 	-4.720908157e-07 	4.335071431e-05
0.7385215828 	0.01296886376 	0.006001525303 	2.101107283e-07 	0.02276851807 	-4.506927729e-07 	4.340312363e-05
0.7425178833 	0.01303045479 	0.006063011549 	1.958102039e-07 	0.02279365389 	-4.285225292e-07 	4.345103948e-05
0.7464696505 	0.0130919169 	0.006123683272 	1.818454838e-07 	0.02281670503 	-4.058001104e-07 	4.349498136e-05
0.7503784336 	0.01315340011 	0.006183630617 	1.682823327e-07 	0.02283770009 	-3.827079051e-07 	4.353500379e-05
0.7542446399 	0.01321490884 	0.006242929453 	1.551179196e-07 	0.02285656095 	-3.592734004e-07 	4.357095783e-05
0.7580679078 	0.01327637372 	0.006301488675 	1.424152342e-07 	0.02287349683 	-3.356589975e-07 	4.360324232e-05
0.7618489142 	0.01333790041 	0.006359335259 	1.302227957e-07 	0.02288863024 	-3.120408291e-07 	4.363209081e-05
0.7655892833 	0.01339957534 	0.00641656697 	1.185328211e-07 	0.02290191251 	-2.884755996e-07 	4.36574105e-05
0.7692882266 	0.01346134592 	0.006473170487 	1.073504501e-07 	0.02291340873 	-2.650444693e-07 	4.367932549e-05
0.7729462699 	0.01352322005 	0.006529092628 	9.67053287e-08 	0.02292334026 	-2.41896231e-07 	4.369825776e-05
0.7765644362 	0.01358533523 	0.006584419078 	8.660023598e-08 	0.02293172467 	-2.191455589e-07 	4.371424076e-05
0.7801431096 	0.01364771133 	0.006639207291 	7.700216571e-08 	0.02293853754 	-1.968136081e-07 	4.372722799e-05
0.7836822925 	0.01371029584 	0.006693405259 	6.791514917e-08 	0.02294395221 	-1.750096357e-07 	4.373754985e-05
0.7871824709 	0.01377316053 	0.006747019706 	5.933823904e-08 	0.02294811754 	-1.538486e-07 	4.374549013e-05
0.7906446711 	0.01383641646 	0.006800134119 	5.124805827e-08 	0.02295102393 	-1.333965618e-07 	4.375103051e-05
0.7940688637 	0.01390005661 	0.006852772986 	4.360812987e-08 	0.02295270145 	-1.136819354e-07 	4.375422834e-05
0.7974553732 	0.01396405172 	0.006904894059 	3.640652163e-08 	0.02295333475 	-9.479633401e-08 	4.375543558e-05
0.8008046515 	0.01402849283 	0.006956528606 	2.962394155e-08 	0.02295302762 	-7.682150866e-08 	4.375485011e-05
0.8041175789 	0.01409347241 	0.007007750017 	2.322428341e-08 	0.02295176834 	-5.97941503e-08 	4.375244957e-05
0.8073941181 	0.01415897614 	0.007058566754 	1.716972191e-08 	0.02294962185 	-4.374162063e-08 	4.374835777e-05
0.8106346707 	0.01422498228 	0.007108947472 	1.143949879e-08 	0.02294675915 	-2.873197733e-08 	4.374290066e-05
0.8138396595 	0.01429155746 	0.007158911834 	6.010808385e-09 	0.02294329071 	-1.482556175e-08 	4.373628886e-05
0.8170097807 	0.01435876759 	0.007208509721 	8.510123397e-10 	0.02293923597 	-2.052559443e-09 	4.372855939e-05
0.8175402391 	0.01437024121 	0.007216837998 	1.601275951e-07 	0.0229384671 	-6.858972355e-07 	4.372709371e-05
0.8201450131 	0.01442658987 	0.007257740857 	3.833605161e-09 	0.02293467901 	-9.456065993e-09 	4.371987256e-05
0.8232458362 	0.01449497468 	0.007306567955 	8.254131357e-09 	0.02292979278 	-1.973452566e-08 	4.371055805e-05
0.8263126747 	0.01456395591 	0.007354996473 	1.249051105e-08 	0.02292469959 	-2.877989649e-08 	4.370084901e-05
0.8293460587 	0.01463361027 	0.007403078196 	1.657757204e-08 	0.02291941105 	-3.658551751e-08 	4.369076759e-05
0.832346269 	0.01470395162 	0.007450841867 	2.055537693e-08 	0.02291394972 	-4.31650109e-08 	4.368035676e-05
0.8353136109 	0.0147749608 	0.007498279793 	2.444723548e-08 	0.02290842021 	-4.850414336e-08 	4.366981598e-05
0.8382484591 	0.01484667065 	0.007545404258 	2.826662519e-08 	0.02290290811 	-5.25810569e-08 	4.365930839e-05
0.8411512145 	0.01491914104 	0.007592248936 	3.201708738e-08 	0.02289744643 	-5.536589746e-08 	4.364889692e-05
0.8440222961 	0.01499237256 	0.007638830587 	3.570380048e-08 	0.02289206771 	-5.683896138e-08 	4.363864358e-05
0.8468619449 	0.01506627802 	0.007685108529 	3.932730918e-08 	0.02288692165 	-5.697888531e-08 	4.362883376e-05
0.8496705157 	0.01514078102 	0.007731045318 	4.289371201e-08 	0.02288215913 	-5.578988999e-08 	4.361975506e-05
0.852448358 	0.01521585222 	0.007776629151 	4.643040583e-08 	0.02287788323 	-5.333537918e-08 	4.361160402e-05
0.8551958614 	0.0152915403 	0.007821898034 	5.000011518e-08 	0.02287407637 	-4.977045854e-08 	4.360434708e-05
0.857913338 	0.01536792084 	0.007866915216 	5.370809376e-08 	0.02287063522 	-4.535333244e-08 	4.359778729e-05
0.8606010833 	0.01544511083 	0.00791175036 	5.766934974e-08 	0.02286744471 	-4.039302138e-08 	4.359170529e-05
0.8632594293 	0.01552330101 	0.007956502963 	6.196041464e-08 	0.02286431323 	-3.514220854e-08 	4.358573582e-05
0.8658887031 	0.01560265678 	0.008001249328 	6.654281151e-08 	0.02286108799 	-2.961646648e-08 	4.357958762e-05
0.8684892567 	0.01568320651 	0.008045994455 	7.11950487e-08 	0.02285775566 	-2.342257514e-08 	4.357323527e-05
0.8710613826 	0.01576467598 	0.00809060537 	7.550440365e-08 	0.0228545945 	-1.570571681e-08 	4.356720922e-05
0.8736053763 	0.0158464776 	0.008134803536 	7.895438233e-08 	0.02285223844 	-5.352734415e-09 	4.356271793e-05
0.8761215493 	0.01592787184 	0.008178263841 	8.114483447e-08 	0.02285144343 	8.495866992e-09 	4.356120241e-05
0.8786102089 	0.01600820891 	0.008220728838 	8.206827349e-08 	0.02285281741 	2.575651818e-08 	4.35638216e-05
0.8810716699 	0.01608729276 	0.008262164303 	8.231423848e-08 	0.02285642605 	4.484896828e-08 	4.357070067e-05
0.883506227 	0.01616564052 	0.008302857367 	8.304252678e-08 	0.02286151008 	6.272079808e-08 	4.358039224e-05
0.8859141583 	0.01624455883 	0.008343404828 	8.560847768e-08 	0.02286650764 	7.572695359e-08 	4.358991897e-05
0.888295757 	0.01632588969 	0.008384577159 	9.090946834e-08 	0.02286936232 	8.127912072e-08 	4.359536079e-05
0.8906513125 	0.01641130576 	0.008427009916 	9.871044479e-08 	0.02286828163 	7.960397064e-08 	4.35933007e-05
0.8929811107 	0.01650142999 	0.008470849541 	1.073837497e-07 	0.02286267229 	7.452678106e-08 	4.358260773e-05