0.3675691744 	-0.00955138254 	-0.001355011519 	5.389928806e-07 	0.05408427235 	0.007671628735 	-2.925793977e-06 	287.3122463 	40.7170582 	-0.01620182247
0.3677500057 	0 	0 	0 	0.1591975057 	0.02251178577 	-8.946879243e-06 	0 	0 	0
0.3679308446 	0 	0 	0 	0.3174771835 	0.04482647695 	-1.739694014e-05 	0 	0 	0
0.3681116904 	0 	0 	0 	0.4742361425 	0.06692466703 	-2.532928034e-05 	0 	0 	0
0.3682925426 	0 	0 	0 	0.6277861922 	0.08859340378 	-3.263221185e-05 	0 	0 	0
0.3684734006 	0 	0 	0 	0.7752020194 	0.1094417071 	-3.911272429e-05 	0 	0 	0
0.3686542637 	0 	0 	0 	0.9132482723 	0.1289577554 	-4.459069933e-05 	0 	0 	0
0.3688351313 	0 	0 	0 	1.039706195 	0.1467755999 	-4.903074719e-05 	0 	0 	0
0.3690160028 	0 	0 	0 	1.153916345 	0.1628270294 	-5.25459548e-05 	0 	0 	0
0.3691968776 	0 	0 	0 	1.256422314 	0.1772154053 	-5.521940053e-05 	0 	0 	0
0.3693777551 	0 	0 	0 	1.348397156 	0.1900910596 	-5.720097458e-05 	0 	0 	0
0.3695586347 	0 	0 	0 	1.431205663 	0.2016795283 	-5.867154859e-05 	0 	0 	0
0.3697395158 	0 	0 	0 	1.506099858 	0.2121838343 	-5.963800546e-05 	0 	0 	0
0.3699203977 	0 	0 	0 	1.574113026 	0.2217100392 	-6.015481537e-05 	0 	0 	0
0.3701012798 	0 	0 	0 	1.636111924 	0.2303696815 	-6.031725622e-05 	0 	0 	0
0.3702821617 	0 	0 	0 	1.692855563 	0.238283894 	-6.016796864e-05 	0 	0 	0
0.3704630425 	0 	0 	0 	1.745047927 	0.2455525399 	-5.975401176e-05 	0 	0 	0
0.3706439218 	0 	0 	0 	1.793330072 	0.252266072 	-5.911096299e-05 	0 	0 	0
0.370824799 	0 	0 	0 	1.838215326 	0.2584971101 	-5.826512357e-05 	0 	0 	0
0.3710056733 	0 	0 	0 	1.880104417 	0.2643025551 	-5.723833721e-05 	0 	0 	0
0.3711865443 	0 	0 	0 	1.919334752 	0.269730354 	-5.604911322e-05 	0 	0 	0
0.3713674113 	0 	0 	0 	1.956196067 	0.2748216434 	-5.471327743e-05 	0 	0 	0
0.3715482738 	0 	0 	0 	1.990938648 	0.2796119534 	-5.324444127e-05 	0 	0 	0
0.371729131 	0 	0 	0 	2.02377941 	0.2841320786 	-5.165437434e-05 	0 	0 	0
0.3719099825 	0 	0 	0 	2.054906917 	0.2884087908 	-4.9953301e-05 	0 	0 	0
0.3720908276 	0 	0 	0 	2.084485599 	0.2924654365 	-4.815013525e-05 	0 	0 	0
0.3722716657 	0 	0 	0 	2.112659292 	0.2963224376 	-4.625266981e-05 	0 	0 	0
0.3724524963 	0 	0 	0 	2.139554276 	0.2999977214 	-4.426773839e-05 	0 	0 	0
0.3726333187 	0 	0 	0 	2.165282024 	0.3035071507 	-4.220136038e-05 	0 	0 	0
0.3728141323 	0 	0 	0 	2.189942031 	0.3068650107 	-4.005889423e-05 	0 	0 	0
0.3729949365 	0 	0 	0 	2.216841573 	0.3105218266 	-3.789843882e-05 	0 	0 	0
0.3732758447 	0 	0 	0 	2.248844659 	0.314859444 	-3.427680133e-05 	0 	0 	0
0.3735620054 	0 	0 	0 	2.282571735 	0.3194194432 	-3.048671259e-05 	0 	0 	0
0.3738535141 	0 	0 	0 	2.315086943 	0.323803138 	-2.648087473e-05 	0 	0 	0
0.3741504675 	0 	0 	0 	2.346495142 	0.3280250311 	-2.226194728e-05 	0 	0 	0
0.374452964 	0 	0 	0 	2.376890551 	0.3320983857 	-1.783209172e-05 	0 	0 	0
0.3747611033 	0 	0 	0 	2.406357473 	0.3360351195 	-1.31930063e-05 	0 	0 	0
0.3750749871 	0 	0 	0 	2.434971771 	0.3398459487 	-8.345943305e-06 	0 	0 	0
0.3753947182 	0 	0 	0 	2.462802467 	0.3435406181 	-3.291702428e-06 	0 	0 	0
0.3755993181 	0 	0 	0 	2.47983379 	0.3457945079 	5.530777363e-05 	0 	0 	0
0.3757202004 	0 	0 	0 	2.489914191 	0.347128944 	-1.921861887e-06 	0 	0 	0
0.3760513922 	0 	0 	0 	2.516365496 	0.3506196578 	-7.257618962e-06 	0 	0 	0
0.376388741 	0 	0 	0 	2.542202796 	0.3540180805 	-1.279426974e-05 	0 	0 	0
0.3767323563 	0 	0 	0 	2.567457433 	0.3573286551 	-1.852871449e-05 	0 	0 	0
0.3770823489 	0 	0 	0 	2.592134038 	0.3605516476 	-2.445233787e-05 	0 	0 	0
0.3774388313 	0 	0 	0 	2.61620811 	0.3636828065 	-3.055043639e-05 	0 	0 	0
0.3778019175 	0 	0 	0 	2.639631014 	0.3667144068 	-3.68034142e-05 	0 	0 	0
0.3781717233 	0 	0 	0 	2.662335705 	0.369635977 	-4.318711135e-05 	0 	0 	0
0.3785483659 	0 	0 	0 	2.684240422 	0.3724347557 	-4.967298676e-05 	0 	0 	0
0.3789319641 	0 	0 	0 	2.705250759 	0.3750960281 	-5.622789301e-05 	0 	0 	0
0.3793226385 	0 	0 	0 	2.725261103 	0.377603254 	-6.28139282e-05 	0 	0 	0
0.3797205109 	0 	0 	0 	2.744158217 	0.3799387046 	-6.939135399e-05 	0 	0 	0
0.3801257049 	0 	0 	0 	2.761829741 	0.3820873659 	-7.594515626e-05 	0 	0 	0
0.3805383456 	0 	0 	0 	2.778184141 	0.384037521 	-8.241462417e-05 	0 	0 	0
0.3809585596 	0 	0 	0 	2.793207995 	0.3857692076 	-8.877928964e-05 	0 	0 	0
0.381386475 	0 	0 	0 	2.807035751 	0.3873039955 	-9.531544096e-05 	0 	0 	0
0.3818233582 	0 	0 	0 	2.819940956 	0.3887069794 	-0.0001020916657 	0 	0 	0
0.3822794906 	0 	0 	0 	2.832079353 	0.389983868 	-0.0001090090733 	0 	0 	0
0.3827440409 	0 	0 	0 	2.843376034 	0.3911128395 	-0.0001158935508 	0 	0 	0
0.3832171622 	0 	0 	0 	2.853773862 	0.3920969763 	-0.0001228210825 	0 	0 	0
0.3836990102 	0 	0 	0 	2.863295307 	0.3929396087 	-0.0001297207208 	0 	0 	0
0.3841897433 	0 	0 	0 	2.871965935 	0.3936435215 	-0.0001366006356 	0 	0 	0
0.384689523 	0 	0 	0 	2.879817696 	0.3942128937 	-0.0001434675641 	0 	0 	0
0.3851985134 	0 	0 	0 	2.886889403 	0.3946530291 	-0.0001503316733 	0 	0 	0
0.3857168816 	0 	0 	0 	2.893225684 	0.3949702265 	-0.0001572051647 	0 	0 	0
0.3862447977 	0 	0 	0 	2.898875158 	0.3951714706 	-0.0001640998347 	0 	0 	0
0.3867824347 	0 	0 	0 	2.903888069 	0.395264029 	-0.0001710245947 	0 	0 	0
0.3873299689 	0 	0 	0 	2.908313772 	0.3952550406 	-0.0001779845965 	0 	0 	0
0.3878875794 	0 	0 	0 	2.912198672 	0.3951512124 	-0.0001849814168 	0 	0 	0
0.3884554486 	0 	0 	0 	2.915586727 	0.3949589548 	-0.0001817832178 	0 	0 	0
0.3890337624 	0 	0 	0 	2.918524966 	0.3946853806 	-0.0001724633613 	0 	0 	0
0.3896227096 	0 	0 	0 	2.921068017 	0.3943388777 	-0.0001631864894 	0 	0 	0
0.3902224824 	0 	0 	0 	2.923273256 	0.3939280592 	-0.0001539428836 	0 	0 	0
0.3908332767 	0 	0 	0 	2.925192175 	0.3934606024 	-0.000144713974 	0 	0 	0
0.3914552915 	0 	0 	0 	2.926867286 	0.392942973 	-0.0001354817835 	0 	0 	0
0.3920887296 	0 	0 	0 	2.928333285 	0.3923804654 	-0.0001262306549 	0 	0 	0
0.3927337972 	0 	0 	0 	2.92961862 	0.3917773681 	-0.0001169487187 	0 	0 	0
0.3933907042 	0 	0 	0 	2.930746706 	0.3911371828 	-0.0001076270852 	0 	0 	0
0.3940596643 	0 	0 	0 	2.931736895 	0.3904627918 	-9.825898855e-05 	0 	0 	0
0.3947408949 	0 	0 	0 	2.932605285 	0.3897564934 	-8.883935591e-05 	0 	0 	0
0.3954346172 	0 	0 	0 	2.933367371 	0.3890180898 	-7.936337335e-05 	0 	0 	0
0.3961494788 	0 	0 	0 	2.934037683 	0.3882439042 	-6.969138859e-05 	0 	0 	0
0.3968878893 	0 	0 	0 	2.93462361 	0.3874341461 	-5.979304884e-05 	0 	0 	0
0.3976397877 	0 	0 	0 	2.935127962 	0.3865949713 	-4.983773248e-05 	0 	0 	0
0.3984054155 	0 	0 	0 	2.935556055 	0.385730153 	-3.982624676e-05 	0 	0 	0
0.3991850187 	0 	0 	0 	2.9359142 	0.3848405728 	-2.975882596e-05 	0 	0 	0
0.3999788474 	0 	0 	0 	2.936207788 	0.3839269373 	-1.963615101e-05 	0 	0 	0
0.4007871563 	0 	0 	0 	2.936441427 	0.3829898376 	-9.459286953e-06 	0 	0 	0
0.4015479658 	0 	0 	0 	2.936605571 	0.3821023179 	-4.982477817e-06 	0 	0 	0
0.4016101199 	0 	0 	0 	2.936618921 	0.3820299372 	-7.592464654e-07 	0 	0 	0
0.4024470408 	0 	0 	0 	2.936742028 	0.3810495937 	-1.089215685e-05 	0 	0 	0
0.4032992213 	0 	0 	0 	2.936815456 	0.380046969 	-2.107462156e-05 	0 	0 	0
0.4041669344 	0 	0 	0 	2.936838421 	0.378894978 	-3.128824509e-05 	0 	0 	0
0.4054980656 	0 	0 	0 	2.936797461 	0.3774457784 	-4.673168644e-05 	0 	0 	0
0.4068429052 	0 	0 	0 	2.936660209 	0.3758470015 	-6.19953875e-05 	0 	0 	0
0.4082015963 	0 	0 	0 	2.936438513 	0.3742277877 	-7.709334922e-05 	0 	0 	0
0.4095742835 	0 	0 	0 	2.936136642 	0.3725806495 	-9.201852087e-05 	0 	0 	0
0.4109925526 	0 	0 	0 	2.935756783 	0.370895223 	-0.0001071848254 	0 	0 	0
0.4124285917 	0 	0 	0 	2.935302631 	0.3691809313 	-0.0001221885963 	0 	0 	0
0.4138792945 	0 	0 	0 	2.934779963 	0.3674483473 	-0.0001369840321 	0 	0 	0
0.4153448143 	0 	0 	0 	2.934191898 	0.3656992756 	-0.0001515783879 	0 	0 	0
0.4168253059 	0 	0 	0 	2.933539059 	0.3639342708 	-0.0001460991603 	0 	0 	0
0.4183209264 	0 	0 	0 	2.932816266 	0.3621518795 	-0.0001296060066 	0 	0 	0
0.4198318349 	0 	0 	0 	2.932015056 	0.360349873 	-0.0001133060445 	0 	0 	0
0.4213581924 	0 	0 	0 	2.931131599 	0.3585277655 	-9.723271512e-05 	0 	0 	0
0.4229001622 	0 	0 	0 	2.93016312 	0.3566796044 	-8.138314716e-05 	0 	0 	0
0.4244819438 	0 	0 	0 	2.929105399 	0.3547943909 	-6.546770984e-05 	0 	0 	0
0.4260925758 	0 	0 	0 	2.927961047 	0.3528759303 	-4.965031259e-05 	0 	0 	0
0.4277195391 	0 	0 	0 	2.926738729 	0.3509358872 	-3.409456164e-05 	0 	0 	0
0.4293630066 	0 	0 	0 	2.925444236 	0.3489787897 	-1.880200521e-05 	0 	0 	0
0.4310231538 	0 	0 	0 	2.924081254 	0.3470054325 	-3.772298153e-06 	0 	0 	0
0.431448537 	0 	0 	0 	2.923718888 	0.3465006016 	-3.3217709e-05 	0 	0 	0
0.4326988195 	0 	0 	0 	2.922651101 	0.3450185368 	-1.086568484e-05 	0 	0 	0
0.4343910777 	0 	0 	0 	2.921159437 	0.3430174716 	-2.520362555e-05 	0 	0 	0
0.436100568 	0 	0 	0 	2.919606821 	0.3409974796 	-3.928683602e-05 	0 	0 	0
0.4378450104 	0 	0 	0 	2.91798795 	0.3389481721 	-5.329221412e-05 	0 	0 	0
0.4396278893 	0 	0 	0 	2.916304912 	0.33686924 	-6.723151454e-05 	0 	0 	0
0.4414287725 	0 	0 	0 	2.914569387 	0.3347729648 	-8.088941269e-05 	0 	0 	0
0.4432478542 	0 	0 	0 	2.912789716 	0.3326660777 	-9.426955893e-05 	0 	0 	0
0.445085332 	0 	0 	0 	2.910968935 	0.3305493024 	-0.0001073737364 	0 	0 	0
0.4469414059 	0 	0 	0 	2.909109742 	0.3284232291 	-0.0001202035385 	0 	0 	0
0.4488162792 	0 	0 	0 	2.907213435 	0.3262870173 	-0.0001261982479 	0 	0 	0
0.4507145584 	0 	0 	0 	2.905271878 	0.3241307465 	-0.0001114700285 	0 	0 	0
0.4526669111 	0 	0 	0 	2.903279477 	0.3219456507 	-9.670561327e-05 	0 	0 	0
0.4546388831 	0 	0 	0 	2.901246826 	0.3197438978 	-8.22443349e-05 	0 	0 	0
0.4566306909 	0 	0 	0 	2.899184427 	0.3175354824 	-6.808969648e-05 	0 	0 	0
0.4586425543 	0 	0 	0 	2.897093421 	0.3153208182 	-5.423958659e-05 	0 	0 	0
0.4606746966 	0 	0 	0 	2.894974766 	0.3131000045 	-4.069204441e-05 	0 	0 	0
0.4627273447 	0 	0 	0 	2.892824358 	0.3108686168 	-2.744446156e-05 	0 	0 	0
0.4648189542 	0 	0 	0 	2.890632607 	0.3086162752 	-1.435256253e-05 	0 	0 	0
0.466953052 	0 	0 	0 	2.888399099 	0.3063422755 	-1.413437284e-06 	0 	0 	0
0.4671922495 	0 	0 	0 	2.888147805 	0.3060885923 	-1.651335216e-05 	0 	0 	0
0.469107006 	0 	0 	0 	2.886132149 	0.3040593464 	-1.10888618e-05 	0 	0 	0
0.4712824151 	0 	0 	0 	2.883839705 	0.3017719141 	-2.325745888e-05 	0 	0 	0
0.4734797172 	0 	0 	0 	2.881522319 	0.2994798399 	-3.510860983e-05 	0 	0 	0
0.4756991628 	0 	0 	0 	2.879176142 	0.2971794801 	-4.664381061e-05 	0 	0 	0
0.4779561872 	0 	0 	0 	2.876791024 	0.2948610165 	-5.796313346e-05 	0 	0 	0
0.4802602884 	0 	0 	0 	2.874364779 	0.2925220615 	-6.910685061e-05 	0 	0 	0
0.4825874655 	0 	0 	0 	2.871907566 	0.2901733389 	-7.990835905e-05 	0 	0 	0
0.4849379871 	0 	0 	0 	2.869426025 	0.2878211146 	-9.037322477e-05 	0 	0 	0
0.4873121266 	0 	0 	0 	2.866920294 	0.2854652917 	-0.000100505155 	0 	0 	0
0.4897101617 	0 	0 	0 	2.864382145 	0.2830989453 	-9.799053845e-05 	0 	0 	0
0.492163323 	0 	0 	0 	2.861801807 	0.2807121699 	-8.588839598e-05 	0 	0 	0
0.4946490888 	0 	0 	0 	2.859184973 	0.2783111819 	-7.408873764e-05 	0 	0 	0
0.4971597453 	0 	0 	0 	2.856541951 	0.2759056885 	-6.264273891e-05 	0 	0 	0
0.4996955911 	0 	0 	0 	2.853874972 	0.2734975801 	-5.154643375e-05 	0 	0 	0
0.5022569303 	0 	0 	0 	2.851177848 	0.2710818138 	-4.079334695e-05 	0 	0 	0
0.5048675072 	0 	0 	0 	2.848440906 	0.2686493847 	-3.025895837e-05 	0 	0 	0
0.507518827 	0 	0 	0 	2.845666352 	0.2662026756 	-2.000944633e-05 	0 	0 	0
0.5101966917 	0 	0 	0 	2.842864023 	0.2637509268 	-1.012064838e-05 	0 	0 	0
0.5129014286 	0 	0 	0 	2.840037817 	0.2612973743 	-5.866728618e-07 	0 	0 	0
0.5130736398 	0 	0 	0 	2.839857707 	0.2611421292 	-1.00217798e-05 	0 	0 	0
0.5156320481 	0 	0 	0 	2.837178239 	0.2588367275 	-8.542392868e-06 	0 	0 	0
0.518419256 	0 	0 	0 	2.834277754 	0.2563597019 	-1.745186037e-05 	0 	0 	0
0.5212419599 	0 	0 	0 	2.831341836 	0.2538716576 	-2.603411418e-05 	0 	0 	0
0.5240930218 	0 	0 	0 	2.828379955 	0.251380878 	-3.426254357e-05 	0 	0 	0
0.5269728009 	0 	0 	0 	2.825391489 	0.2488870448 	-4.214471352e-05 	0 	0 	0
0.5298914659 	0 	0 	0 	2.822367356 	0.2463829565 	-4.972281282e-05 	0 	0 	0
0.532864735 	0 	0 	0 	2.819303596 	0.2438650523 	-5.70413966e-05 	0 	0 	0
0.5358678962 	0 	0 	0 	2.816208905 	0.2413414575 	-6.400605987e-05 	0 	0 	0
0.538901337 	0 	0 	0 	2.813089368 	0.2388171124 	-7.062784195e-05 	0 	0 	0
0.5419666093 	0 	0 	0 	2.809936334 	0.2362858588 	-7.691647061e-05 	0 	0 	0
0.5450948104 	0 	0 	0 	2.80674189 	0.2337406936 	-7.379933145e-05 	0 	0 	0
0.5482545274 	0 	0 	0 	2.803514053 	0.2311892021 	-6.568614537e-05 	0 	0 	0
0.5514461789 	0 	0 	0 	2.80026052 	0.2286375596 	-5.791992358e-05 	0 	0 	0
0.5546709803 	0 	0 	0 	2.796973164 	0.2260802528 	-5.048557226e-05 	0 	0 	0
0.5579586754 	0 	0 	0 	2.793644255 	0.2235107765 	-4.32966588e-05 	0 	0 	0
0.5612796104 	0 	0 	0 	2.790281149 	0.2209359428 	-3.64504387e-05 	0 	0 	0
0.564634237 	0 	0 	0 	2.786889423 	0.2183604223 	-2.99372782e-05 	0 	0 	0
0.5680294603 	0 	0 	0 	2.783461446 	0.2157790217 	-2.372852243e-05 	0 	0 	0
0.5714814891 	0 	0 	0 	2.779992682 	0.2131883144 	-1.778992458e-05 	0 	0 	0
0.5749685919 	0 	0 	0 	2.776489768 	0.2105942159 	-1.217682719e-05 	0 	0 	0
0.5784912566 	0 	0 	0 	2.77295366 	0.2079981909 	-6.877151724e-06 	0 	0 	0
0.5820660421 	0 	0 	0 	2.769377088 	0.2053951456 	-1.847618284e-06 	0 	0 	0
0.583462122 	0 	0 	0 	2.767983129 	0.204389165 	-6.357906108e-05 	0 	0 	0
0.5856870712 	0 	0 	0 	2.765760011 	0.2027861534 	-2.885328673e-06 	0 	0 	0
0.5893448323 	0 	0 	0 	2.762107593 	0.2001755804 	-7.314601117e-06 	0 	0 	0
0.593044075 	0 	0 	0 	2.758416079 	0.1975612396 	-1.146458552e-05 	0 	0 	0
0.5968014921 	0 	0 	0 	2.754680363 	0.1949397577 	-1.536226391e-05 	0 	0 	0
0.6005975097 	0 	0 	0 	2.750905536 	0.1923157719 	-1.897486997e-05 	0 	0 	0
0.6044326823 	0 	0 	0 	2.747090928 	0.1896898669 	-2.231628023e-05 	0 	0 	0
0.6083262453 	0 	0 	0 	2.743229856 	0.1870577932 	-2.542011361e-05 	0 	0 	0
0.6122629626 	0 	0 	0 	2.739325121 	0.184422478 	-2.826079872e-05 	0 	0 	0
0.6162404639 	0 	0 	0 	2.735377474 	0.1817856306 	-3.084821333e-05 	0 	0 	0
0.6202729019 	0 	0 	0 	2.731381316 	0.1791441237 	-3.320835676e-05 	0 	0 	0
0.6243530268 	0 	0 	0 	2.727337137 	0.1764992413 	-3.532902827e-05 	0 	0 	0
0.6284756376 	0 	0 	0 	2.723245459 	0.1738526824 	-3.721677657e-05 	0 	0 	0
0.6326526999 	0 	0 	0 	2.719101622 	0.1712022279 	-3.889356573e-05 	0 	0 	0
0.6368792419 	0 	0 	0 	2.714905244 	0.1685486841 	-4.035209874e-05 	0 	0 	0
0.6411500483 	0 	0 	0 	2.710656101 	0.1658933881 	-4.160018869e-05 	0 	0 	0
0.6454768345 	0 	0 	0 	2.706349663 	0.1632344324 	-4.265685364e-05 	0 	0 	0
0.6498531354 	0 	0 	0 	2.701985643 	0.1605728765 	-4.351612204e-05 	0 	0 	0
0.65427556 	0 	0 	0 	2.697562727 	0.1579095005 	-4.418911692e-05 	0 	0 	0
0.6587567266 	0 	0 	0 	2.693075944 	0.1552423263 	-4.395391376e-05 	0 	0 	0
0.6632864859 	0 	0 	0 	2.688525206 	0.1525728476 	-4.162953149e-05 	0 	0 	0
0.6678663167 	0 	0 	0 	2.683908298 	0.1499013257 	-3.948394195e-05 	0 	0 	0
0.6725042632 	0 	0 	0 	2.679233199 	0.1472332331 	-3.751020879e-05 	0 	0 	0
0.6771398434 	0 	0 	0 	2.674539131 	0.1445921678 	-3.572463449e-05 	0 	0 	0
0.6817269438 	0 	0 	0 	2.669863701 	0.1419992154 	-3.412113252e-05 	0 	0 	0
0.6862659936 	0 	0 	0 	2.665217741 	0.1394592595 	-3.269051746e-05 	0 	0 	0
0.6907531043 	0 	0 	0 	2.660600669 	0.1369712741 	-3.14156814e-05 	0 	0 	0
0.6951949272 	0 	0 	0 	2.656009951 	0.134532845 	-3.027717414e-05 	0 	0 	0
0.6995877647 	0 	0 	0 	2.651445278 	0.1321429537 	-2.926861827e-05 	0 	0 	0
0.7039307073 	0 	0 	0 	2.64690574 	0.1298004262 	-2.837398718e-05 	0 	0 	0
0.7082302496 	0 	0 	0 	2.642388656 	0.127502894 	-2.758041725e-05 	0 	0 	0
0.7124812566 	0 	0 	0 	2.637894266 	0.1252497615 	-2.688271467e-05 	0 	0 	0
0.7166846618 	0 	0 	0 	2.633421681 	0.1230398811 	-2.626746685e-05 	0 	0 	0
0.7208449964 	0 	0 	0 	2.628968587 	0.1208712322 	-2.572675282e-05 	0 	0 	0
0.7249584804 	0 	0 	0 	2.624535123 	0.1187432417 	-2.525552077e-05 	0 	0 	0
0.729026125 	0 	0 	0 	2.620120389 	0.1166548183 	-2.484335229e-05 	0 	0 	0
0.7330514326 	0 	0 	0 	2.615722434 	0.1146042658 	-2.448486462e-05 	0 	0 	0
0.7370316237 	0 	0 	0 	2.6113413 	0.1125910213 	-2.417608097e-05 	0 	0 	0
0.7409673456 	0 	0 	0 	2.606976163 	0.1106141237 	-2.390900258e-05 	0 	0 	0
0.744861872 	0 	0 	0 	2.602625212 	0.108672072 	-2.36792305e-05 	0 	0 	0
0.7487129188 	0 	0 	0 	2.598288329 	0.1067642832 	-2.348441516e-05 	0 	0 	0
0.7525210598 	0 	0 	0 	2.593964904 	0.1048899969 	-2.331841012e-05 	0 	0 	0
0.7562885687 	0 	0 	0 	2.589653376 	0.103047947 	-2.317716788e-05 	0 	0 	0
0.7600145333 	0 	0 	0 	2.585353224 	0.1012374212 	-2.305975416e-05 	0 	0 	0
0.7636991078 	0 	0 	0 	2.581063964 	0.09945781305 	-2.296162517e-05 	0 	0 	0
0.7673436288 	0 	0 	0 	2.576784354 	0.09770811037 	-2.287891861e-05 	0 	0 	0
0.7709484819 	0 	0 	0 	2.572513475 	0.09598749293 	-2.281140969e-05 	0 	0 	0
0.7745133872 	0 	0 	0 	2.568250908 	0.09429545006 	-2.27562002e-05 	0 	0 	0
0.7780389421 	0 	0 	0 	2.563995693 	0.09263120558 	-2.270994231e-05 	0 	0 	0
0.7815265585 	0 	0 	0 	2.559746598 	0.09099388329 	-2.267178887e-05 	0 	0 	0
0.784975603 	0 	0 	0 	2.555503094 	0.08938296655 	-2.26408361e-05 	0 	0 	0
0.7883865467 	0 	0 	0 	2.551264528 	0.08779791595 	-2.177712243e-05 	0 	0 	0
0.7917602851 	0 	0 	0 	2.547029757 	0.0862379652 	-2.092705075e-05 	0 	0 	0
0.7950971832 	0 	0 	0 	2.542797855 	0.08470248184 	-2.009367078e-05 	0 	0 	0
0.7983972724 	0 	0 	0 	2.53856821 	0.0831910112 	-1.927794085e-05 	0 	0 	0
0.8016609923 	0 	0 	0 	2.534339952 	0.08170298736 	-1.848097726e-05 	0 	0 	0
0.8048892448 	0 	0 	0 	2.530111963 	0.08023775318 	-1.770282938e-05 	0 	0 	0
0.8080820428 	0 	0 	0 	2.525883429 	0.07879481296 	-1.69426284e-05 	0 	0 	0
0.8112396897 	0 	0 	0 	2.521653666 	0.07737374958 	-1.620114557e-05 	0 	0 	0
0.8143625974 	0 	0 	0 	2.517421718 	0.07597403387 	-1.547901743e-05 	0 	0 	0
0.8174515457 	0 	0 	0 	2.513186503 	0.0745951045 	-1.477581768e-05 	0 	0 	0
0.8205065383 	0 	0 	0 	2.508947212 	0.07323653725 	-1.409086834e-05 	0 	0 	0
0.8235279445 	0 	0 	0 	2.504703111 	0.07189794637 	-1.342461747e-05 	0 	0 	0
0.8265161521 	0 	0 	0 	2.500453263 	0.070578869 	-1.277738793e-05 	0 	0 	0
0.8294717838 	0 	0 	0 	2.496196649 	0.06927882469 	-1.214873626e-05 	0 	0 	0
0.8323949679 	0 	0 	0 	2.491932431 	0.0679974281 	-1.153790408e-05 	0 	0 	0
0.8352860472 	0 	0 	0 	2.487659855 	0.0667343285 	-1.094508366e-05 	0 	0 	0
0.8381453877 	0 	0 	0 	2.483378073 	0.06548913753 	-1.037039116e-05 	0 	0 	0
0.8409734693 	0 	0 	0 	2.479086188 	0.06426144538 	-9.813582626e-06 	0 	0 	0
0.8437705646 	0 	0 	0 	2.474783438 	0.06305089183 	-9.273752777e-06 	0 	0 	0
0.8465369613 	0 	0 	0 	2.470469265 	0.06185715956 	-8.750867809e-06 	0 	0 	0
0.8492730063 	0 	0 	0 	2.466143238 	0.0606799165 	-8.244918191e-06 	0 	0 	0
0.851979068 	0 	0 	0 	2.461804976 	0.05951880492 	-7.755825399e-06 	0 	0 	0
0.8546555343 	0 	0 	0 	2.457454138 	0.05837347178 	-7.282838623e-06 	0 	0 	0
0.8573026396 	0 	0 	0 	2.453090378 	0.05724360839 	-6.825610794e-06 	0 	0 	0
0.859920713 	0 	0 	0 	2.448713047 	0.05612890211 	-6.384069634e-06 	0 	0 	0
0.862510079 	0 	0 	0 	2.444320837 	0.05502903448 	-5.958101033e-06 	0 	0 	0
0.8650710966 	0 	0 	0 	2.43991158 	0.05394368271 	-5.547418428e-06 	0 	0 	0
0.8676040616 	0 	0 	0 	2.435482346 	0.05287256034 	-5.151244909e-06 	0 	0 	0
0.8701092526 	0 	0 	0 	2.431029908 	0.05181543883 	-4.769258991e-06 	0 	0 	0
0.8725869784 	0 	0 	0 	2.426551533 	0.05077212113 	-4.401154056e-06 	0 	0 	0
0.8750375438 	0 	0 	0 	2.422046096 	0.04974245392 	-4.046597934e-06 	0 	0 	0
0.8774612751 	0 	0 	0 	2.417515246 	0.04872630219 	-3.705171951e-06 	0 	0 	0
0.8798584493 	0 	0 	0 	2.412964155 	0.047723536 	-3.37626418e-06 	0 	0 	0
0.8822293439 	0 	0 	0 	2.408401246 	0.04673397737 	-3.059783411e-06 	0 	0 	0
0.8845742495 	0 	0 	0 	2.403836421 	0.04575731026 	-2.755786754e-06 	0 	0 	0
0.886893453 	0 	0 	0 	2.399277903 	0.04479305195 	-2.464364685e-06 	0 	0 	0
0.8891872474 	0 	0 	0 	2.39472832 	0.04384054796 	-2.185484833e-06 	0 	0 	0
0.8914559102 	0 	0 	0 	2.390181161 	0.04289905902 	-1.918668222e-06 	0 	0 	0
0.8936997032 	0 	0 	0 	2.385618891 	0.04196790763 	-1.663464485e-06 	0 	0 	0
0.8959189001 	0 	0 	0 	2.381013781 	0.04104662865 	-1.419314487e-06 	0 	0 	0
0.8981137716 	0 	0 	0 	2.376332396 	0.04013514305 	-1.185589842e-06 	0 	0 	0
0.9002845849 	0 	0 	0 	2.371544247 	0.03923386715 	-9.617246275e-07 	0 	0 	0
0.9024316135 	0 	0 	0 	2.366634015 	0.03834368193 	-7.472349073e-07 	0 	0 	0
0.9045551051 	0 	0 	0 	2.361614437 	0.03746569372 	-5.418840379e-07 	0 	0 	0
0.9066553167 	0 	0 	0 	2.356533461 	0.03660073839 	-3.458479911e-07 	0 	0 	0
0.9087325038 	0 	0 	0 	2.351467833 	0.03574885588 	-1.59306748e-07 	0 	0 	0
0.9105763296 	0 	0 	0 	2.347008869 	0.03499517658 	-4.128770401e-06 	0 	0 	0
0.910786914 	0 	0 	0 	2.346499562 	0.03490908747 	-1.763853361e-08 	0 	0 	0
0.9128187603 	0 	0 	0 	2.341682798 	0.03407974493 	-1.841120582e-07 	0 	0 	0
0.9148283377 	0 	0 	0 	2.337017405 	0.03325907116 	-3.420850458e-07 	0 	0 	0
0.916815882 	0 	0 	0 	2.332440377 	0.03244559047 	-4.919873099e-07 	0 	0 	0
0.9187816346 	0 	0 	0 	2.3278383 	0.03163834275 	-6.341112103e-07 	0 	0 	0
0.9207258341 	0 	0 	0 	2.32307567 	0.03083707762 	-7.687151654e-07 	0 	0 	0
0.9226487163 	0 	0 	0 	2.31803704 	0.03004248521 	-8.959301714e-07 	0 	0 	0
0.9245505145 	0 	0 	0 	2.31267875 	0.0292559293 	-1.015908029e-06 	0 	0 	0
0.9264314605 	0 	0 	0 	2.30706991 	0.02847846154 	-1.12918846e-06 	0 	0 	0
0.9282917795 	0 	0 	0 	2.301384846 	0.02770985753 	-1.236652429e-06 	0 	0 	0
0.9301316963 	0 	0 	0 	2.295827024 	0.02695086708 	-1.335574434e-06 	0 	0 	0
0.9319514339 	0 	0 	0 	2.290519473 	0.02619775007 	-1.432476546e-06 	0 	0 	0
0.933751213 	0 	0 	0 	2.285431042 	0.0254485037 	-1.524269979e-06 	0 	0 	0
0.9355312517 	0 	0 	0 	2.280423528 	0.02470904532 	-1.600551577e-06 	0 	0 	0
0.9372917658 	0 	0 	0 	2.275385777 	0.02397734731 	-1.678507643e-06 	0 	0 	0
0.9390329689 	0 	0 	0 	2.270278618 	0.02324988666 	-1.752979455e-06 	0 	0 	0
0.9407550703 	0 	0 	0 	2.265089459 	0.02252943081 	-1.814683759e-06 	0 	0 	0
0.9424582788 	0 	0 	0 	2.259808688 	0.02181664558 	-1.872547697e-06 	0 	0 	0
0.9441428007 	0 	0 	0 	2.254427551 	0.02111078648 	-1.924936937e-06 	0 	0 	0
0.9458088403 	0 	0 	0 	2.248936844 	0.02041175901 	-1.971892355e-06 	0 	0 	0
0.9474565996 	0 	0 	0 	2.24332645 	0.01971951744 	-2.013485156e-06 	0 	0 	0
0.9490862781 	0 	0 	0 	2.237585337 	0.01903403969 	-2.049712e-06 	0 	0 	0
0.9506980736 	0 	0 	0 	2.231701443 	0.0183553017 	-2.080605035e-06 	0 	0 	0
0.9522921807 	0 	0 	0 	2.225661603 	0.01768341349 	-2.106204559e-06 	0 	0 	0
0.9538687924 	0 	0 	0 	2.219451381 	0.01701814277 	-2.126560458e-06 	0 	0 	0
0.9554281001 	0 	0 	0 	2.213603579 	0.01641492798 	-2.146872043e-06 	0 	0 	0
0.9564438863 	0 	0 	0 	2.208741242 	0.01593079811 	-2.148868404e-06 	0 	0 	0
0.9574409721 	0 	0 	0 	2.204379938 	0.01550939929 	-2.153733828e-06 	0 	0 	0
0.9584197011 	0 	0 	0 	2.199968397 	0.01509553378 	-2.156419384e-06 	0 	0 	0
0.9593804106 	0 	0 	0 	2.195501675 	0.01468920985 	-2.156994264e-06 	0 	0 	0
0.9603234318 	0 	0 	0 	2.190974853 	0.01429025684 	-2.155541108e-06 	0 	0 	0
0.9612490897 	0 	0 	0 	2.186383021 	0.01389856868 	-2.152133815e-06 	0 	0 	0
0.9621577035 	0 	0 	0 	2.181721244 	0.01351403628 	-2.14684343e-06 	0 	0 	0
0.9630495863 	0 	0 	0 	2.176984562 	0.01313655371 	-2.139742772e-06 	0 	0 	0
0.9639250457 	0 	0 	0 	2.172167977 	0.01276601976 	-2.130899702e-06 	0 	0 	0
0.9647843834 	0 	0 	0 	2.167266441 	0.01240233665 	-2.120376185e-06 	0 	0 	0
0.9656278959 	0 	0 	0 	2.162274849 	0.01204540984 	-2.108231677e-06 	0 	0 	0
0.9664558742 	0 	0 	0 	2.157188025 	0.01169514829 	-2.094523335e-06 	0 	0 	0
0.9672686038 	0 	0 	0 	2.152000711 	0.01135146441 	-2.079306178e-06 	0 	0 	0
0.9680663651 	0 	0 	0 	2.146707554 	0.01101427388 	-2.062633205e-06 	0 	0 	0
0.9688494334 	0 	0 	0 	2.141303095 	0.01068349558 	-2.044555533e-06 	0 	0 	0
0.9696180788 	0 	0 	0 	2.135781754 	0.01035905146 	-2.025122521e-06 	0 	0 	0
0.9703725665 	0 	0 	0 	2.130137818 	0.01004086648 	-2.0043819e-06 	0 	0 	0
0.971113157 	0 	0 	0 	2.124365427 	0.009728868406 	-1.9823799e-06 	0 	0 	0
0.9718401058 	0 	0 	0 	2.118458558 	0.009422987756 	-1.959161384e-06 	0 	0 	0
0.9725536639 	0 	0 	0 	2.112411008 	0.00912315761 	-1.934769985e-06 	0 	0 	0
0.9732540775 	0 	0 	0 	2.106216381 	0.008829313432 	-1.90924824e-06 	0 	0 	0
0.9739415884 	0 	0 	0 	2.099868066 	0.008541393101 	-1.882637786e-06 	0 	0 	0
0.974616434 	0 	0 	0 	2.093359222 	0.00825933639 	-1.8549796e-06 	0 	0 	0
0.9752788473 	0 	0 	0 	2.086682756 	0.007983084924 	-1.826315397e-06 	0 	0 	0
0.9759290569 	0 	0 	0 	2.079831303 	0.007712582359 	-1.796685285e-06 	0 	0 	0
0.9765672874 	0 	0 	0 	2.072797202 	0.00744777375 	-1.766128666e-06 	0 	0 	0
0.9771937593 	0 	0 	0 	2.065572475 	0.007188605405 	-1.734684875e-06 	0 	0 	0
0.9778086888 	0 	0 	0 	2.058148798 	0.006935024802 	-1.70239341e-06 	0 	0 	0
0.9784122883 	0 	0 	0 	2.050517476 	0.006686980333 	-1.669294126e-06 	0 	0 	0
0.9790047665 	0 	0 	0 	2.042669414 	0.00644442108 	-1.635427442e-06 	0 	0 	0
0.9795863278 	0 	0 	0 	2.034595083 	0.006207296582 	-1.600834545e-06 	0 	0 	0
0.9801571733 	0 	0 	0 	2.026284486 	0.005975556609 	-1.56555761e-06 	0 	0 	0
0.9807175001 	0 	0 	0 	2.017727125 	0.005749150918 	-1.529640008e-06 	0 	0 	0
0.9812675019 	0 	0 	0 	2.008911954 	0.005528029012 	-1.493126526e-06 	0 	0 	0
0.9818073687 	0 	0 	0 	1.999827342 	0.005312139891 	-1.456063578e-06 	0 	0 	0
0.982337287 	0 	0 	0 	1.99046102 	0.005101431797 	-1.418499422e-06 	0 	0 	0
0.98285744 	0 	0 	0 	1.98080003 	0.004895851958 	-1.380484362e-06 	0 	0 	0
0.9833680074 	0 	0 	0 	1.970830666 	0.004695346329 	-1.342070909e-06 	0 	0 	0
0.9838691657 	0 	0 	0 	1.960538411 	0.004499859323 	-1.303314231e-06 	0 	0 	0
0.9843610881 	0 	0 	0 	1.949907865 	0.004309333499 	-1.26427245e-06 	0 	0 	0
0.9848439447 	0 	0 	0 	1.938922667 	0.004123709192 	-1.225007968e-06 	0 	0 	0
0.9853179023 	0 	0 	0 	1.927565405 	0.003942923007 	-1.185608186e-06 	0 	0 	0
0.9857831248 	0 	0 	0 	1.91581752 	0.003766906111 	-1.146135256e-06 	0 	0 	0
0.986239773 	0 	0 	0 	1.903659177 	0.003595586713 	-1.106712401e-06 	0 	0 	0
0.9866880049 	0 	0 	0 	1.891069042 	0.003428850035 	-1.0680772e-06 	0 	0 	0
0.9871279753 	0 	0 	0 	1.878023894 	0.003266743075 	-1.025095305e-06 	0 	0 	0
0.9875598365 	0 	0 	0 	1.864498412 	0.00310972697 	-9.843258602e-07 	0 	0 	0
0.9879837377 	0 	0 	0 	1.850463124 	0.002956582265 	-9.546266446e-07 	0 	0 	0
0.9883998255 	0 	0 	0 	1.835878461 	0.002806775891 	-9.149384371e-07 	0 	0 	0
0.9888082439 	0 	0 	0 	1.820695296 	0.002662443196 	-8.650833353e-07 	0 	0 	0
0.989209134 	0 	0 	0 	1.804865347 	0.002523236485 	-8.244728565e-07 	0 	0 	0
0.9896026346 	0 	0 	0 	1.788344345 	0.002387981378 	-7.868037977e-07 	0 	0 	0
0.9899888817 	0 	0 	0 	1.7710871 	0.002257000068 	-7.466649923e-07 	0 	0 	0
0.9903680089 	0 	0 	0 	1.753044638 	0.002130269257 	-7.071546296e-07 	0 	0 	0
0.9907401473 	0 	0 	0 	1.734162713 	0.002007666951 	-6.684738495e-07 	0 	0 	0
0.9911054258 	0 	0 	0 	1.714380348 	0.001889076096 	-6.305965588e-07 	0 	0 	0
0.9914639706 	0 	0 	0 	1.693628589 	0.001774394256 	-5.935162716e-07 	0 	0 	0
0.9918159058 	0 	0 	0 	1.671829554 	0.001663484528 	-5.572689816e-07 	0 	0 	0
0.9921613531 	0 	0 	0 	1.648895872 	0.001556032419 	-5.219149726e-07 	0 	0 	0
0.9925004322 	0 	0 	0 	1.626846724 	0.001460878952 	-4.905095431e-07 	0 	0 	0
0.9927186646 	0 	0 	0 	1.608108995 	0.001386016274 	-4.651906666e-07 	0 	0 	0
0.9929368989 	0 	0 	0 	1.590774915 	0.001321003094 	-4.432476594e-07 	0 	0 	0
0.9931551351 	0 	0 	0 	1.572540595 	0.001256569635 	-4.214730454e-07 	0 	0 	0
0.9933733732 	0 	0 	0 	1.553324947 	0.001192821727 	-3.998652732e-07 	0 	0 	0
0.9935916131 	0 	0 	0 	1.533037225 	0.001129789597 	-3.784385023e-07 	0 	0 	0
0.9938098549 	0 	0 	0 	1.511574876 	0.001067482106 	-3.572116312e-07 	0 	0 	0
0.9940280986 	0 	0 	0 	1.488821272 	0.001005911803 	-3.36203811e-07 	0 	0 	0
0.9942463442 	0 	0 	0 	1.464643194 	0.000945095119 	-3.154345032e-07 	0 	0 	0
0.9944645917 	0 	0 	0 	1.438887901 	0.0008850517901 	-2.949235855e-07 	0 	0 	0
0.994682841 	0 	0 	0 	1.411379566 	0.000825804376 	-2.746926119e-07 	0 	0 	0
0.9949010922 	0 	0 	0 	1.381914424 	0.0007673779923 	-2.547649412e-07 	0 	0 	0
0.9951193453 	0 	0 	0 	1.3502558 	0.0007098062153 	-2.351625264e-07 	0 	0 	0
0.9953376002 	0 	0 	0 	1.316130345 	0.000653137159 	-2.159085193e-07 	0 	0 	0
0.9955558571 	0 	0 	0 	1.279222915 	0.0005973450576 	-1.970720345e-07 	0 	0 	0
0.9957741158 	0 	0 	0 	1.239169387 	0.0005422284961 	-1.787407375e-07 	0 	0 	0
0.9959923763 	0 	0 	0 	1.195549279 	0.0004878654108 	-1.607636715e-07 	0 	0 	0
0.9962106388 	0 	0 	0 	1.147883439 	0.0004428883291 	-1.392123469e-07 	0 	0 	0
0.9964289031 	0 	0 	0 	1.095636232 	0.0003991577692 	-1.253367858e-07 	0 	0 	0
0.9966471694 	0 	0 	0 	1.038188215 	0.0003333946402 	-1.178740157e-07 	0 	0 	0
0.9968654374 	0 	0 	0 	0.9747990151 	0.0002651729554 	-9.5908074e-08 	0 	0 	0
0.9970837074 	0 	0 	0 	0.9046752865 	0.0002118213605 	-7.646493012e-08 	0 	0 	0
0.9973019793 	0 	0 	0 	0.8271261495 	0.0001587193739 	-6.473739983e-08 	0 	0 	0
0.997520253 	0 	0 	0 	0.7417428059 	0.0001150948883 	-4.86879689e-08 	0 	0 	0
0.9977385286 	0 	0 	0 	0.6486571336 	9.894521118e-05 	-3.474583118e-08 	0 	0 	0
0.9979568061 	0 	0 	0 	0.5487827556 	9.88301053e-05 	-2.527271387e-08 	0 	0 	0
0.9981750854 	0 	0 	0 	0.443738336 	8.591120302e-05 	-1.852023051e-08 	0 	0 	0
0.9983933666 	0 	0 	0 	0.3353160086 	5.324141628e-05 	-1.164716244e-08 	0 	0 	0
0.9986116497 	0 	0 	0 	0.2248519855 	2.127261575e-05 	-5.324167777e-09 	0 	0 	0
0.9988299347 	0 	0 	0 	0.1130101396 	-4.994347723e-07 	-7.560088812e-11 	0 	0 	0
0.9990482216 	-0.00293754049 	6.169075729e-07 	-1.052743641e-10 	0.04714480902 	-8.089512118e-06 	2.069937261e-09 	88.36037126 	-0.01514695859 	2.733306922e-06
