0 	0.0303963326 	-1.241644599e-15 	-5.201947875e-21 	-2.333839693e-16 	1.018976416e-17 	-4.448947111e-19
0.0003162438639 	0.03039715737 	-1.644304984e-05 	6.079684261e-10 	0.03242265646 	-5.370245893e-07 	6.180659462e-05
0.0006324872147 	0.03039969551 	-8.975889858e-05 	1.332223254e-09 	0.03249962745 	-4.906796466e-07 	6.195332273e-05
0.0009487300517 	0.03040397815 	-0.0001341190767 	1.795630239e-09 	0.03250851486 	-4.446897054e-07 	6.197026459e-05
0.001264972374 	0.03040998973 	-0.0001795999438 	2.137221002e-09 	0.0325246398 	-3.987408475e-07 	6.200100322e-05
0.001581214182 	0.03041771717 	-0.0002246622212 	2.354626844e-09 	0.03253215718 	-3.528177935e-07 	6.201533344e-05
0.001897455474 	0.03042714721 	-0.0002696630509 	2.447834687e-09 	0.03254130486 	-3.068329624e-07 	6.203277145e-05
0.00221369625 	0.03043826472 	-0.0003146277834 	2.416946885e-09 	0.03255166461 	-2.607269716e-07 	6.205252001e-05
0.002529936509 	0.03045105223 	-0.0003595778388 	2.262059237e-09 	0.03256354501 	-2.144392983e-07 	6.207516737e-05
0.002846176252 	0.03046548964 	-0.0004045211812 	1.98335602e-09 	0.03257690906 	-1.679103516e-07 	6.210064295e-05
0.003162415477 	0.03048155401 	-0.0004494617805 	1.581095153e-09 	0.03259182048 	-1.210807523e-07 	6.212906826e-05
0.003478654184 	0.03049921943 	-0.000494401439 	1.055598182e-09 	0.03260831417 	-7.389164674e-08 	6.216050982e-05
0.003794892374 	0.0305184568 	-0.0005393410176 	4.072392217e-10 	0.03262642001 	-2.628484264e-08 	6.219502459e-05
0.003968165635 	0.0305298404 	-0.0005639641406 	4.231195505e-10 	0.03263723575 	-4.919822902e-05 	6.221564239e-05
0.004111130046 	0.03053924602 	-0.0005842814218 	3.892473709e-10 	0.03264618145 	-2.264061661e-08 	6.223269537e-05
0.004427367199 	0.03056155363 	-0.0006292229164 	1.345357241e-09 	0.03266762506 	-7.314003926e-08 	6.227357286e-05
0.004743603834 	0.0305853251 	-0.0006741646151 	2.432002574e-09 	0.03269074805 	-1.242542419e-07 	6.23176517e-05
0.005059839951 	0.03061051715 	-0.0007191061262 	3.648789735e-09 	0.03271556949 	-1.760372318e-07 	6.236496827e-05
0.005376075549 	0.03063708263 	-0.00076404693 	4.995334756e-09 	0.03274210713 	-2.285403455e-07 	6.241555638e-05
0.005692310629 	0.03066497034 	-0.0008089863986 	6.471274754e-09 	0.03277037716 	-2.81811775e-07 	6.246944692e-05
0.00600854519 	0.03069412503 	-0.0008539238107 	8.076278907e-09 	0.03280039406 	-3.358960657e-07 	6.252666748e-05
0.006324779232 	0.03072448721 	-0.000898858361 	9.810060313e-09 	0.03283217025 	-3.908335933e-07 	6.258724172e-05
0.006641012757 	0.03075599315 	-0.0009437891688 	1.167238754e-08 	0.03286571577 	-4.466600438e-07 	6.265118881e-05
0.006957245763 	0.03078857482 	-0.0009887152851 	1.366309438e-08 	0.03290103797 	-5.034058845e-07 	6.271852273e-05
0.007273478252 	0.03082215989 	-0.001033635698 	1.578208908e-08 	0.03293814111 	-5.610958625e-07 	6.278925164e-05
0.007589710222 	0.03085667174 	-0.001078549338 	1.802936058e-08 	0.03297702603 	-6.197485333e-07 	6.286337711e-05
0.007905941676 	0.03089202952 	-0.001123455079 	2.040498209e-08 	0.03301768978 	-6.793758149e-07 	6.294089351e-05
0.008222172613 	0.03092814817 	-0.001168351683 	2.290910545e-08 	0.03306012565 	-7.39982712e-07 	6.302178807e-05
0.008538403033 	0.03096493832 	-0.001213237955 	2.554194322e-08 	0.0331043253 	-8.015672425e-07 	6.31060449e-05
0.008854632937 	0.03100230601 	-0.001258110701 	2.830352956e-08 	0.03315027593 	-8.641223926e-07 	6.319363957e-05
0.009170862325 	0.03104015207 	-0.001302985087 	3.11961647e-08 	0.03319794924 	-9.276305377e-07 	6.328451814e-05
0.009487091199 	0.03108382422 	-0.001354207552 	3.437912142e-08 	0.03325427947 	-9.932191772e-07 	6.339189921e-05
0.009978436983 	0.03113971519 	-0.001418388945 	3.919880624e-08 	0.03332735121 	-1.093848881e-06 	6.353119427e-05
0.01047901633 	0.03120383972 	-0.001489831411 	4.461348995e-08 	0.03341173865 	-1.199212271e-06 	6.369206017e-05
0.01098900275 	0.03127121142 	-0.001562618779 	5.050404485e-08 	0.03350096403 	-1.308157815e-06 	6.386214856e-05
0.01150857298 	0.03134176061 	-0.001636804406 	5.690774618e-08 	0.03359509109 	-1.420586901e-06 	6.404158089e-05
0.01203790712 	0.03141541441 	-0.001712419251 	6.386272276e-08 	0.03369418053 	-1.536376883e-06 	6.423047291e-05
0.01257718863 	0.03149209213 	-0.001789498684 	7.14073539e-08 	0.03379828027 	-1.655367913e-06 	6.442891595e-05
0.01312660441 	0.03157170589 	-0.001868079076 	7.957824095e-08 	0.03390742045 	-1.777368768e-06 	6.463696745e-05
0.01368634489 	0.03165416156 	-0.00194819787 	8.841514624e-08 	0.03402161544 	-1.902169777e-06 	6.485465484e-05
0.01425660407 	0.03173935829 	-0.002029893693 	9.796521758e-08 	0.03414086457 	-2.029552557e-06 	6.508197683e-05
0.01483757959 	0.03182718744 	-0.002113206736 	1.082827629e-07 	0.03426515305 	-2.159287646e-06 	6.531890522e-05
0.01542947281 	0.03191753243 	-0.002198178955 	1.194203194e-07 	0.03439445257 	-2.291122748e-06 	6.556538605e-05
0.01603248888 	0.03201027041 	-0.002284854039 	1.314253791e-07 	0.03452872145 	-2.424778474e-06 	6.582133984e-05
0.01664683679 	0.03210527501 	-0.002373277016 	1.443476786e-07 	0.03466790442 	-2.559957183e-06 	6.608666128e-05
0.01727272946 	0.03220241863 	-0.002463494164 	1.582408579e-07 	0.03481193344 	-2.696352367e-06 	6.636122062e-05
0.01791038382 	0.03230157399 	-0.002555553585 	1.73159564e-07 	0.03496072717 	-2.833652778e-06 	6.664486282e-05
0.01856002087 	0.03240261561 	-0.002649501603 	1.891579339e-07 	0.03511419326 	-2.971544714e-06 	6.693741183e-05
0.01922186577 	0.03250542155 	-0.002745421245 	2.062990036e-07 	0.03527223438 	-3.10971563e-06 	6.723868213e-05
0.0198961479 	0.03260997467 	-0.002843441236 	2.246562369e-07 	0.03543489383 	-3.24786345e-06 	6.754875627e-05
0.02058563618 	0.03271634341 	-0.002943691484 	2.443053185e-07 	0.0356023171 	-3.386164226e-06 	6.786791154e-05
0.0212899146 	0.03282441525 	-0.003046290075 	2.65333927e-07 	0.03577434996 	-3.52440141e-06 	6.819585399e-05
0.0220074278 	0.03293394295 	-0.003151173271 	2.877907783e-07 	0.03595060888 	-3.662019599e-06 	6.853185247e-05
0.02273842446 	0.03304478317 	-0.003258273925 	3.117047775e-07 	0.03613084806 	-3.798774078e-06 	6.887543845e-05
0.02348315793 	0.0331568758 	-0.003367672775 	3.371441763e-07 	0.03631493451 	-3.934440076e-06 	6.92263584e-05
0.0242418863 	0.03327017724 	-0.003479429472 	3.641706448e-07 	0.03650273519 	-4.068809522e-06 	6.958435868e-05
0.02501487254 	0.03338466161 	-0.003593607307 	3.928468521e-07 	0.0366941143 	-4.201688981e-06 	6.994918047e-05
0.02580238453 	0.03350032183 	-0.003710270834 	4.232355401e-07 	0.03688893847 	-4.332902573e-06 	7.032056948e-05
0.0266046952 	0.0336171704 	-0.003829486068 	4.55399577e-07 	0.03708707606 	-4.462292109e-06 	7.069827478e-05
0.02742208261 	0.03373524005 	-0.003951320491 	4.894019253e-07 	0.03728839838 	-4.589717997e-06 	7.108205108e-05
0.02825483002 	0.03385458405 	-0.004075843054 	5.253056019e-07 	0.03749278048 	-4.715059943e-06 	7.147166017e-05
0.02910322604 	0.03397527632 	-0.004203124184 	5.631736275e-07 	0.03770010192 	-4.838217755e-06 	7.186687246e-05
0.02996756467 	0.0340974112 	-0.004333235782 	6.030689567e-07 	0.03791024749 	-4.959112207e-06 	7.226746833e-05
0.03084814547 	0.03422110306 	-0.00446625122 	6.210637758e-07 	0.03812310791 	-4.888838691e-06 	7.267323945e-05
0.03174527359 	0.03434648558 	-0.004602245322 	6.21667411e-07 	0.03833858049 	-4.685021493e-06 	7.308399007e-05
0.03265925995 	0.03447371081 	-0.00474129435 	6.207995172e-07 	0.03855656973 	-4.479743691e-06 	7.349953816e-05
0.03359042126 	0.03460294804 	-0.004883475963 	6.183699863e-07 	0.03877698799 	-4.273424762e-06 	7.391971661e-05
0.03453908024 	0.03473438243 	-0.005028869169 	6.142882722e-07 	0.03899975598 	-4.066464695e-06 	7.434437433e-05
0.03550556561 	0.03486821343 	-0.005177554267 	6.084634888e-07 	0.03922480362 	-3.859242213e-06 	7.477337767e-05
0.03649021232 	0.03500465312 	-0.005329612952 	6.008045945e-07 	0.03945206941 	-3.652112435e-06 	7.520660942e-05
0.03749336157 	0.0351439243 	-0.005485126593 	5.912199732e-07 	0.03968150129 	-3.445405466e-06 	7.564397036e-05
0.038515361 	0.03528625858 	-0.005644192463 	5.79621808e-07 	0.03991306573 	-3.239426273e-06 	7.608539655e-05
0.03955656474 	0.03543195177 	-0.005806950726 	5.659238995e-07 	0.04014681949 	-3.034436305e-06 	7.653099617e-05
0.04061897128 	0.0355814702 	-0.005973651975 	5.499848178e-07 	0.04038307685 	-2.830270453e-06 	7.698136837e-05
0.04170592738 	0.03573517953 	-0.006144639916 	5.316286781e-07 	0.04062200139 	-2.626537844e-06 	7.743682496e-05
0.04281330888 	0.03589312105 	-0.006319772047 	5.109137896e-07 	0.040863253 	-2.424530499e-06 	7.789671757e-05
0.04394149956 	0.03605538493 	-0.006498844842 	4.87705367e-07 	0.04110658661 	-2.22440612e-06 	7.836057907e-05
0.04509089038 	0.03622221554 	-0.006682007869 	4.619330489e-07 	0.04135203742 	-2.026262897e-06 	7.882847653e-05
0.04626187968 	0.03639385213 	-0.006869342897 	4.335136224e-07 	0.04159965043 	-1.830158287e-06 	7.930049574e-05
0.04745487325 	0.03657052711 	-0.007060937655 	4.023680462e-07 	0.04184947245 	-1.636105935e-06 	7.977672594e-05
0.04867028451 	0.03675246426 	-0.007256878816 	3.684200722e-07 	0.04210156703 	-1.444078331e-06 	8.025728829e-05
0.04990853467 	0.03693987722 	-0.007457252255 	3.315966776e-07 	0.04235600622 	-1.254004822e-06 	8.074232009e-05
0.05117005282 	0.03713296803 	-0.007662142943 	2.918283189e-07 	0.04261287156 	-1.065772032e-06 	8.123197684e-05
0.05245527612 	0.03733192581 	-0.007871634641 	2.490491508e-07 	0.04287225296 	-8.79224246e-07 	8.172642986e-05
0.05376464996 	0.0375369255 	-0.008085809693 	2.031974476e-07 	0.04313424772 	-6.941648363e-07 	8.222586471e-05
0.05509862807 	0.03774812655 	-0.008304748997 	1.542158241e-07 	0.04339895837 	-5.103576909e-07 	8.273047678e-05
0.05645767272 	0.03796567142 	-0.008528531062 	1.020493554e-07 	0.04366648839 	-3.275286804e-07 	8.324046335e-05
0.05784225486 	0.03818968455 	-0.008757238377 	4.664784698e-08 	0.04393695674 	-1.453695533e-07 	8.37560512e-05
0.05896831121 	0.03837379354 	-0.008943843468 	-1.619002659e-07 	0.04415538948 	-6.896194211e-06 	8.417244471e-05
0.05925285427 	0.03842031111 	-0.008991006801 	1.222900181e-08 	0.04421057556 	-3.630852024e-08 	8.427764471e-05
0.06069116533 	0.03865793328 	-0.009230134127 	7.522204153e-08 	0.04448782196 	-2.176658329e-07 	8.480615341e-05
0.06216301825 	0.03890289279 	-0.009474955665 	1.418561795e-07 	0.04476897208 	-4.004746995e-07 	8.534210368e-05
0.06366252918 	0.03918756029 	-0.009758518337 	2.124139489e-07 	0.04509012404 	-5.838406315e-07 	8.595430857e-05
0.06596449752 	0.03954641931 	-0.0101140704 	3.237867101e-07 	0.04548762236 	-8.623838815e-07 	8.671205084e-05
0.06829214033 	0.03994632115 	-0.01050698984 	4.42128742e-07 	0.04592214807 	-1.14056509e-06 	8.754037762e-05
0.07064574395 	0.04035476474 	-0.01090542114 	5.665491913e-07 	0.0463576112 	-1.420112463e-06 	8.837049139e-05
0.07302559793 	0.04077128093 	-0.01130945824 	6.969522546e-07 	0.0467939424 	-1.70234558e-06 	8.920225991e-05
0.07543199504 	0.04119536469 	-0.01171900544 	8.332270433e-07 	0.04723109302 	-1.988414025e-06 	9.00355905e-05
0.07786523129 	0.04162647186 	-0.0121340084 	9.753021098e-07 	0.04766892891 	-2.279262831e-06 	9.087022739e-05
0.08032560604 	0.04206449327 	-0.01255468885 	1.123180033e-06 	0.04810765539 	-2.575721097e-06 	9.170656201e-05
0.08282424015 	0.04250936576 	-0.01298164447 	1.277504967e-06 	0.04854751931 	-2.879610678e-06 	9.25450649e-05
0.08535191996 	0.04295996857 	-0.01341441124 	1.437697031e-06 	0.04898766435 	-3.190122461e-06 	9.338410368e-05
0.08790779437 	0.04341505623 	-0.0138521848 	1.60366093e-06 	0.0494270405 	-3.507342043e-06 	9.422167672e-05
0.09049217788 	0.04387380433 	-0.01429487862 	1.757726902e-06 	0.04986502959 	-3.793029188e-06 	9.505660568e-05
0.0931053885 	0.04433539273 	-0.01474238148 	1.650650665e-06 	0.05030098895 	-3.517192736e-06 	9.588766537e-05
0.09574774776 	0.04479895471 	-0.01519458906 	1.537686435e-06 	0.05073417741 	-3.237049138e-06 	9.671344299e-05
0.09841958081 	0.04526366378 	-0.0156514664 	1.418863627e-06 	0.05116383903 	-2.951888424e-06 	9.753249745e-05
0.1011232676 	0.04572906439 	-0.01611336725 	1.294083917e-06 	0.05158950875 	-2.660904702e-06 	9.834394225e-05
0.1038669738 	0.04619447857 	-0.01658069914 	1.162824168e-06 	0.0520105126 	-2.362731098e-06 	9.914649258e-05
0.1066412871 	0.04665828433 	-0.01705282045 	1.025682841e-06 	0.05242524856 	-2.058840692e-06 	9.99370946e-05
0.109446549 	0.04711894875 	-0.01752912252 	8.825184391e-07 	0.05283214732 	-1.749264649e-06 	0.0001007127567
0.1122831048 	0.04757528715 	-0.01800961912 	7.332188577e-07 	0.05322997053 	-1.434264639e-06 	0.0001014711183
0.1151513035 	0.04802605773 	-0.01849428966 	5.776515678e-07 	0.05361740371 	-1.114290243e-06 	0.0001022096737
0.1180514982 	0.0484699986 	-0.01898319202 	4.156649043e-07 	0.05399303178 	-7.899716139e-07 	0.0001029257252
0.1209850947 	0.04890616803 	-0.01947682847 	2.470097795e-07 	0.05435567069 	-4.619724507e-07 	0.0001036170157
0.1239620669 	0.04933346792 	-0.01997591058 	7.081320922e-08 	0.05470399043 	-1.301417622e-07 	0.0001042810099
0.125139059 	0.0494962802 	-0.02017303551 	-2.541441103e-07 	0.05483374147 	-1.714391067e-05 	0.0001045283515
0.1269722515 	0.04974989495 	-0.02048012477 	1.130256157e-07 	0.05503588057 	-2.047843459e-07 	0.0001049136848
0.130016019 	0.0501535188 	-0.02098921466 	3.048839256e-07 	0.05534914842 	-5.407169099e-07 	0.0001055108604
0.133093744 	0.0505427196 	-0.02150368215 	5.053119151e-07 	0.05564184646 	-8.749546571e-07 	0.0001060688242
0.1362058055 	0.0509158231 	-0.02202415239 	7.159032467e-07 	0.05591191274 	-1.206012822e-06 	0.0001065836456
0.1393525864 	0.05127128264 	-0.02255169591 	9.394231429e-07 	0.05615716847 	-1.532105613e-06 	0.0001070511712
0.1425407528 	0.05160762911 	-0.02308814906 	1.180712758e-06 	0.05637516695 	-1.851607341e-06 	0.0001074667369
0.1457695841 	0.05192297269 	-0.02363533841 	1.445426243e-06 	0.05656266507 	-2.160881618e-06 	0.0001078241604
0.1490344407 	0.05221515108 	-0.02419380406 	1.730189775e-06 	0.05671412938 	-2.445305737e-06 	0.0001081128935
0.1523357245 	0.05248156613 	-0.02475742774 	2.006702626e-06 	0.05682803482 	-2.750791378e-06 	0.0001083300289
0.155673842 	0.05271855443 	-0.0253039778 	2.192664988e-06 	0.05692233843 	-3.065403611e-06 	0.0001085097978
0.1590492042 	0.05292005262 	-0.02579061536 	2.219393947e-06 	0.05698820179 	-3.225007763e-06 	0.0001086353517
0.1624675126 	0.05308091101 	-0.02617962162 	2.197586247e-06 	0.05698627201 	-3.366706416e-06 	0.000108631673
0.1659296299 	0.05320076248 	-0.02648007188 	2.124980372e-06 	0.05693669431 	-3.390774655e-06 	0.0001085371641
0.1694303785 	0.05327968026 	-0.02673133562 	1.921510884e-06 	0.0568654179 	-3.007878907e-06 	0.0001084012914
0.1729701892 	0.05331610588 	-0.02695664317 	1.731323451e-06 	0.05674692287 	-2.590170486e-06 	0.000108175407
0.176549498 	0.05330803063 	-0.02715933735 	1.536927145e-06 	0.05657062825 	-2.211332383e-06 	0.0001078393404
0.1801687455 	0.05325307735 	-0.02733686724 	1.338060254e-06 	0.05634164026 	-1.848834207e-06 	0.0001074028257
0.1838369307 	0.05314884061 	-0.02748652931 	1.139001185e-06 	0.05605776766 	-1.505459255e-06 	0.0001068616856
0.1875479555 	0.05299299958 	-0.02760615487 	9.426245375e-07 	0.05571694531 	-1.185961308e-06 	0.0001062119835
0.1913003917 	0.05278341096 	-0.02769346516 	7.516033897e-07 	0.05531752802 	-8.944682281e-07 	0.0001054505831
0.1950947013 	0.05251797869 	-0.02774631784 	5.687818377e-07 	0.05485793999 	-6.347507008e-07 	0.0001045744806
0.1989313516 	0.05219458128 	-0.02776247405 	3.972430057e-07 	0.05433658457 	-4.1060398e-07 	0.0001035806323
0.2028158131 	0.05181101446 	-0.02773966958 	2.401252653e-07 	0.05375177562 	-2.256509981e-07 	0.0001024658239
0.206748532 	0.05136541233 	-0.02767555884 	1.011977792e-07 	0.0531023975 	-8.392302845e-08 	0.0001012279287
0.2101444908 	0.05093085219 	-0.02758355638 	4.020660871e-06 	0.05249252026 	-1.086982158e-05 	0.0001000653331
0.2107251389 	0.05085647182 	-0.02756777991 	1.529968663e-08 	0.05238815107 	-1.034854503e-08 	9.986637647e-05
0.2147461234 	0.05028305693 	-0.02741406777 	1.038385912e-07 	0.051608941 	-5.126002084e-08 	9.838098552e-05
0.2188119806 	0.04964422971 	-0.02721220112 	1.614063766e-07 	0.05076485102 	-3.829353991e-08 	9.67719154e-05
0.2229278897 	0.04893911476 	-0.02695995318 	1.838641817e-07 	0.04985609605 	3.060828145e-08 	9.503957586e-05
0.2270943661 	0.04816769404 	-0.02665532194 	1.669647554e-07 	0.04888400982 	1.566213912e-07 	9.318650932e-05
0.2313073414 	0.04733109071 	-0.02629673369 	1.069239805e-07 	0.047851311 	3.394708131e-07 	9.121789835e-05
0.2355673346 	0.04643101728 	-0.02588303984 	5.565254181e-10 	0.04676133053 	5.774115307e-07 	8.914009263e-05
0.2398748701 	0.04546949091 	-0.02541327183 	-1.547088448e-07 	0.04561769142 	8.670800437e-07 	8.695999862e-05
0.2442372224 	0.04444924301 	-0.02488688524 	-3.605652636e-07 	0.04442476686 	1.203376314e-06 	8.468595287e-05
0.248650206 	0.04337510866 	-0.02430447438 	-6.169739282e-07 	0.04318925419 	1.578015295e-06 	8.233072232e-05
0.2531124416 	0.04225350249 	-0.02366760655 	-9.218934517e-07 	0.04191945077 	1.980474766e-06 	7.991012407e-05
0.2576244788 	0.04109146837 	-0.02297863355 	-1.271126594e-06 	0.04062411253 	2.398211528e-06 	7.744084937e-05
0.2621892502 	0.03989679568 	-0.02224079854 	-1.658007979e-06 	0.03931256095 	2.816216914e-06 	7.494066754e-05
0.2668106401 	0.03867897866 	-0.02145884765 	-1.967128016e-06 	0.03799566363 	3.052932332e-06 	7.243029523e-05
0.2714836098 	0.03744975594 	-0.0206395094 	-2.042501145e-06 	0.03668629517 	2.923012051e-06 	6.993427503e-05
0.2762087349 	0.03622177819 	-0.01979084313 	-2.054291149e-06 	0.03539776801 	2.726259196e-06 	6.747798412e-05
0.2809868679 	0.03500776745 	-0.01892180535 	-2.003258682e-06 	0.0341429019 	2.473427258e-06 	6.508586055e-05
0.2858254639 	0.03382079765 	-0.0180425388 	-1.893142893e-06 	0.03293427291 	2.178110448e-06 	6.278187778e-05
0.2907180655 	0.03267484836 	-0.01716480555 	-1.73160235e-06 	0.03178482955 	1.856381661e-06 	6.059071925e-05
0.2956652752 	0.03158282062 	-0.01630058464 	-1.528260725e-06 	0.03070579067 	1.52686356e-06 	5.853377125e-05
0.3006677021 	0.03055548681 	-0.01546192435 	-1.297248531e-06 	0.02970522511 	1.215967556e-06 	5.662641519e-05
0.3057325688 	0.0296012167 	-0.01465752125 	-1.069745092e-06 	0.02877985516 	9.318905199e-07 	5.486240288e-05
0.3108541272 	0.02872499939 	-0.01388929623 	-8.743664216e-07 	0.02795186717 	6.502640623e-07 	5.328402764e-05
0.3160328503 	0.02792386535 	-0.01314305496 	-6.885449587e-07 	0.02724312299 	4.149464457e-07 	5.193296425e-05
0.3212699707 	0.02719851098 	-0.012399159 	-4.808447808e-07 	0.02660176855 	2.516537143e-07 	5.071036443e-05
0.3265710904 	0.02655384897 	-0.0116869133 	-2.681821096e-07 	0.02601740184 	1.210562495e-07 	4.959639907e-05
0.3319313799 	0.02599004326 	-0.01106750663 	-9.318018009e-08 	0.02552733914 	3.536470142e-08 	4.866220336e-05
0.3361906958 	0.02560726887 	-0.01066781333 	6.316955263e-06 	0.02519448384 	-7.722488265e-06 	4.802768864e-05
0.3373514992 	0.02550306878 	-0.01055907081 	-1.72397372e-08 	0.0251038526 	6.038130841e-09 	4.78549203e-05
0.3428342305 	0.02508299348 	-0.01014040554 	-6.727092908e-08 	0.02472131134 	1.890565989e-08 	4.712569035e-05
0.3483815784 	0.02471898232 	-0.009785560063 	-8.05483498e-08 	0.02438114644 	1.031566731e-08 	4.647724151e-05
0.3539908448 	0.0244017864 	-0.009475046687 	-6.781822521e-08 	0.02407747933 	-1.467486464e-08 	4.589836759e-05
0.3596627202 	0.02412356457 	-0.00919583959 	-3.516081196e-08 	0.02380407069 	-5.057009982e-08 	4.537717473e-05
0.3654019652 	0.02387773736 	-0.008938296802 	1.39337646e-08 	0.02355493084 	-9.31395317e-08 	4.490224493e-05
0.3712061637 	0.02365902882 	-0.008694874471 	7.669967499e-08 	0.02332507973 	-1.393647489e-07 	4.446408485e-05
0.3770751474 	0.02346331493 	-0.008459130335 	1.502486762e-07 	0.02311053123 	-1.870430366e-07 	4.405509577e-05
0.3830113807 	0.02328737431 	-0.008225444718 	2.329575008e-07 	0.02290813359 	-2.34371633e-07 	4.366926961e-05
0.3890165364 	0.02312863119 	-0.007989204046 	3.232406717e-07 	0.02271547311 	-2.797448373e-07 	4.330200519e-05
0.3950887203 	0.02298509918 	-0.007746705051 	4.188493012e-07 	0.02253078781 	-3.21841093e-07 	4.294994368e-05
0.4012290711 	0.0228552845 	-0.007494988302 	5.177086683e-07 	0.02235282758 	-3.596311514e-07 	4.261070201e-05
0.4074414565 	0.02273810668 	-0.007231865591 	6.17435175e-07 	0.02218083101 	-3.921497823e-07 	4.228282874e-05
0.4137231831 	0.02263287497 	-0.006955986938 	7.154871253e-07 	0.02201453195 	-4.184498462e-07 	4.196581651e-05
0.420075024 	0.02253915739 	-0.006666624846 	8.094973969e-07 	0.02185396255 	-4.377498671e-07 	4.165972661e-05
0.4265009097 	0.02245674768 	-0.006363559556 	8.9726069e-07 	0.02169938235 	-4.493174872e-07 	4.13650538e-05
0.4329987794 	0.0223856812 	-0.0060471295 	9.76795514e-07 	0.02155131117 	-4.525332681e-07 	4.108278896e-05
0.4395691754 	0.02232617377 	-0.005717986638 	1.046705151e-06 	0.02141038206 	-4.469977509e-07 	4.081413892e-05
0.4462154458 	0.02227861496 	-0.005376951338 	1.037702073e-06 	0.02127727632 	-4.056988976e-07 	4.056040239e-05
0.452936325 	0.02224358221 	-0.005025065009 	9.868609848e-07 	0.02115279018 	-3.493895013e-07 	4.032309719e-05
0.4597322186 	0.02222179619 	-0.00466337372 	9.296470798e-07 	0.02103777322 	-2.932265132e-07 	4.01038429e-05
0.4666062465 	0.02221405944 	-0.004292767065 	8.68234256e-07 	0.02093314211 	-2.381434889e-07 	3.990438692e-05
0.4735572746 	0.02222113621 	-0.003914012741 	8.046041345e-07 	0.02083999732 	-1.851070073e-07 	3.972682707e-05
0.4805859366 	0.02224358131 	-0.003527572754 	7.402192828e-07 	0.02075953441 	-1.350181105e-07 	3.957344241e-05
0.4876951865 	0.02228163036 	-0.003133673317 	6.763418758e-07 	0.02069293279 	-8.875757033e-08 	3.94464812e-05
0.4948837843 	0.02233505918 	-0.002733504719 	6.141289347e-07 	0.02064135088 	-4.719381106e-08 	3.934815174e-05
0.5020728327 	0.02240284931 	-0.002330802702 	5.550091275e-07 	0.02060562981 	-1.109968039e-08 	3.928005746e-05
0.5091839358 	0.02248348165 	-0.001929302562 	5.001751383e-07 	0.02058574734 	1.924175722e-08 	3.924215593e-05
0.5162165766 	0.0225756771 	-0.001530079515 	4.498084377e-07 	0.02058104695 	4.40908543e-08 	3.923319569e-05
0.5231722107 	0.0226783821 	-0.001133044639 	4.037444761e-07 	0.02059072772 	6.386701184e-08 	3.925164993e-05
0.5300519365 	0.02279061409 	-0.0007380540867 	3.618187286e-07 	0.02061403065 	7.912893983e-08 	3.929607179e-05
0.5368557511 	0.0229114472 	-0.0003450139327 	3.237181394e-07 	0.0206502996 	9.039983506e-08 	3.936521048e-05
0.5435850468 	0.02304002928 	4.626242029e-05 	2.891411742e-07 	0.02069885924 	9.811844264e-08 	3.945777867e-05
0.5502406551 	0.02317557895 	0.0004360206345 	2.578408576e-07 	0.02075903388 	1.028947876e-07 	3.957248825e-05
0.5568228235 	0.02331737313 	0.000824441729 	2.294261942e-07 	0.02083025797 	1.052296914e-07 	3.970826116e-05
0.5633327798 	0.02346475339 	0.001211693459 	2.035509341e-07 	0.02091195882 	1.055351896e-07 	3.986400569e-05
0.5697713528 	0.02361711842 	0.00159790084 	1.799951177e-07 	0.02100356112 	1.042885755e-07 	4.003862513e-05
0.5761388792 	0.02377391383 	0.001983145509 	1.584993326e-07 	0.02110453939 	1.018965023e-07 	4.023111779e-05
0.5824363843 	0.02393463652 	0.00236756707 	1.387626033e-07 	0.02121437129 	9.875946746e-08 	4.044048792e-05
0.5886648223 	0.0240988169 	0.00275127953 	1.205165274e-07 	0.02133256538 	9.527019762e-08 	4.066579869e-05
0.5948245315 	0.02426600781 	0.003134345956 	1.035535856e-07 	0.02145865618 	9.170147041e-08 	4.09061628e-05
0.6009163367 	0.02443579721 	0.003516876367 	8.775476756e-08 	0.02159218909 	8.822992937e-08 	4.116071364e-05
0.6069413562 	0.02460780124 	0.003898978388 	7.304917242e-08 	0.02173273831 	8.499219416e-08 	4.142863952e-05
0.6128998905 	0.02478164973 	0.004280716215 	5.932111074e-08 	0.02187989507 	8.210265975e-08 	4.170916121e-05
0.6187926729 	0.02495699471 	0.004662185568 	4.644481203e-08 	0.02203327384 	7.966326295e-08 	4.200154377e-05
0.6246207232 	0.02513351043 	0.005043519591 	3.434411567e-08 	0.02219251266 	7.777478484e-08 	4.230509722e-05
0.630384542 	0.02531088361 	0.005424815494 	2.297337272e-08 	0.02235726604 	7.654351779e-08 	4.261916295e-05
0.6360847567 	0.02548882023 	0.005806170718 	1.229112254e-08 	0.02252721521 	7.602768822e-08 	4.294313331e-05
0.6417221536 	0.02566705144 	0.006187757451 	2.282608797e-09 	0.0227020561 	7.626975425e-08 	4.327642863e-05
0.6472975325 	0.02584533248 	0.006569753253 	-7.042155182e-09 	0.02288150437 	7.733768842e-08 	4.361850691e-05
0.6528113863 	0.02602344486 	0.006952337929 	-1.565815362e-08 	0.02306528078 	7.927462566e-08 	4.396883582e-05
0.6582643935 	0.02620120992 	0.007335770768 	-2.35171424e-08 	0.02325311471 	8.211132108e-08 	4.43268995e-05
0.663657363 	0.02637849913 	0.007720417694 	-3.056354112e-08 	0.02344473356 	8.590268814e-08 	4.46921783e-05
0.6689908816 	0.02655524274 	0.008106722389 	-3.6726171e-08 	0.02363984452 	9.076294968e-08 	4.506411401e-05
0.6742655434 	0.026731456 	0.008495249966 	-4.183174193e-08 	0.02383811562 	9.682629773e-08 	4.544207383e-05
0.6794819976 	0.02690728964 	0.008886799662 	-4.555225412e-08 	0.02403911355 	1.043550122e-07 	4.582523176e-05
0.6846410163 	0.0270831199 	0.009282418249 	-4.723004426e-08 	0.02424220839 	1.13906477e-07 	4.621238696e-05
0.6897431149 	0.02725973845 	0.009683272778 	-4.533077585e-08 	0.024446452 	1.262895702e-07 	4.660173205e-05
0.6947889098 	0.02743874143 	0.01009017959 	-3.645366318e-08 	0.02465020826 	1.422911081e-07 	4.699014812e-05
0.6997790223 	0.02762313072 	0.0105025788 	-1.333322417e-08 	0.02485083064 	1.628809848e-07 	4.737259013e-05
0.7047141634 	0.02781843936 	0.01091861105 	3.244421161e-08 	0.02504368855 	1.787106365e-07 	4.774023091e-05
0.7095948444 	0.02803259029 	0.01133231631 	1.035621951e-07 	0.02520816504 	1.935272761e-07 	4.805376882e-05
0.7144216649 	0.02827209558 	0.01174396478 	2.03568401e-07 	0.02534473121 	2.213548782e-07 	4.83141019e-05
0.719195219 	0.02854342759 	0.01219316074 	2.170890548e-07 	0.02547792773 	2.439140061e-07 	4.856801148e-05
0.7239161526 	0.02882374452 	0.01253076342 	1.06183868e-07 	0.02561484419 	2.661855642e-07 	4.88290123e-05
0.7285849967 	0.02904643395 	0.01267542822 	4.271778662e-08 	0.02580636533 	3.149657631e-07 	4.919410483e-05
0.7332023176 	0.02914002054 	0.01278572743 	4.12414059e-08 	0.02613850428 	3.50673663e-07 	4.982725398e-05
0.7377686838 	0.02909011936 	0.01290981123 	2.852418966e-08 	0.02661382884 	3.07184415e-07 	5.073335471e-05
0.7422846824 	0.02897263864 	0.01303117699 	-1.087676604e-08 	0.02714593165 	1.721585002e-07 	5.174769055e-05
0.7467508634 	0.02890433357 	0.01310425782 	-3.952022797e-08 	0.02761252769 	5.779947551e-09 	5.263715229e-05
0.7511677575 	0.02896833893 	0.01312660279 	1.55461694e-08 	0.02792481173 	-1.297469198e-07 	5.323245245e-05
0.7555359085 	0.02920490791 	0.01321877982 	4.763907102e-08 	0.02807329474 	-2.388175141e-07 	5.351550234e-05
0.7598558555 	0.02964096564 	0.01337453154 	2.987296341e-09 	0.02805664107 	-2.976536892e-07 	5.348375583e-05
0.764128156 	0.03023575921 	0.01348040363 	-1.825742566e-08 	0.02791348692 	-2.461745738e-07 	5.321086421e-05
0.768353309 	0.03083847033 	0.01355671115 	-4.590214018e-09 	0.02779944808 	-1.02579542e-07 	5.299347449e-05
0.7725318348 	0.03127541445 	0.01365560628 	1.33102982e-08 	0.02788682903 	6.019250825e-08 	5.316004687e-05
0.776664248 	0.03144338492 	0.01378738587 	2.242008778e-08 	0.02825354799 	1.796955463e-07 	5.385911514e-05
0.7807510619 	0.03134405513 	0.01393928608 	1.79504298e-08 	0.02886636036 	2.199404435e-07 	5.502730584e-05
0.7847927877 	0.03108799666 	0.01408525216 	7.090900292e-09 	0.02959755888 	1.860357108e-07 	5.642117345e-05
0.7887899104 	0.03084082487 	0.01420938425 	-9.007844734e-10 	0.03029095743 	1.159605764e-07 	5.77429838e-05
0.7927429222 	0.03072959861 	0.01431532028 	-6.102633917e-09 	0.03084087773 	4.790349866e-08 	5.879128474e-05
0.7966523098 	0.0307881188 	0.01440311223 	-5.735474435e-09 	0.03121752029 	5.170222379e-09 	5.950927013e-05
0.8005185571 	0.03097538295 	0.01449048633 	1.081871916e-09 	0.03146446535 	-9.496837147e-09 	5.998001605e-05
0.8043421454 	0.03123140978 	0.01460512268 	1.528297463e-09 	0.03165379577 	-1.03966472e-08 	6.034093246e-05
0.8081235378 	0.03151424538 	0.01472456444 	-1.512479631e-09 	0.03182580936 	-6.177534005e-09 	6.066883817e-05
0.8118631999 	0.0317992304 	0.01483354942 	-1.371693184e-09 	0.03200205153 	4.458263901e-10 	6.100480473e-05
0.8155615922 	0.03207402816 	0.01494371223 	-1.080290731e-09 	0.03219805515 	5.425634554e-09 	6.13784421e-05
0.8192191701 	0.03233941115 	0.01505576178 	-8.282471896e-10 	0.03241363592 	7.821648719e-09 	6.178939897e-05
0.8228363893 	0.03260255895 	0.01516787749 	-6.029373759e-10 	0.03264116626 	8.788991374e-09 	6.222313503e-05
0.8264136904 	0.03286920521 	0.01526700286 	-4.271976161e-10 	0.03287193034 	9.215732592e-09 	6.26630355e-05
0.8299515134 	0.03313934025 	0.01535421465 	-7.387091875e-10 	0.03310703774 	9.274964525e-09 	6.311121556e-05
0.833450294 	0.03340946777 	0.01543956796 	-1.523620421e-09 	0.0333527541 	9.289563758e-09 	6.357961924e-05
0.836910463 	0.03367719253 	0.01551940078 	-2.292876076e-09 	0.03361075317 	9.688016506e-09 	6.407143717e-05
0.8403324473 	0.03394241793 	0.0155931365 	-2.997772832e-09 	0.03388708333 	8.541181646e-09 	6.459819926e-05
0.8437166697 	0.03420687997 	0.01566272607 	-2.395074065e-09 	0.03417240228 	4.636507364e-09 	6.514209647e-05
0.8470635448 	0.03447906703 	0.01573919201 	4.920654049e-09 	0.03443948443 	-8.836146445e-10 	6.565122927e-05
0.8503734847 	0.03479726988 	0.01591397236 	1.000375913e-08 	0.03467053233 	-1.032507437e-08 	6.60916708e-05
0.853646897 	0.03525327873 	0.01619904856 	4.215240975e-09 	0.0347936704 	-2.160645031e-08 	6.632640619e-05
0.8568841848 	0.03592183581 	0.01641510253 	-4.704707573e-10 	0.03472636972 	-2.522467137e-08 	6.619811239e-05