0.4709558481 	3.585778761e-06 	-2.447265312e-08 	3.556003388e-14 	3.578956569e-06 	-3.5776468e-12 	6.82248594e-09
0.4711314108 	4.0251354e-05 	-1.071415141e-06 	1.557662299e-12 	4.017490303e-05 	-4.009587647e-11 	7.658453121e-08
0.4713069734 	0.0002239243068 	-1.380818518e-05 	1.995350513e-11 	0.0002235021037 	-2.222593591e-10 	4.260571289e-07
0.471482536 	0.000739596993 	-8.304690779e-05 	1.175743169e-10 	0.000738208788 	-7.264780824e-10 	1.407231124e-06
0.4716580986 	0.001788640783 	-0.0003122248086 	4.234337866e-10 	0.00178519314 	-1.714106011e-09 	3.403074293e-06
0.4718336613 	0.003506289783 	-0.0008422259085 	1.064660244e-09 	0.003499156189 	-3.210371815e-09 	6.670364235e-06
0.4720092239 	0.005883732654 	-0.001768770169 	2.029943241e-09 	0.005871497299 	-5.031672677e-09 	1.119270575e-05
0.4721847865 	0.008753160729 	-0.003067590618 	3.133144065e-09 	0.008735777292 	-6.863976914e-09 	1.66528195e-05
0.4723603491 	0.0118612156 	-0.004606774568 	4.142604276e-09 	0.01183938462 	-8.438150167e-09 	2.256915767e-05
0.4725359118 	0.01496931146 	-0.00622381506 	4.916862926e-09 	0.01494287986 	-9.635266567e-09 	2.848528217e-05
0.4727114744 	0.01791117582 	-0.007789387172 	5.426432355e-09 	0.01787932031 	-1.046667545e-08 	3.408295381e-05
0.472887037 	0.02059824005 	-0.009226493125 	5.705637664e-09 	0.02055972787 	-1.099903995e-08 	3.919255561e-05
0.4730625996 	0.02299959877 	-0.01050178081 	5.807008429e-09 	0.02295577628 	-1.131778194e-08 	4.376008981e-05
0.4732381623 	0.02511906563 	-0.01161253743 	5.785325206e-09 	0.02507362057 	-1.148118853e-08 	4.779728966e-05
0.4734137249 	0.02697933046 	-0.01253251324 	5.554719316e-09 	0.02692890924 	-1.150426954e-08 	5.133398551e-05
0.4735892875 	0.02861057433 	-0.0132910793 	5.342096031e-09 	0.02855247122 	-1.145244124e-08 	5.442894589e-05
0.4737648501 	0.03004120519 	-0.01395566329 	5.294145251e-09 	0.02998106019 	-1.136491532e-08 	5.715223353e-05
0.4739404128 	0.03129625678 	-0.01453868886 	5.221128487e-09 	0.03123565963 	-1.120589397e-08 	5.954384875e-05
0.4741159754 	0.03239881671 	-0.01505089585 	5.130977292e-09 	0.03233591537 	-1.099595392e-08 	6.1641242e-05
0.474291538 	0.03336954306 	-0.01550185287 	5.02926788e-09 	0.03330455943 	-1.076897568e-08 	6.34877468e-05
0.4744671006 	0.03422650965 	-0.01589990621 	4.920390035e-09 	0.03415975717 	-1.052772742e-08 	6.511799137e-05
0.4746426632 	0.03498533617 	-0.01625234726 	4.808380809e-09 	0.0349170114 	-1.027679816e-08 	6.656152841e-05
0.4748182259 	0.03565942414 	-0.01656544138 	4.695860659e-09 	0.03558907277 	-9.980486426e-09 	6.784266417e-05
0.4749937885 	0.03626023148 	-0.01684450105 	4.584552362e-09 	0.03618861779 	-9.773303317e-09 	6.898556362e-05
0.4751693511 	0.03679756398 	-0.01709407687 	4.476161483e-09 	0.03672659541 	-9.652501819e-09 	7.001109847e-05
0.4753449137 	0.03727995701 	-0.01730284031 	3.289456427e-09 	0.03720770739 	-9.283717097e-09 	7.092823163e-05
0.4755204764 	0.03771477863 	-0.01747535332 	2.177180784e-09 	0.03763956592 	-8.965888006e-09 	7.175147401e-05
0.475696039 	0.03810802934 	-0.01763014335 	2.083871304e-09 	0.03803244078 	-8.91917757e-09 	7.25004027e-05
0.4758716016 	0.03846459816 	-0.01776900575 	1.863132266e-09 	0.03838837081 	-8.728084141e-09 	7.317890426e-05
0.4760471642 	0.03878866118 	-0.01789399754 	1.674591906e-09 	0.0387101357 	-8.434262008e-09 	7.379227758e-05
0.4762227269 	0.03912274729 	-0.01803164943 	1.545811735e-09 	0.03904478066 	-8.159251629e-09 	7.443020388e-05
0.4764955107 	0.03949401859 	-0.0181810805 	1.491545933e-09 	0.03941680388 	-7.826216604e-09 	7.513938353e-05
0.4767734216 	0.03985521775 	-0.01831385889 	1.487021223e-09 	0.03977548448 	-7.479320271e-09 	7.582312844e-05
0.4770565557 	0.04017519974 	-0.01842933544 	1.490576784e-09 	0.04009389044 	-7.141345442e-09 	7.643009869e-05
0.4773450114 	0.04045881227 	-0.01852989514 	1.484775809e-09 	0.04037722587 	-6.810676092e-09 	7.697021478e-05
0.4776388886 	0.04071018477 	-0.01861786009 	1.466532411e-09 	0.04062778395 	-6.485211605e-09 	7.744784811e-05
0.4779382892 	0.04093284142 	-0.01869496909 	1.437772633e-09 	0.04084967675 	-6.160825257e-09 	7.787083746e-05
0.4782433171 	0.04112979782 	-0.01876245581 	1.401767173e-09 	0.0410458974 	-5.834842639e-09 	7.824488857e-05
0.4785540779 	0.04130364611 	-0.01882138789 	1.361569488e-09 	0.04121903408 	-5.505641909e-09 	7.85749352e-05
0.4788706795 	0.04145662352 	-0.01887267708 	1.319716053e-09 	0.04137132728 	-5.172200414e-09 	7.886524836e-05
0.4791932316 	0.04159066842 	-0.01891710608 	1.278219108e-09 	0.0415047101 	-4.833891959e-09 	7.911951309e-05
0.4795218461 	0.04170746627 	-0.01895534967 	1.238600683e-09 	0.04162086436 	-4.490324814e-09 	7.934093539e-05
0.4798566368 	0.04180848757 	-0.01898799111 	1.201931432e-09 	0.04172125732 	-4.141235335e-09 	7.953231227e-05
0.48019772 	0.04189501927 	-0.01901553648 	1.168866373e-09 	0.041807173 	-3.786407333e-09 	7.969609144e-05
0.4805452138 	0.04196819102 	-0.01903842655 	1.139679037e-09 	0.04187973842 	-3.425606266e-09 	7.98344213e-05
0.4808992388 	0.04202899708 	-0.01905704652 	1.114292696e-09 	0.0419399454 	-3.058523603e-09 	7.994919254e-05
0.4812599177 	0.04207831476 	-0.01907173408 	1.092306908e-09 	0.04198866899 	-2.684727897e-09 	8.004207324e-05
0.4816273755 	0.04211691994 	-0.0190827861 	1.073017926e-09 	0.04202668299 	-2.303620763e-09 	8.011453848e-05
0.4820017397 	0.04214550029 	-0.01909046417 	1.055433481e-09 	0.04205467309 	-1.914394943e-09 	8.01678954e-05
0.48238314 	0.04216466645 	-0.01909499927 	1.038283204e-09 	0.04207324809 	-1.515992852e-09 	8.020330451e-05
0.4827717088 	0.04217496161 	-0.01909659564 	1.020032306e-09 	0.04208294943 	-1.107076044e-09 	8.022179796e-05
0.4831675807 	0.04217686971 	-0.0190954341 	9.988837148e-10 	0.04208425937 	-6.859953983e-10 	8.022429508e-05
0.4835708931 	0.04217082245 	-0.01909167481 	9.72724521e-10 	0.04207760807 	-2.507373918e-10 	8.021161584e-05
0.4839817856 	0.04215720545 	-0.0190854596 	9.391239739e-10 	0.04206337961 	2.011087494e-10 	8.018449244e-05
0.4844004009 	0.04213636346 	-0.01907691398 	8.954209802e-10 	0.04204191728 	6.72347552e-10 	8.014357928e-05
0.4848268841 	0.04210860495 	-0.01906614882 	8.387088517e-10 	0.04201352816 	1.166209448e-09 	8.008946173e-05
0.485261383 	0.0420742061 	-0.01905326181 	7.657731229e-10 	0.04197848709 	1.686396921e-09 	8.002266371e-05
0.4857040484 	0.04203341427 	-0.01903833866 	6.73117377e-10 	0.04193704015 	2.237089939e-09 	7.994365431e-05
0.4861550336 	0.04198645111 	-0.01902145414 	5.570007954e-10 	0.0418894077 	2.822946902e-09 	7.985285363e-05
0.4866144951 	0.04193351517 	-0.01900267298 	4.134558659e-10 	0.04183578711 	3.449116224e-09 	7.975063789e-05
0.4870825921 	0.04187478433 	-0.01898205059 	2.383106366e-10 	0.04177635509 	4.121237411e-09 	7.963734395e-05
0.487559487 	0.04181041787 	-0.0189596337 	2.721679631e-11 	0.04171126981 	4.845432164e-09 	7.951327331e-05
0.4880453452 	0.04174055835 	-0.01893546088 	-2.243189096e-10 	0.04164067275 	5.628289926e-09 	7.937869569e-05
0.4885403351 	0.04166533326 	-0.01890956302 	-5.209014387e-10 	0.04156469035 	6.476846577e-09 	7.923385212e-05
0.4890446283 	0.04158485649 	-0.01888196363 	-8.672103419e-10 	0.04148343551 	7.398553955e-09 	7.907895781e-05
0.4895583997 	0.04149922965 	-0.01885267921 	-1.267961047e-09 	0.04139700891 	8.401239496e-09 	7.891420468e-05
0.4900818274 	0.04140854327 	-0.01882171946 	-1.727873918e-09 	0.04130550016 	9.493057727e-09 	7.873976357e-05
0.4906150929 	0.04131287788 	-0.01878908752 	-2.251655082e-09 	0.04120898891 	1.068243293e-08 	7.85557863e-05
0.4911583811 	0.04121230491 	-0.01875478009 	-2.843989799e-09 	0.0411075458 	1.197799002e-08 	7.836240754e-05
0.4917118805 	0.04110688762 	-0.01871878762 	-3.509559135e-09 	0.04100123331 	1.338847293e-08 	7.815974639e-05
0.4922757829 	0.04099668186 	-0.01868109438 	-4.253105713e-09 	0.04089010658 	1.492265305e-08 	7.794790796e-05
0.4928502838 	0.04088173679 	-0.01864167858 	-5.079579519e-09 	0.0407742141 	1.658922792e-08 	7.772698469e-05
0.4934355824 	0.04076209551 	-0.01860051244 	-5.994373718e-09 	0.0406535984 	1.839671007e-08 	7.749705762e-05
0.4940318817 	0.04063779569 	-0.01855756223 	-7.00361906e-09 	0.0405282966 	2.035327287e-08 	7.725819758e-05
0.4946393885 	0.04050887008 	-0.01851278839 	-8.114457553e-09 	0.04039834109 	2.246650749e-08 	7.701046626e-05
0.4952583133 	0.04037534703 	-0.0184661455 	-9.335264569e-09 	0.04026376 	2.474315401e-08 	7.675391729e-05
0.4958888709 	0.04023725098 	-0.0184175824 	-1.067588239e-08 	0.04012457775 	2.718887818e-08 	7.648859724e-05
0.4965312797 	0.04009460292 	-0.01836704215 	-1.214798615e-08 	0.03998081559 	2.980806538e-08 	7.62145466e-05
0.4971857627 	0.03994742088 	-0.01831446198 	-1.376581929e-08 	0.03983249216 	3.260317256e-08 	7.593180092e-05
0.4978525466 	0.03979572038 	-0.01825977304 	-1.55477481e-08 	0.03967962407 	3.557409648e-08 	7.564039186e-05
0.4985318627 	0.0396395149 	-0.01820289978 	-1.75206766e-08 	0.03952222645 	3.871895499e-08 	7.534034825e-05
0.4992239466 	0.03947881647 	-0.01814375945 	-1.972142609e-08 	0.03936031368 	4.203413802e-08 	7.503169751e-05
0.4999290382 	0.03931363618 	-0.01808226174 	-2.219123593e-08 	0.03919390062 	4.551274796e-08 	7.471446797e-05
0.5006473819 	0.03914398493 	-0.01801830753 	-2.497254396e-08 	0.03902300374 	4.914473149e-08 	7.438869101e-05
0.501379227 	0.03896987415 	-0.01795179179 	-2.810737107e-08 	0.03884765058 	5.291791299e-08 	7.405441915e-05
0.502124827 	0.03879131676 	-0.01788262138 	-3.163843246e-08 	0.03866786774 	5.680589122e-08 	7.371170309e-05
0.5028844406 	0.03860832794 	-0.01781076506 	-3.562108573e-08 	0.03848368182 	6.07865892e-08 	7.336059353e-05
0.5036583311 	0.03842092549 	-0.01773659577 	-4.017734793e-08 	0.03829541147 	6.490044421e-08 	7.300169791e-05
0.5044467669 	0.03822912701 	-0.0176610772 	-4.52204616e-08 	0.0381015804 	6.841654285e-08 	7.263220202e-05
0.5052500214 	0.03803295208 	-0.01758562094 	-5.030910282e-08 	0.03790213948 	7.280481196e-08 	7.225201221e-05
0.506068373 	0.03780665128 	-0.0175098839 	-5.754951918e-08 	0.03767640444 	7.928711118e-08 	7.182169848e-05
0.507324668 	0.03752400467 	-0.01740851594 	-5.16510147e-08 	0.03739550973 	8.280192037e-08 	7.12862351e-05
0.5085949819 	0.03721085871 	-0.01727196561 	-4.214942528e-08 	0.03707957586 	8.480475716e-08 	7.068397733e-05
0.5098794711 	0.03689249975 	-0.01712379269 	-4.430385041e-08 	0.03675895844 	8.988633233e-08 	7.007279142e-05
0.5111782938 	0.03656857076 	-0.01697305711 	-4.617019058e-08 	0.03643553668 	9.412326361e-08 	6.945625965e-05
0.5124916099 	0.03623882042 	-0.0168195858 	-4.782306624e-08 	0.03610577719 	9.74115942e-08 	6.88276464e-05
0.5138195812 	0.03590305993 	-0.01666323687 	-4.936159311e-08 	0.03576915474 	1.020659791e-07 	6.818595046e-05
0.5151623712 	0.035561141 	-0.01650389165 	-5.089414319e-08 	0.03542583627 	1.074088218e-07 	6.753149004e-05
0.5165201452 	0.03521291141 	-0.01634145471 	-5.251573548e-08 	0.03507556242 	1.131001992e-07 	6.686377073e-05
0.5178930705 	0.03485818376 	-0.01617585707 	-5.427459516e-08 	0.03471820849 	1.185123405e-07 	6.618255482e-05
0.5192813161 	0.03449672408 	-0.0160070626 	-5.614068083e-08 	0.03435384883 	1.227700647e-07 	6.548798402e-05
0.520685053 	0.03412827862 	-0.01583507831 	-5.798748025e-08 	0.033982763 	1.249652027e-07 	6.47805913e-05
0.522104454 	0.03375264566 	-0.01565996384 	-5.960487968e-08 	0.03360540095 	1.245056533e-07 	6.406123434e-05
0.523539694 	0.0333697733 	-0.01548183375 	-6.075046919e-08 	0.03322229931 	1.214027782e-07 	6.333093615e-05
0.5249909497 	0.0329798402 	-0.01530084585 	-6.122731905e-08 	0.03283395229 	1.164019777e-07 	6.259063879e-05
0.5264583998 	0.03258328874 	-0.01511717195 	-6.096917061e-08 	0.03244065337 	1.109736398e-07 	6.184090174e-05
0.527942225 	0.03218078738 	-0.01493095024 	-6.011333417e-08 	0.03204233119 	1.071542207e-07 	6.108158895e-05
0.5294426081 	0.03177309869 	-0.01474222319 	-5.903802888e-08 	0.03163841601 	1.072052138e-07 	6.031161436e-05
0.5309597337 	0.03136085126 	-0.01455087 	-5.834650075e-08 	0.03122777111 	1.132007623e-07 	5.952881105e-05
0.5324937889 	0.03094425841 	-0.01435654489 	-5.880095708e-08 	0.03080870862 	1.266451048e-07 	5.872996146e-05
0.5340449624 	0.03052282051 	-0.01415863372 	-6.121349809e-08 	0.03037911735 	1.47950921e-07 	5.79110411e-05
0.5356134452 	0.03009501521 	-0.01395624432 	-6.627496216e-08 	0.02993672447 	1.757880398e-07 	5.706771732e-05
0.5371994306 	0.02965810594 	-0.01374824648 	-7.432868423e-08 	0.02947943367 	2.069438327e-07 	5.619599396e-05
0.5388031139 	0.02920827827 	-0.01353337002 	-8.517775147e-08 	0.02900560373 	2.371916339e-07 	5.529274241e-05
0.5404246925 	0.02874118275 	-0.01331036031 	-9.801760624e-08 	0.02851415928 	2.626484808e-07 	5.435591268e-05
0.5420643661 	0.02825293889 	-0.01307824544 	-1.114398835e-07 	0.02800470959 	2.805377147e-07 	5.338475999e-05
0.5437223366 	0.02774184562 	-0.01283689995 	-1.235299215e-07 	0.02747831199 	2.891345949e-07 	5.238129986e-05
0.5453988083 	0.0272099367 	-0.01258758906 	-1.326024945e-07 	0.02693834842 	2.885106432e-07 	5.135197921e-05
0.5470939875 	0.0266625954 	-0.012332712 	-1.381276088e-07 	0.02638980386 	2.814448479e-07 	5.030630082e-05
0.5488080831 	0.02610702918 	-0.01207515727 	-1.405378516e-07 	0.02583794905 	2.717428405e-07 	4.925431217e-05
0.5505413061 	0.02555158367 	-0.01181817199 	-1.405237761e-07 	0.02528850683 	2.618993951e-07 	4.82069226e-05
0.5522938699 	0.02500551906 	-0.01156545761 	-1.387765298e-07 	0.02474835597 	2.527569963e-07 	4.717724493e-05
0.5540659904 	0.0244783429 	-0.01132099292 	-1.359028989e-07 	0.02422512096 	2.441215839e-07 	4.617981358e-05
0.5558578859 	0.02397873024 	-0.01108855364 	-1.323507732e-07 	0.02372092952 	2.382099874e-07 	4.521868455e-05
0.5576697768 	0.02351310916 	-0.0108711744 	-1.283932133e-07 	0.02325002934 	2.22989945e-07 	4.432101792e-05
0.5595018865 	0.0230842205 	-0.01067046764 	-1.24479893e-07 	0.02283615067 	2.01097971e-07 	4.353205016e-05
0.5613544406 	0.02268701597 	-0.01036546596 	-1.931000008e-07 	0.02244493636 	2.049837973e-07 	4.278628696e-05
0.563227667 	0.022310155 	-0.009887197878 	-2.339347427e-07 	0.02204345124 	2.072532908e-07 	4.202094472e-05
0.5651217966 	0.02194645932 	-0.009405539134 	-1.94798872e-07 	0.02167153176 	1.895860774e-07 	4.131196282e-05
0.5670370626 	0.02159483157 	-0.009000630842 	-1.793704559e-07 	0.02133464242 	1.875975842e-07 	4.066975811e-05
0.5689737009 	0.02125541412 	-0.008627922141 	-1.694624791e-07 	0.02100026553 	1.913397823e-07 	4.003234282e-05
0.5709319499 	0.02092826535 	-0.008275441577 	-1.633354895e-07 	0.02067112404 	1.881649461e-07 	3.940490766e-05
0.5729120508 	0.02061341723 	-0.007935817677 	-1.594478604e-07 	0.02035586979 	1.857512969e-07 	3.880394545e-05
0.5749142474 	0.02031094319 	-0.007605973804 	-1.562700176e-07 	0.02005313759 	1.832037831e-07 	3.822685372e-05
0.5769387863 	0.02002090731 	-0.007285075071 	-1.535461824e-07 	0.019762929 	1.805473782e-07 	3.767363549e-05
0.5789859169 	0.01974335836 	-0.006972566885 	-1.511666853e-07 	0.01948518836 	1.777895943e-07 	3.714418464e-05
0.5810558911 	0.01947832124 	-0.006667982375 	-1.490712942e-07 	0.01921989955 	1.748936042e-07 	3.663847044e-05
0.583148964 	0.01922578389 	-0.006370898849 	-1.4721218e-07 	0.01896706216 	1.718601052e-07 	3.61564921e-05
0.5852653933 	0.01898568441 	-0.006080941763 	-1.45543526e-07 	0.01872662429 	1.686943038e-07 	3.569815069e-05
0.5874054395 	0.01875790614 	-0.005797780276 	-1.440228625e-07 	0.01849847631 	1.65407138e-07 	3.526323723e-05
0.5895693664 	0.01854228472 	-0.005521108919 	-1.426124368e-07 	0.01828245745 	1.620133389e-07 	3.485144525e-05
0.5917574402 	0.01833862186 	-0.005250630341 	-1.412810137e-07 	0.01807837127 	1.585287466e-07 	3.446240026e-05
0.5939699306 	0.01814669758 	-0.004986047443 	-1.400035775e-07 	0.01788600007 	1.549682296e-07 	3.409568728e-05
0.5962071099 	0.01796627778 	-0.004727063325 	-1.387595066e-07 	0.01770511376 	1.513448205e-07 	3.37508677e-05
0.5984692536 	0.01779711853 	-0.004473383328 	-1.375308785e-07 	0.01753547418 	1.476697561e-07 	3.342748751e-05
0.6007566404 	0.01763896925 	-0.004224716357 	-1.363014206e-07 	0.01737683769 	1.439527292e-07 	3.312508228e-05
0.6030695519 	0.01749157551 	-0.003980775513 	-1.350558626e-07 	0.0172289576 	1.402020989e-07 	3.284318172e-05
0.6054082729 	0.0173546817 	-0.003741278513 	-1.337794705e-07 	0.01709158651 	1.364251164e-07 	3.258131425e-05
0.6077730914 	0.01722803352 	-0.00350594807 	-1.32457684e-07 	0.01696447856 	1.326282541e-07 	3.233901117e-05
0.6101642987 	0.01711138015 	-0.003274512228 	-1.310758255e-07 	0.01684739131 	1.288177097e-07 	3.211581033e-05
0.6125821893 	0.01700447626 	-0.003046704654 	-1.296188661e-07 	0.01674008749 	1.250000867e-07 	3.191125943e-05
0.6150270608 	0.01690708373 	-0.002822264848 	-1.280713145e-07 	0.01664233636 	1.211827915e-07 	3.172491859e-05
0.6174992144 	0.01681897318 	-0.002600938256 	-1.264175671e-07 	0.01655391476 	1.17372475e-07 	3.155636245e-05
0.6199989545 	0.01673992535 	-0.002382476334 	-1.246438565e-07 	0.01647460785 	1.135697412e-07 	3.140518144e-05
0.622526589 	0.01666973239 	-0.002166636773 	-1.227430511e-07 	0.01640420943 	1.09765641e-07 	3.127098248e-05
0.625082429 	0.01660819871 	-0.001953184206 	-1.207113858e-07 	0.01634252272 	1.059462461e-07 	3.115339046e-05
0.6276667894 	0.01655514075 	-0.001741891011 	-1.185320674e-07 	0.01628936123 	1.021019771e-07 	3.105204989e-05
0.6302799884 	0.01651038577 	-0.001532533209 	-1.161793908e-07 	0.01624454903 	9.823411274e-08 	3.096662538e-05
0.6329223478 	0.01647377116 	-0.001324889251 	-1.136270114e-07 	0.01620792038 	9.435260296e-08 	3.0896801e-05
0.6355941931 	0.01644514475 	-0.00111874344 	-1.108522358e-07 	0.01617931902 	9.04684889e-08 	3.084227886e-05
0.6382958531 	0.01642436493 	-0.0009138854762 	-1.078382273e-07 	0.01615859715 	8.65900508e-08 	3.080277721e-05
0.6410276607 	0.01641130063 	-0.0007101101599 	-1.045662116e-07 	0.01614561481 	8.272299661e-08 	3.077802927e-05
0.6437899523 	0.01640583133 	-0.0005072175505 	-1.010167148e-07 	0.01614023892 	7.887077724e-08 	3.076778133e-05
0.646583068 	0.01640784652 	-0.0003050117497 	-9.717043097e-08 	0.01614234505 	7.503795293e-08 	3.07717962e-05
0.6494073518 	0.01641724484 	-0.0001033049313 	-9.300782397e-08 	0.01615181367 	7.122831461e-08 	3.078984601e-05
0.6522631514 	0.01643393317 	9.809266732e-05 	-8.850588184e-08 	0.01616853012 	6.744703711e-08 	3.082171222e-05
0.6551508186 	0.01645782609 	0.0002993776355 	-8.363843556e-08 	0.01619238904 	6.370582934e-08 	3.086719394e-05
0.658070709 	0.01648884494 	0.0005007339333 	-7.838085429e-08 	0.01622328678 	6.001635896e-08 	3.092609363e-05
0.6610231822 	0.01652691702 	0.0007023395441 	-7.270748713e-08 	0.01626112299 	5.639353859e-08 	3.099821997e-05
0.6640086017 	0.01657197492 	0.000904376475 	-6.658950751e-08 	0.01630580264 	5.2858636e-08 	3.108339179e-05
0.6670273351 	0.01662395587 	0.001107025582 	-5.99964236e-08 	0.01635723228 	4.943679446e-08 	3.118143098e-05
0.6700797543 	0.01668280112 	0.001310467682 	-5.289603487e-08 	0.01641532091 	4.615928705e-08 	3.129216405e-05
0.6731662352 	0.01674845541 	0.001514884225 	-4.525461045e-08 	0.0164799793 	4.306423873e-08 	3.141542092e-05
0.6762871577 	0.01682086646 	0.001720458134 	-3.703719146e-08 	0.01655111977 	4.019783009e-08 	3.155103443e-05
0.6794429063 	0.01689998454 	0.001927374764 	-2.820808867e-08 	0.01662865597 	3.761561995e-08 	3.169883998e-05
0.6826338695 	0.01698576216 	0.002135823031 	-1.873162282e-08 	0.01671250291 	3.538407865e-08 	3.185867555e-05
0.6858604404 	0.01707815374 	0.00234599675 	-8.573200238e-09 	0.01680257707 	3.358241022e-08 	3.203038193e-05
0.6891230163 	0.01717711538 	0.002558096203 	2.299074771e-09 	0.01689879676 	3.230454883e-08 	3.221380339e-05
0.6924219988 	0.01728260468 	0.002772330015 	1.391176274e-08 	0.01700108261 	3.166103287e-08 	3.240878866e-05
0.6957577944 	0.01739458048 	0.00298891741 	2.628386764e-08 	0.01710935838 	3.178049017e-08 	3.261519238e-05
0.6991308138 	0.01751300268 	0.003208091058 	3.943019918e-08 	0.01722355186 	3.280913368e-08 	3.283287689e-05
0.7025414724 	0.01763783214 	0.00343010036 	5.336154358e-08 	0.01734359615 	3.491626944e-08 	3.306171466e-05
0.7059901901 	0.01776902983 	0.003655215407 	6.807200898e-08 	0.01746943195 	3.832411489e-08 	3.330159267e-05
0.7094773917 	0.0179065553 	0.003883732732 	8.35318635e-08 	0.01760101068 	4.336642445e-08 	3.355241831e-05
0.7130035066 	0.01805036608 	0.004115983184 	9.968788844e-08 	0.01773829464 	5.040810459e-08 	3.381411969e-05
0.7165689691 	0.01820041717 	0.004352335206 	1.162830692e-07 	0.0178812618 	5.985646383e-08 	3.408665484e-05
0.7201742182 	0.01835665133 	0.004593203881 	1.327804033e-07 	0.01802991768 	7.224351552e-08 	3.437003425e-05
0.7238196978 	0.01851899348 	0.004839071535 	1.486096487e-07 	0.01818430179 	8.809026928e-08 	3.466433328e-05
0.727505857 	0.01868734964 	0.005090505784 	1.630761987e-07 	0.0183444909 	1.081255611e-07 	3.496969824e-05
0.7312331497 	0.01886159507 	0.005348133484 	1.753912674e-07 	0.01851058762 	1.331709749e-07 	3.528632476e-05
0.7350020349 	0.01904107747 	0.005611794473 	1.845692716e-07 	0.01868229534 	1.636825912e-07 	3.561364739e-05
0.7387709215 	0.01922394538 	0.005879502381 	1.889784264e-07 	0.0188583672 	1.99643824e-07 	3.59492893e-05
0.7424982157 	0.0194081392 	0.006149080936 	1.866883765e-07 	0.01903746842 	2.404979276e-07 	3.6290706e-05
0.7461843763 	0.01959254044 	0.006420017223 	1.758753102e-07 	0.01921921976 	2.857376882e-07 	3.663717457e-05
0.7498298574 	0.0197764622 	0.006692678853 	1.548402348e-07 	0.01940380898 	3.349679347e-07 	3.698905293e-05
0.7534351078 	0.01995917728 	0.006967546249 	1.215046721e-07 	0.0195915266 	3.874646155e-07 	3.734689489e-05
0.7570005716 	0.02013987843 	0.007245256561 	7.245203319e-08 	0.01978276065 	4.424323874e-07 	3.771144014e-05
0.7605266877 	0.02031761184 	0.007526764928 	2.497285911e-09 	0.01997804975 	4.987457697e-07 	3.808371543e-05
0.7640138905 	0.02049120488 	0.007813784328 	-9.727809984e-08 	0.02017804072 	5.552838188e-07 	3.84649538e-05
0.7674626093 	0.02065908127 	0.008109805255 	-2.464170072e-07 	0.02038350607 	6.116902149e-07 	3.885662788e-05
0.770873269 	0.02081862078 	0.008421341395 	-4.839167653e-07 	0.02059551083 	6.753072007e-07 	3.926076788e-05
0.7742462894 	0.02096532825 	0.008757215458 	-8.678675503e-07 	0.02081613744 	7.639606279e-07 	3.96813435e-05
0.777582086 	0.02109257271 	0.009120671679 	-1.437124986e-06 	0.02106256611 	7.67481327e-07 	4.015110504e-05
0.7808810695 	0.02119084967 	0.009489027254 	-2.098016482e-06 	0.02134942494 	6.153714607e-07 	4.069793771e-05
0.7841436462 	0.02125737197 	0.009765396013 	-2.158453173e-06 	0.02165148182 	5.099284121e-07 	4.127374206e-05
0.787370218 	0.02131152744 	0.009921246703 	-1.669879252e-06 	0.02194727235 	4.133876959e-07 	4.183760102e-05
0.7905611821 	0.02138861555 	0.01001019238 	-1.270581503e-06 	0.02222749604 	2.112075603e-07 	4.237178526e-05
0.7937169314 	0.02150969138 	0.01003724379 	-8.097680705e-07 	0.02246481275 	1.53249869e-07 	4.282417688e-05
0.7968378547 	0.02166330461 	0.01003288129 	-3.966289549e-07 	0.02266169291 	2.626740788e-07 	4.319948518e-05
0.7999243362 	0.02182875784 	0.01002859194 	-1.948694434e-07 	0.02284383414 	3.473838037e-07 	4.354669699e-05
0.8029767561 	0.02199736353 	0.01002722293 	-8.895907813e-08 	0.0230193777 	3.879075657e-07 	4.38813318e-05
0.8059954902 	0.02216702601 	0.01003347004 	-4.038730309e-08 	0.02319021305 	3.994483757e-07 	4.420699146e-05
0.8089809102 	0.02233762587 	0.01004835134 	-2.010643933e-08 	0.02335763014 	3.876918311e-07 	4.452613496e-05
0.8119333839 	0.02250954971 	0.01007122271 	-5.875612842e-09 	0.02352149808 	3.737723982e-07 	4.483851281e-05
0.8148532749 	0.02268238672 	0.01010151579 	1.131245316e-08 	0.02368281285 	3.706304604e-07 	4.51460236e-05
0.8177409426 	0.0228548173 	0.01013876041 	3.10106494e-08 	0.02384335573 	3.791379636e-07 	4.545206294e-05
0.8205967427 	0.02302567642 	0.01018225481 	4.83821524e-08 	0.02400457383 	3.904732951e-07 	4.575938945e-05
0.8234210268 	0.02319504704 	0.01023081664 	5.968034402e-08 	0.02416661348 	3.94547227e-07 	4.606828205e-05
0.8262141429 	0.02336430297 	0.01028305305 	6.773051187e-08 	0.02432839601 	3.895118202e-07 	4.637668453e-05
0.8289764348 	0.02353505216 	0.0103381464 	7.980567435e-08 	0.02448875972 	3.821349414e-07 	4.668238233e-05
0.8317082427 	0.02370808177 	0.01039623065 	9.759316389e-08 	0.02464748937 	3.790865873e-07 	4.698496516e-05
0.8344099031 	0.02388324119 	0.01045771174 	1.165317775e-07 	0.02480528905 	3.820248944e-07 	4.728577521e-05
0.8370817486 	0.02405998584 	0.01052254484 	1.322404357e-07 	0.02496316475 	3.897235614e-07 	4.758673018e-05
0.8397241082 	0.02423783306 	0.01059020164 	1.429989108e-07 	0.02512201527 	4.005961352e-07 	4.788954342e-05
0.8423373074 	0.02441648876 	0.01065998436 	1.489200237e-07 	0.02528253992 	4.132486792e-07 	4.819554801e-05
0.844921668 	0.02459582911 	0.01073129729 	1.512366537e-07 	0.0254452414 	4.259180091e-07 	4.850570225e-05
0.8474775082 	0.02477595441 	0.01080378761 	1.512762584e-07 	0.02561037655 	4.352988522e-07 	4.882049574e-05
0.8500051427 	0.02495737028 	0.0108773539 	1.486530442e-07 	0.0257778271 	4.362628912e-07 	4.913970304e-05
0.8525048829 	0.02514109905 	0.01095198497 	1.418341635e-07 	0.02594703329 	4.256516529e-07 	4.946225706e-05
0.8549770366 	0.02532841428 	0.01102766156 	1.309002216e-07 	0.02611743183 	4.073871421e-07 	4.978708403e-05
0.8574219081 	0.02552017852 	0.01110442868 	1.14591618e-07 	0.02628916636 	3.916946274e-07 	5.011445777e-05
0.8598397987 	0.02571620073 	0.01118248182 	1.000712987e-07 	0.02646485118 	4.196016307e-07 	5.044936187e-05
0.862231006 	0.02591583986 	0.01126683493 	1.23146006e-07 	0.02665340545 	4.309009364e-07 	5.080879871e-05
0.8645958245 	0.02611998902 	0.01137047595 	2.176830342e-07 	0.02683178183 	2.378571364e-07 	5.114883367e-05
0.8669345455 	0.02633284137 	0.01152913339 	9.403067431e-07 	0.02697487502 	1.301623825e-07 	5.142160907e-05
0.8692474569 	0.02658465127 	0.01190434484 	2.240134828e-06 	0.02711807854 	-8.500417887e-08 	5.169459477e-05
0.8715348435 	0.0269694366 	0.01240912552 	1.479723111e-06 	0.02719440982 	-1.25209407e-06 	5.184010342e-05
0.8737969871 	0.02754542561 	0.01269524699 	9.785249024e-08 	0.02710217648 	-2.230401685e-06 	5.166428103e-05
0.8760341663 	0.02823731718 	0.0128179144 	1.804748055e-07 	0.02697295439 	-2.007289147e-06 	5.141794782e-05
0.8782466565 	0.02895052188 	0.01296663791 	3.205339173e-07 	0.02698198897 	-1.399050691e-06 	5.143517022e-05
0.8804347301 	0.0296420723 	0.01314953359 	4.785953302e-07 	0.02716355624 	-6.396885733e-07 	5.178128792e-05
0.8825986568 	0.03025773987 	0.01336298055 	6.085698307e-07 	0.02751885617 	4.826883527e-07 	5.245858833e-05
0.8847387028 	0.03069112739 	0.01359150294 	6.33973156e-07 	0.02805757802 	1.961821111e-06 	5.348554191e-05
0.8868551318 	0.03081926548 	0.01380804679 	4.689346722e-07 	0.02877369504 	3.722381858e-06 	5.485065997e-05
0.8889482045 	0.03062440152 	0.01398350042 	1.298179668e-07 	0.02962692544 	4.777597881e-06 	5.647715427e-05
0.8910181784 	0.03030315877 	0.01408587594 	-1.113830248e-06 	0.03044669039 	3.651757074e-06 	5.803985411e-05
0.8930653087 	0.03015323822 	0.01404492576 	-1.189043657e-06 	0.03097854969 	1.806407365e-06 	5.905372576e-05
0.8950898473 	0.03028793508 	0.01406644906 	8.223322612e-07 	0.03122585706 	1.032885334e-06 	5.952516233e-05
0.8970920436 	0.03061818374 	0.01430165409 	8.88817839e-07 	0.03134777377 	6.028104892e-07 	5.975756948e-05
0.8990721441 	0.03102571103 	0.01450182944 	-7.301017802e-08 	0.03140202406 	9.158100825e-07 	5.98609856e-05
0.9010303927 	0.03139483028 	0.01461521957 	-6.560192366e-08 	0.03150271208 	2.349115011e-06 	6.005292495e-05
0.9029670306 	0.03163817343 	0.01473211525 	-1.180581528e-07 	0.03176777602 	3.717619808e-06 	6.055821049e-05
0.9048822962 	0.03173955026 	0.01484869127 	-2.321303451e-07 	0.03218573813 	4.365182507e-06 	6.135496245e-05
0.9067764254 	0.03174212766 	0.01496023878 	-3.514087799e-07 	0.03268918892 	4.123958034e-06 	6.231467957e-05
0.9086496514 	0.03172450404 	0.01505981261 	-6.67514162e-07 	0.03319669974 	2.92871098e-06 	6.328213625e-05
0.910502205 	0.03176390702 	0.01513570696 	-8.98243627e-07 	0.03363720144 	1.306768373e-06 	6.412185493e-05
0.9123343142 	0.03189396196 	0.01520931307 	-8.034274434e-07 	0.03399133829 	-6.017962626e-08 	6.479693818e-05
0.9141462048 	0.03210619728 	0.01529521793 	-5.219475271e-07 	0.0342709759 	-8.361684544e-07 	6.533000519e-05
0.9159380997 	0.03237171561 	0.01539306466 	-2.391191071e-07 	0.03450624936 	-1.088788526e-06 	6.577850179e-05
0.9177102197 	0.0326593943 	0.0155083139 	-2.624609948e-07 	0.03473444442 	-1.091929753e-06 	6.6213505e-05
0.9194627831 	0.03295194815 	0.01562249811 	-4.428983361e-07 	0.0349700386 	-9.8351439e-07 	6.6662613e-05
0.9211960055 	0.03324513276 	0.01572524169 	-5.791684434e-07 	0.03521158255 	-9.162330158e-07 	6.71230629e-05
0.9229101006 	0.03354085798 	0.0158294577 	-4.130812609e-07 	0.03545010387 	-8.8695264e-07 	6.757775083e-05
0.9246052793 	0.03384945392 	0.01598313379 	2.629311023e-07 	0.03568696381 	-9.391407687e-07 	6.80292717e-05
0.9262817504 	0.03420305245 	0.01620924171 	4.479493341e-07 	0.0359068807 	-1.478594601e-06 	6.844849441e-05
0.9279397204 	0.03464410414 	0.01641509338 	1.57478316e-07 	0.03605451374 	-2.268669439e-06 	6.872992403e-05
0.9295793934 	0.03517752147 	0.01657030573 	1.82078112e-07 	0.03613012188 	-2.754956704e-06 	6.887405414e-05
0.9312009714 	0.03577087419 	0.01672756497 	2.374408827e-07 	0.03618770617 	-3.010215882e-06 	6.898382582e-05
0.9328046541 	0.03639512797 	0.0168888448 	2.831950334e-07 	0.03625098582 	-3.116262232e-06 	6.910445442e-05
0.9343906389 	0.03702765007 	0.01705198572 	3.230763565e-07 	0.03633153146 	-2.922156189e-06 	6.925799679e-05
0.9359591211 	0.03763433145 	0.01721411964 	3.574538058e-07 	0.03644839745 	-2.249254081e-06 	6.948077584e-05
0.937510294 	0.03815989339 	0.01737130048 	3.697377891e-07 	0.03662641428 	-1.00726169e-06 	6.982012541e-05