0.3526971907 	6.037074477e-06 	-5.460671797e-08 	5.186619661e-12 	5.99061454e-06 	-4.215520741e-10 	1.141977632e-08
0.3528833318 	7.696369705e-05 	-2.733085263e-06 	4.001986635e-10 	7.506940958e-05 	-8.007421621e-09 	1.431031591e-07
0.3530694809 	0.0004416909003 	-3.561282761e-05 	5.519047106e-09 	0.0004180757497 	-4.634031643e-08 	7.969685771e-07
0.3532556373 	0.001490673696 	-0.000209351344 	3.120985569e-08 	0.001353880116 	-1.441936544e-07 	2.580871793e-06
0.3534418003 	0.003629496575 	-0.0007447869112 	1.001618384e-07 	0.003145579454 	-3.041581753e-07 	5.996348709e-06
0.3536279691 	0.00702361378 	-0.00185301181 	2.137797558e-07 	0.005823473447 	-4.880274529e-07 	1.110115894e-05
0.3538141431 	0.0114282393 	-0.003543252871 	3.382380279e-07 	0.009140077911 	-6.407722391e-07 	1.742352885e-05
0.3540003216 	0.01631027318 	-0.005596478342 	4.326133493e-07 	0.01270376842 	-7.274339681e-07 	2.421691345e-05
0.3541865037 	0.02113943321 	-0.007724740391 	4.792930774e-07 	0.01616865878 	-7.479303954e-07 	3.082195749e-05
0.3543726888 	0.02556936077 	-0.00971652796 	4.840049778e-07 	0.01932651245 	-7.189542391e-07 	3.684170426e-05
0.3545588762 	0.02942023343 	-0.01137224923 	4.239209024e-07 	0.02211487003 	-6.683462712e-07 	4.215708879e-05
0.3547450652 	0.03267395219 	-0.01266243916 	3.537485494e-07 	0.02453231004 	-6.030120774e-07 	4.676540134e-05
0.354931255 	0.03540917115 	-0.01372633698 	3.116788226e-07 	0.02658603096 	-5.230645973e-07 	5.068036421e-05
0.3551174449 	0.03768877358 	-0.01462013424 	2.67301929e-07 	0.02830078834 	-4.369065728e-07 	5.394916838e-05
0.3553036343 	0.03957053735 	-0.01536886874 	2.235064419e-07 	0.02970840112 	-3.499670591e-07 	5.663246957e-05
0.3554898223 	0.04110629016 	-0.01598100327 	1.754323483e-07 	0.03085690833 	-2.70765943e-07 	5.882184351e-05
0.3556760083 	0.04234144556 	-0.01645564075 	1.289372549e-07 	0.03179348655 	-1.996398878e-07 	6.060722191e-05
0.3558621916 	0.04332593508 	-0.01682313273 	8.981922963e-08 	0.03254844303 	-1.360648098e-07 	6.204637879e-05
0.3560483715 	0.0441025217 	-0.01711458218 	5.544973863e-08 	0.03314445533 	-8.169164956e-08 	6.318254389e-05
0.3562345472 	0.04470074252 	-0.01733974989 	2.625363184e-08 	0.03360466888 	-3.728857837e-08 	6.405983882e-05
0.356420718 	0.04514532085 	-0.01750720027 	2.580673324e-09 	0.03394825158 	-3.486095778e-09 	6.471480294e-05
0.3564442227 	0.0451846513 	-0.01752198155 	-5.975375255e-07 	0.03397890209 	1.243970046e-06 	6.477323133e-05
0.3566065628 	0.045456817 	-0.01762426209 	1.802440936e-08 	0.03419099294 	-2.44913868e-08 	6.517753544e-05
0.3567923551 	0.04565275922 	-0.01769733741 	3.289834275e-08 	0.03434628879 	-4.144784035e-08 	6.547357249e-05
0.3569781408 	0.04574774396 	-0.01773182776 	4.136329533e-08 	0.03442523272 	-4.611130158e-08 	6.562406156e-05
0.357163919 	0.04575404865 	-0.01773232395 	4.316903793e-08 	0.03443712441 	-3.803274267e-08 	6.564673043e-05
0.3573496891 	0.04568211075 	-0.01770276078 	3.809620003e-08 	0.0343898539 	-1.681568699e-08 	6.55566197e-05
0.3575354505 	0.04554091387 	-0.01764654634 	2.596096702e-08 	0.03429020151 	1.787421961e-08 	6.536665455e-05
0.3577212023 	0.04533830391 	-0.01756666899 	6.619942052e-09 	0.03414405823 	6.629784948e-08 	6.508806484e-05
0.357906944 	0.04508123248 	-0.01746577631 	-2.002664327e-08 	0.03395655266 	1.286321656e-07 	6.473062711e-05
0.3580926748 	0.04477558927 	-0.01734614904 	-5.411541408e-08 	0.03373226566 	2.051287195e-07 	6.430307374e-05
0.358278394 	0.04437452802 	-0.01718949074 	-1.007822582e-07 	0.03343704161 	3.055697902e-07 	6.374029466e-05
0.3585669344 	0.04380103161 	-0.01696576557 	-1.766960239e-07 	0.03301336087 	4.680345644e-07 	6.293264142e-05
0.3588608649 	0.04307971949 	-0.01668452402 	-2.78732232e-07 	0.03247834128 	6.804659173e-07 	6.191274536e-05
0.3591602827 	0.042266092 	-0.01636748337 	-4.039311524e-07 	0.03187340298 	9.372335657e-07 	6.075956484e-05
0.3594652866 	0.04136544439 	-0.01601674339 	-5.541681984e-07 	0.03120272625 	1.241952512e-06 	5.948106859e-05
0.3597759769 	0.04038171171 	-0.01563381788 	-7.315493562e-07 	0.03046906285 	1.598630705e-06 	5.808250224e-05
0.3600924555 	0.03931759076 	-0.01521977217 	-9.384225893e-07 	0.02967443212 	2.011643823e-06 	5.65677152e-05
0.3604148257 	0.03817465564 	-0.01477524632 	-1.177375734e-06 	0.0288200374 	2.48604879e-06 	5.493900139e-05
0.3607431925 	0.03695425744 	-0.0143008 	-1.448247529e-06 	0.02790685258 	3.021596001e-06 	5.319821733e-05
0.3610776623 	0.03566349298 	-0.01379930885 	-1.738698627e-06 	0.02694054312 	3.593127278e-06 	5.135616292e-05
0.3614183433 	0.03431707871 	-0.01327669284 	-2.033742729e-06 	0.02593303146 	4.169979241e-06 	4.943556568e-05
0.3617653449 	0.03292853366 	-0.01273835552 	-2.333603265e-06 	0.02489523046 	4.75266104e-06 	4.745722853e-05
0.3621187783 	0.03150770189 	-0.01218819247 	-2.639240106e-06 	0.02383499526 	5.343117075e-06 	4.543612556e-05
0.3624787563 	0.03006453124 	-0.01163012255 	-2.943969335e-06 	0.02276029969 	5.927281728e-06 	4.338745711e-05
0.362845393 	0.02861008798 	-0.01106849932 	-3.239147841e-06 	0.02168008159 	6.486969801e-06 	4.132826119e-05
0.3632188042 	0.02715738439 	-0.01050843966 	-3.511382206e-06 	0.02060490441 	6.994199693e-06 	3.927867464e-05
0.3635991072 	0.02572220183 	-0.009956134473 	-3.74291525e-06 	0.0195475026 	7.413662632e-06 	3.726297291e-05
0.3639864209 	0.0243231914 	-0.009418553133 	-3.918110287e-06 	0.01852035519 	7.738670455e-06 	3.530494445e-05
0.3643808655 	0.02298090244 	-0.008904094797 	-4.004954767e-06 	0.01754264747 	7.827696321e-06 	3.34411618e-05
0.3647825629 	0.02171456783 	-0.008421441611 	-3.998541624e-06 	0.01663950899 	7.656539216e-06 	3.171952885e-05
0.3651916363 	0.02051457748 	-0.007915912475 	-4.988167476e-06 	0.01581792839 	7.442356681e-06 	3.015336787e-05
0.3656082104 	0.01935392904 	-0.007319935076 	-6.263793228e-06 	0.01506526006 	7.290378935e-06 	2.871857285e-05
0.3660324115 	0.01824548229 	-0.00670179739 	-6.352874337e-06 	0.01437185835 	7.100696118e-06 	2.739675647e-05
0.3664643669 	0.01721109432 	-0.006133528477 	-6.213530032e-06 	0.01373522954 	6.884849862e-06 	2.6183165e-05
0.3669042055 	0.01625165657 	-0.005605860425 	-6.138781225e-06 	0.01314907246 	6.663423191e-06 	2.506578671e-05
0.3673532781 	0.01536391112 	-0.005112057238 	-6.016044278e-06 	0.01261145145 	6.262704473e-06 	2.404093163e-05
0.3678226155 	0.01454759931 	-0.004649920355 	-5.854485482e-06 	0.01212916739 	5.716931713e-06 	2.312156417e-05
0.3683005872 	0.01381165336 	-0.004222837275 	-5.573162853e-06 	0.01170911346 	4.993413894e-06 	2.232082464e-05
0.3687873492 	0.01316049937 	-0.003833120295 	-4.925872484e-06 	0.01135437016 	3.930506875e-06 	2.16445853e-05
0.3692830603 	0.0125911161 	-0.003479148371 	-4.319021931e-06 	0.01106334684 	2.938540773e-06 	2.108981397e-05
0.369787882 	0.01209869886 	-0.00315878592 	-3.759956671e-06 	0.010833252 	2.035560684e-06 	2.065118927e-05
0.3703019789 	0.01167702823 	-0.002869519187 	-3.250577897e-06 	0.01066057837 	1.228993619e-06 	2.032202532e-05
0.3708255181 	0.01131908273 	-0.002609140049 	-2.786921725e-06 	0.01054182883 	5.130062187e-07 	2.009565569e-05
0.3713586698 	0.01101798398 	-0.002376111977 	-2.351276085e-06 	0.01047436983 	-1.25062776e-07 	1.996706009e-05
0.3719016073 	0.01076811233 	-0.00216916727 	-1.957700642e-06 	0.01045632389 	-6.812506509e-07 	1.993265952e-05
0.3724545069 	0.01056478228 	-0.001984896824 	-1.647081166e-06 	0.0104842952 	-1.116988706e-06 	1.998598062e-05
0.3730175478 	0.01040262754 	-0.001817943302 	-1.398380717e-06 	0.01055132133 	-1.407736886e-06 	2.011375104e-05
0.3735909124 	0.01027532061 	-0.001665202274 	-1.178431966e-06 	0.01064894022 	-1.576328352e-06 	2.029983978e-05
0.3741747866 	0.01017649399 	-0.00152523198 	-9.882821806e-07 	0.01077027449 	-1.65393056e-06 	2.053113662e-05
0.3747693591 	0.01010053183 	-0.001396177739 	-8.265187593e-07 	0.01091030584 	-1.661449121e-06 	2.07980753e-05
0.3753748222 	0.01004286443 	-0.001276265843 	-6.874445347e-07 	0.01106525417 	-1.613005699e-06 	2.109344987e-05
0.3759913715 	0.009999826887 	-0.001164033146 	-5.667763529e-07 	0.01123214078 	-1.518600481e-06 	2.141158215e-05
0.3766192059 	0.00996846305 	-0.001058254631 	-4.610170745e-07 	0.01140854807 	-1.386290631e-06 	2.174786346e-05
0.3772585279 	0.009946376285 	-0.0009579067248 	-3.673652637e-07 	0.01159253142 	-1.222520035e-06 	2.209858685e-05
0.3779095436 	0.009931611598 	-0.000862130736 	-2.835785465e-07 	0.01178253384 	-1.032336009e-06 	2.246078428e-05
0.3785724626 	0.00992256421 	-0.0007702030292 	-2.078536056e-07 	0.01197730696 	-8.197025874e-07 	2.283207599e-05
0.379247498 	0.009917907416 	-0.0006815070583 	-1.387315805e-07 	0.01217584126 	-5.87753259e-07 	2.321053754e-05
0.3799348671 	0.009916541369 	-0.0005955352023 	-7.502199311e-08 	0.01237741496 	-3.389832868e-07 	2.359479304e-05
0.3806347904 	0.009917529029 	-0.0005117796177 	-1.574510182e-08 	0.01258123743 	-7.539209651e-08 	2.398333532e-05
0.3808310927 	0.009918247986 	-0.0004891718389 	1.014353887e-06 	0.01263801944 	2.271295759e-06 	2.409157761e-05
0.3813466422 	0.009920140694 	-0.0004296733281 	-4.108385727e-08 	0.01278744947 	-1.962499417e-07 	2.437643278e-05
0.3820801772 	0.009923749654 	-0.0003484387071 	-9.602370574e-08 	0.01299724998 	-4.82549177e-07 	2.477637086e-05
0.3828382826 	0.009927752724 	-0.0002675613572 	-1.493253839e-07 	0.01321007411 	-7.856253699e-07 	2.518207281e-05
0.3836101777 	0.009931636718 	-0.0001873322534 	-2.005568838e-07 	0.01342402971 	-1.099457237e-06 	2.558993164e-05
0.3843961079 	0.00993498342 	-0.0001079055874 	-2.502656773e-07 	0.01363821345 	-1.423064588e-06 	2.599822539e-05
0.3851963225 	0.009937408759 	-2.898757893e-05 	-2.989345493e-07 	0.01385234917 	-1.755630341e-06 	2.640642757e-05
0.3860110754 	0.00993859808 	4.963298326e-05 	-3.470067178e-07 	0.01406630669 	-2.096456305e-06 	2.681429007e-05
0.3868406247 	0.00993827837 	0.000128166162 	-3.949032031e-07 	0.01427994064 	-2.444928959e-06 	2.722153576e-05
0.3876852333 	0.009936215723 	0.0002068043835 	-4.430269937e-07 	0.01449316535 	-2.800504838e-06 	2.762800133e-05
0.3885451683 	0.009932208472 	0.0002857353163 	-4.917928493e-07 	0.01470587941 	-3.16256643e-06 	2.803349344e-05
0.3894207017 	0.009926080961 	0.0003651440224 	-5.415670067e-07 	0.0149180443 	-3.530518688e-06 	2.84379387e-05
0.3903121102 	0.009916381283 	0.0004553047532 	-5.930129001e-07 	0.01515693293 	-3.906000169e-06 	2.889332681e-05
0.3916794299 	0.009900748168 	0.0005666028493 	-6.743436837e-07 	0.01544390014 	-4.474270953e-06 	2.944036607e-05
0.3930606337 	0.009879387537 	0.0006885959091 	-7.577945001e-07 	0.01574802257 	-5.050633261e-06 	3.002010795e-05
0.3944558643 	0.009853539295 	0.0008112019653 	-8.090296007e-07 	0.01604191977 	-5.372287806e-06 	3.058035771e-05
0.3958652666 	0.00982301887 	0.0009357930235 	-7.584894874e-07 	0.01632734085 	-4.819232741e-06 	3.112444962e-05
0.3973226541 	0.009790482969 	0.001063747467 	-6.32188413e-07 	0.01659157261 	-3.654150944e-06 	3.162814879e-05
0.3987982205 	0.009772677674 	0.00118438088 	-4.079909946e-07 	0.01676569264 	-2.074128146e-06 	3.196006995e-05
0.4002886278 	0.009773523005 	0.00129224619 	-2.770678099e-07 	0.01684209019 	-1.318985314e-06 	3.210570492e-05
0.401794029 	0.009777969788 	0.00139496558 	-1.95224825e-07 	0.01689095994 	-1.045909116e-06 	3.219886425e-05
0.4033145791 	0.00978214549 	0.001492488554 	-1.153177106e-07 	0.01693482418 	-7.89590379e-07 	3.228248168e-05
0.404850435 	0.00978634458 	0.001583764122 	-5.60922477e-08 	0.01697472682 	-5.425725383e-07 	3.23585472e-05
0.4064017559 	0.009790516466 	0.001668866989 	-1.804916562e-08 	0.01701104747 	-3.041731189e-07 	3.242778446e-05
0.4079687029 	0.009794496998 	0.00174818524 	-1.006607045e-09 	0.01704373782 	-7.547849084e-08 	3.249010134e-05
0.4085056593 	0.00979580393 	0.00177309916 	9.883133132e-07 	0.01705382981 	-4.632188263e-07 	3.250933948e-05
0.4095500387 	0.009798348984 	0.001821685968 	1.402985139e-10 	0.01707349883 	-1.433924266e-07 	3.254683411e-05
0.4111722932 	0.009802187563 	0.001889917848 	1.77484901e-08 	0.01710107155 	-3.574335385e-07 	3.259939538e-05
0.4128244561 	0.009805897155 	0.001953405646 	5.592276745e-08 	0.01712635569 	-5.650394007e-07 	3.264759397e-05
0.4144931395 	0.009809540681 	0.002011768795 	1.130557851e-07 	0.01714970171 	-7.645978242e-07 	3.269209798e-05
0.4161785171 	0.009813163229 	0.002065212138 	1.870982715e-07 	0.01717147015 	-9.567807662e-07 	3.273359468e-05
0.4178807647 	0.009816795822 	0.002114215712 	2.757835909e-07 	0.01719197293 	-1.142254792e-06 	3.277267866e-05
0.4196000609 	0.009820507133 	0.002159166842 	3.766820375e-07 	0.01721159467 	-1.321597294e-06 	3.281008317e-05
0.4213365867 	0.009824286769 	0.00220063855 	4.874240795e-07 	0.01723043971 	-1.495438719e-06 	3.284600703e-05
0.4230905257 	0.009828188526 	0.002239045754 	6.057758891e-07 	0.01724881996 	-1.664264725e-06 	3.288104491e-05
0.4248808085 	0.009832379592 	0.002274762289 	6.458674513e-07 	0.0172673569 	-1.617834851e-06 	3.291638147e-05
0.4267111345 	0.009836824468 	0.00230851823 	6.051329214e-07 	0.01728593798 	-1.401936369e-06 	3.295180217e-05
0.4285596439 	0.009841511119 	0.002340430619 	5.50149014e-07 	0.01730454714 	-1.193293723e-06 	3.298727639e-05
0.430426532 	0.009846514774 	0.002370530252 	4.831433101e-07 	0.01732345224 	-9.912491284e-07 	3.302331478e-05
0.432311997 	0.00985185991 	0.002399221127 	4.063819335e-07 	0.01734272664 	-7.953177761e-07 	3.306005714e-05
0.4342162403 	0.009857613196 	0.002426712908 	3.218232195e-07 	0.01736258141 	-6.049645609e-07 	3.309790585e-05
0.4361394662 	0.009863684087 	0.002453515965 	2.311945994e-07 	0.01738272756 	-4.198351946e-07 	3.313631e-05
0.438086583 	0.009870274473 	0.002479462616 	1.355359923e-07 	0.0174038792 	-2.388813761e-07 	3.317663092e-05
0.4400903286 	0.009877459937 	0.002505071464 	3.402598476e-08 	0.01742613479 	-5.840930482e-08 	3.321905625e-05
0.4407568964 	0.009879965712 	0.002513506425 	1.685415394e-07 	0.01743365179 	-7.656853134e-07 	3.323338575e-05
0.4421124636 	0.009885066139 	0.002530668793 	6.903910055e-08 	0.01744891034 	-1.176038992e-07 	3.326247278e-05
0.4441539424 	0.009893187179 	0.002555811688 	1.736635112e-07 	0.01747258946 	-2.89437368e-07 	3.330761177e-05
0.4462156827 	0.009901855309 	0.002580726594 	2.797503605e-07 	0.01749721152 	-4.573731594e-07 	3.335454825e-05
0.4482979098 	0.009911051381 	0.002605591615 	3.868069229e-07 	0.01752269247 	-6.217042388e-07 	3.340312203e-05
0.4504008528 	0.009920792013 	0.002630438763 	4.944655865e-07 	0.01754912963 	-7.827085931e-07 	3.34535186e-05
0.4525441768 	0.009931237908 	0.002655252068 	6.036074579e-07 	0.01757699548 	-9.422468722e-07 	3.350663865e-05
0.454731616 	0.009942356485 	0.002680420643 	7.142063391e-07 	0.01760604502 	-1.100620658e-06 	3.356201515e-05
0.4569406477 	0.009954063675 	0.002705831329 	8.247031208e-07 	0.01763608273 	-1.255970674e-06 	3.361927539e-05
0.4591715173 	0.009966395713 	0.002731218997 	9.349481343e-07 	0.01766729603 	-1.408371123e-06 	3.36787766e-05
0.4614244743 	0.009979329647 	0.002756755666 	8.41169892e-07 	0.01769955913 	-1.254267582e-06 	3.374027905e-05
0.4636997726 	0.009992862182 	0.002782466631 	7.360142415e-07 	0.01773290409 	-1.087085167e-06 	3.380384381e-05
0.4660138631 	0.01000715109 	0.0028082687 	6.297292219e-07 	0.01776781248 	-9.21718715e-07 	3.38703889e-05
0.4683768474 	0.01002219511 	0.00283450576 	5.220677968e-07 	0.01780410086 	-7.574880881e-07 	3.393956463e-05
0.4707631028 	0.01003786557 	0.002861124964 	4.14669354e-07 	0.01784145044 	-5.967172402e-07 	3.401076331e-05
0.4731729021 	0.01005420099 	0.002887753409 	3.075612937e-07 	0.01788012058 	-4.391127911e-07 	3.408447935e-05
0.4756065229 	0.0100711105 	0.002914705485 	2.008232427e-07 	0.01791973878 	-2.845848915e-07 	3.416000265e-05
0.4780642477 	0.01008870698 	0.002941729211 	9.44733048e-08 	0.01796079374 	-1.329304176e-07 	3.423826482e-05
0.4802716443 	0.01010488816 	0.002965688521 	4.968524854e-08 	0.01799832329 	-2.564876762e-07 	3.430980657e-05
0.4805791243 	0.01010714351 	0.002969024328 	1.30285728e-08 	0.01800354714 	-1.837060836e-08 	3.431976468e-05
0.4831257177 	0.01012625252 	0.002996890848 	1.192396976e-07 	0.01804737121 	-1.670231557e-07 	3.440330554e-05
0.4856974442 	0.01014602015 	0.003024881142 	2.247020319e-07 	0.01809249879 	-3.127581117e-07 	3.448933125e-05
0.4882946084 	0.01016638338 	0.003053151328 	3.293982261e-07 	0.01813868358 	-4.557243554e-07 	3.457737228e-05
0.4909175204 	0.01018741157 	0.003081583418 	4.332916633e-07 	0.01818622717 	-5.960379716e-07 	3.466800359e-05
0.4935914432 	0.01020926441 	0.003110284725 	5.375739028e-07 	0.01823546056 	-7.353364362e-07 	3.476185611e-05
0.4963073025 	0.01023185809 	0.003139580005 	6.415943466e-07 	0.01828595373 	-8.729040389e-07 	3.485811012e-05
0.4990499663 	0.01025511895 	0.003169132613 	7.445282593e-07 	0.01833772195 	-1.007757052e-06 	3.495679473e-05
0.5018197696 	0.01027895713 	0.003199023155 	8.463766023e-07 	0.0183905006 	-1.140063164e-06 	3.505740551e-05
0.5046170535 	0.01030348441 	0.003229078441 	9.350860892e-07 	0.01844473992 	-1.253812906e-06 	3.516080074e-05
0.5074731508 	0.01032887251 	0.003259520006 	8.341191844e-07 	0.01850067665 	-1.113385071e-06 	3.52674317e-05
0.5103654706 	0.0103549873 	0.003290618702 	7.34008789e-07 	0.01855777156 	-9.756438223e-07 	3.537627045e-05
0.5132863965 	0.01038172863 	0.003322014906 	6.351383475e-07 	0.01861603879 	-8.408856389e-07 	3.5487344e-05
0.5162362976 	0.01040908248 	0.003353751823 	5.375178739e-07 	0.01867543211 	-7.090356589e-07 	3.560056416e-05
0.5192259846 	0.01043721269 	0.003385776175 	4.406779652e-07 	0.0187364065 	-5.792960591e-07 	3.571679831e-05
0.522272157 	0.01046617893 	0.003418413581 	3.441414476e-07 	0.01879881556 	-4.509028238e-07 	3.583576732e-05
0.5253484873 	0.0104958395 	0.003451607835 	2.49155482e-07 	0.01886233742 	-3.254855393e-07 	3.595685764e-05
0.5284553749 	0.01052607365 	0.00348523118 	1.55729857e-07 	0.0189268079 	-2.028967026e-07 	3.60797563e-05
0.5315944582 	0.01055703604 	0.003519143039 	6.380703891e-08 	0.01899274515 	-8.29378104e-08 	3.620545101e-05
0.5338265938 	0.01057923235 	0.003543190057 	1.475486485e-07 	0.01903975686 	-5.829922127e-07 	3.629506839e-05
0.5347983671 	0.01058889893 	0.003553652265 	2.73598912e-08 	0.01906021879 	-3.583908564e-08 	3.633407453e-05
0.5380331266 	0.01062147927 	0.003588888356 	1.157665404e-07 	0.01912863949 	-1.513764625e-07 	3.64645034e-05
0.5413001689 	0.01065463714 	0.003624598696 	2.022873147e-07 	0.01919795424 	-2.641233423e-07 	3.659663657e-05
0.5446007731 	0.01068853081 	0.003660684648 	2.869431086e-07 	0.01926863433 	-3.742404715e-07 	3.673137246e-05
0.5479665339 	0.01072335332 	0.003697445492 	3.706875853e-07 	0.01934077243 	-4.829961817e-07 	3.686888773e-05
0.5513659018 	0.01075890515 	0.003735073189 	4.521937026e-07 	0.01941370595 	-5.889071301e-07 	3.700791929e-05
0.5547993447 	0.01079507633 	0.003773195593 	5.314835592e-07 	0.01948755987 	-6.920563086e-07 	3.71487054e-05
0.5582741879 	0.01083204529 	0.003811852184 	6.08752515e-07 	0.01956266436 	-7.928280378e-07 	3.729187543e-05
0.5618076284 	0.01086992752 	0.003851310034 	6.843046185e-07 	0.01963894072 	-8.916498861e-07 	3.743727938e-05
0.5653765506 	0.01090851807 	0.003891657488 	7.572584505e-07 	0.01971583236 	-9.876588218e-07 	3.758385622e-05
0.5689814607 	0.0109478035 	0.003932537005 	8.276446426e-07 	0.01979368188 	-1.080915169e-06 	3.773225903e-05
0.5726399359 	0.01098799367 	0.003974150608 	8.844914352e-07 	0.01987264213 	-1.157118459e-06 	3.788277922e-05
0.5763462671 	0.0110290396 	0.004016740106 	8.110512182e-07 	0.01995229577 	-1.063324542e-06 	3.803462119e-05
0.5800900842 	0.01107078827 	0.004060115877 	7.399521365e-07 	0.02003251502 	-9.7264548e-07 	3.818754138e-05
0.5838760648 	0.01111336129 	0.004104174484 	6.710367868e-07 	0.02011361934 	-8.847623692e-07 	3.834214875e-05
0.5877219169 	0.01115690679 	0.004149187626 	6.040030059e-07 	0.0201955116 	-7.991293949e-07 	3.849825816e-05
0.5916068205 	0.01120123121 	0.004195246204 	5.395248343e-07 	0.02027764328 	-7.166973082e-07 	3.865482396e-05
0.5955313545 	0.0112463399 	0.004242002814 	4.775938781e-07 	0.02036040946 	-6.372896793e-07 	3.881259932e-05
0.5995159326 	0.01129246187 	0.004289718366 	4.177897189e-07 	0.02044382518 	-5.602426799e-07 	3.897161285e-05
0.6035443405 	0.01133945059 	0.004338595677 	3.606784241e-07 	0.02052728616 	-4.863440149e-07 	3.913071269e-05
0.6076140506 	0.01138724859 	0.004388272591 	3.063246041e-07 	0.02061109592 	-4.155589268e-07 	3.929047737e-05
0.6117400776 	0.01143607204 	0.00443893531 	2.544250026e-07 	0.02069528565 	-3.474202134e-07 	3.945096641e-05
0.6159146912 	0.01148583326 	0.004490805606 	2.053400079e-07 	0.02077932245 	-2.82410783e-07 	3.961116389e-05
0.6201323578 	0.0115364621 	0.004543577302 	1.591689593e-07 	0.02086341961 	-2.206083401e-07 	3.977147647e-05
0.624405768 	0.01158815149 	0.004597384522 	1.156694966e-07 	0.02094758966 	-1.616499787e-07 	3.993192797e-05
0.6287296122 	0.01164083477 	0.004652435814 	7.512537872e-08 	0.02103132773 	-1.059292862e-07 	4.009155602e-05
0.6330983433 	0.01169445194 	0.004708444216 	3.758602474e-08 	0.02111484249 	-5.350401771e-08 	4.025075836e-05
0.6375243826 	0.0117491884 	0.004765554397 	2.840032066e-09 	0.02119807633 	-4.083812441e-09 	4.040942519e-05
0.6379202885 	0.01175412125 	0.004770717082 	9.335423542e-08 	0.02120537069 	-2.521927674e-07 	4.042333026e-05
0.6420004271 	0.01180496228 	0.004823908975 	2.843738135e-08 	0.02128054019 	-4.16890588e-08 	4.056662422e-05
0.6465232803 	0.01186174797 	0.004883240855 	5.672520511e-08 	0.02136249085 	-8.409225145e-08 	4.072284496e-05
0.6511063536 	0.01191971916 	0.004943757598 	8.223836092e-08 	0.02144372815 	-1.233540969e-07 	4.087770584e-05
0.6557388531 	0.0119787837 	0.005005482133 	1.047587017e-07 	0.02152391691 	-1.590941386e-07 	4.10305679e-05
0.660422338 	0.01203897469 	0.005068214541 	1.244614953e-07 	0.02160325065 	-1.914868396e-07 	4.118180004e-05
0.665165319 	0.01210022604 	0.005132008227 	1.413974152e-07 	0.02168116389 	-2.204965551e-07 	4.133032435e-05
0.6699055951 	0.01216189419 	0.005196149141 	1.553848646e-07 	0.02175697713 	-2.457028331e-07 	4.147484544e-05
0.6745962236 	0.01222353633 	0.005260023656 	1.666087621e-07 	0.02183016691 	-2.67219109e-07 	4.161436551e-05
0.6792376453 	0.01228498632 	0.005323597429 	1.751946672e-07 	0.0219002817 	-2.850683914e-07 	4.174802378e-05
0.683825733 	0.01234616751 	0.005386653676 	1.814229439e-07 	0.02196758224 	-2.995255227e-07 	4.187631733e-05
0.6883675362 	0.01240719988 	0.005449277881 	1.855877151e-07 	0.02203204871 	-3.109155039e-07 	4.199920834e-05
0.6928591181 	0.01246799949 	0.005511498034 	1.877788362e-07 	0.02209351891 	-3.192460661e-07 	4.211638762e-05
0.6972995107 	0.01252852802 	0.005573110906 	1.882898704e-07 	0.02215231805 	-3.248494193e-07 	4.222847512e-05
0.7016955919 	0.01258890676 	0.005634249183 	1.873177953e-07 	0.02220835881 	-3.279354934e-07 	4.233530438e-05
0.7060419018 	0.01264903265 	0.005694872046 	1.84961429e-07 	0.02226159933 	-3.285569676e-07 	4.243679562e-05
0.7103394253 	0.01270890992 	0.00575484368 	1.814754877e-07 	0.02231231669 	-3.270335262e-07 	4.2533477e-05
0.7145929543 	0.01276863997 	0.005814300121 	1.769799428e-07 	0.02236039754 	-3.234892265e-07 	4.262513247e-05
0.7187984672 	0.01282812441 	0.005873173548 	1.715802372e-07 	0.02240588802 	-3.180218274e-07 	4.271184996e-05
0.7229570291 	0.0128873971 	0.005931382224 	1.654751003e-07 	0.02244901745 	-3.109100163e-07 	4.279406664e-05
0.7270723394 	0.01294655424 	0.005989051071 	1.587448337e-07 	0.02248968588 	-3.02247279e-07 	4.287159197e-05
0.7311414373 	0.01300550891 	0.00604612693 	1.514737903e-07 	0.02252794833 	-2.921328383e-07 	4.294453084e-05
0.7351650003 	0.01306429385 	0.006102539272 	1.438144658e-07 	0.02256403343 	-2.808083003e-07 	4.301331907e-05
0.7391464853 	0.01312302586 	0.006158406771 	1.358294312e-07 	0.02259787167 	-2.683722084e-07 	4.307782416e-05
0.7430834556 	0.01318163734 	0.006213716662 	1.275654612e-07 	0.02262947299 	-2.548931907e-07 	4.313806505e-05
0.7469765096 	0.01324013353 	0.006268383438 	1.191393121e-07 	0.02265909098 	-2.405813691e-07 	4.319452517e-05
0.7508280447 	0.01329865743 	0.006322515495 	1.106059092e-07 	0.02268669559 	-2.255573845e-07 	4.324714724e-05
0.7546370775 	0.01335717571 	0.006376148355 	1.019768288e-07 	0.02271224147 	-2.098530438e-07 	4.329584478e-05
0.7584037601 	0.01341565632 	0.006429184848 	9.333662106e-08 	0.02273599309 	-1.936467554e-07 	4.334112197e-05
0.7621294977 	0.013474249 	0.006481708205 	8.473695845e-08 	0.02275797551 	-1.770809879e-07 	4.338302658e-05
0.7658146819 	0.01353297387 	0.006533790087 	7.61687044e-08 	0.02277811969 	-1.601718324e-07 	4.342142697e-05
0.7694590036 	0.0135917745 	0.006585356408 	6.768010664e-08 	0.0227966293 	-1.43052699e-07 	4.345671143e-05
0.773063084 	0.01365075649 	0.006636434483 	5.93151824e-08 	0.02281362047 	-1.258681998e-07 	4.348910133e-05
0.7766284048 	0.01371001313 	0.006687113039 	5.106978302e-08 	0.0228290511 	-1.086659299e-07 	4.351851639e-05
0.7801542793 	0.01376950572 	0.00673738531 	4.294864934e-08 	0.0228429862 	-9.151228486e-08 	4.354508057e-05
0.7836411951 	0.01382924678 	0.006787207534 	3.49831022e-08 	0.0228556382 	-7.453513846e-08 	4.356919881e-05
0.7870900882 	0.01388937258 	0.0068366571 	2.7186459e-08 	0.02286702381 	-5.783363453e-08 	4.359090295e-05
0.7905013293 	0.0139499125 	0.006885787484 	1.95347185e-08 	0.0228771222 	-4.14264592e-08 	4.361015328e-05
0.7938749387 	0.01401082362 	0.00693455632 	1.20387956e-08 	0.02288609743 	-2.540744086e-08 	4.362726256e-05
0.7972113697 	0.01407217728 	0.006982971354 	4.710424935e-09 	0.02289408801 	-9.875885668e-09 	4.364249484e-05
0.7993670608 	0.01411261573 	0.007014413295 	2.924214626e-07 	0.02289865851 	-1.328761878e-06 	4.365120748e-05
0.8005115188 	0.01413408596 	0.007031107652 	2.416925956e-09 	0.02290108201 	-5.090503256e-09 	4.365582734e-05
0.8037753446 	0.01419655097 	0.007078988882 	9.322670158e-09 	0.02290710461 	-1.944395846e-08 	4.366730809e-05
0.8070032442 	0.01425954281 	0.007126576539 	1.607620416e-08 	0.02291233215 	-3.313350505e-08 	4.367727324e-05
0.8101956416 	0.01432314465 	0.007173895338 	2.267623431e-08 	0.02291686184 	-4.608470044e-08 	4.368590808e-05
0.8133533493 	0.01438744156 	0.007221005882 	2.913749752e-08 	0.02292068403 	-5.826014177e-08 	4.369319424e-05
0.8164763566 	0.01445241706 	0.007267911878 	3.548074375e-08 	0.0229238596 	-6.963597103e-08 	4.369924776e-05
0.8195650428 	0.01451804566 	0.0073145822 	4.17094281e-08 	0.02292654544 	-8.015614102e-08 	4.37043677e-05
0.8226198062 	0.01458438718 	0.007361032033 	4.782755828e-08 	0.02292883616 	-8.977405168e-08 	4.370873446e-05
0.8256412934 	0.01465150689 	0.007407306345 	5.38511348e-08 	0.02293073338 	-9.847245329e-08 	4.371235109e-05
0.8286296259 	0.01471938294 	0.007453404527 	5.980499065e-08 	0.02293229822 	-1.062540142e-07 	4.371533412e-05
0.8315851548 	0.01478797966 	0.007499299543 	6.569838477e-08 	0.02293366149 	-1.130990659e-07 	4.371793289e-05
0.8345082558 	0.01485732906 	0.0075449949 	7.153444729e-08 	0.02293491609 	-1.189890244e-07 	4.372032449e-05
0.8373994246 	0.01492748855 	0.007590525315 	7.730923998e-08 	0.02293606698 	-1.239020047e-07 	4.372251842e-05
0.840258936 	0.01499843476 	0.007635892483 	8.301814407e-08 	0.02293715237 	-1.278162368e-07 	4.372458747e-05
0.843087083 	0.01507008672 	0.007681052285 	8.862891282e-08 	0.0229383124 	-1.306649494e-07 	4.372679882e-05
0.8458842206 	0.01514239243 	0.0077259695 	9.409766e-08 	0.02293968573 	-1.323683039e-07 	4.372941676e-05
0.8486507275 	0.01521532626 	0.007770631112 	9.938583784e-08 	0.02294135513 	-1.328677157e-07 	4.37325991e-05
0.8513870014 	0.01528884008 	0.0078150306 	1.045010219e-07 	0.02294335674 	-1.322006618e-07 	4.373641472e-05
0.8540932784 	0.0153628738 	0.007859150155 	1.095085258e-07 	0.02294574936 	-1.305443147e-07 	4.374097572e-05
0.8567698952 	0.01543747858 	0.007903027121 	1.145413201e-07 	0.02294847306 	-1.282519876e-07 	4.374616785e-05
0.859417184 	0.01551285442 	0.007946768836 	1.197867527e-07 	0.02295131176 	-1.258296998e-07 	4.37515792e-05
0.8620355136 	0.01558933204 	0.007990545506 	1.254283226e-07 	0.02295388248 	-1.238108041e-07 	4.375647971e-05
0.8646251844 	0.01566721744 	0.008034511294 	1.315606051e-07 	0.02295579518 	-1.22547375e-07 	4.376012584e-05
0.8671864803 	0.01574665317 	0.008078715897 	1.380700974e-07 	0.02295688806 	-1.219466863e-07 	4.376220918e-05
0.869719717 	0.01582750405 	0.008123066548 	1.445757142e-07 	0.02295731337 	-1.21295218e-07 	4.376301993e-05
0.8722252062 	0.01590920393 	0.008167269292 	1.504579963e-07 	0.02295769295 	-1.192770909e-07 	4.376374353e-05
0.8747032823 	0.01599074876 	0.008210852346 	1.549914426e-07 	0.02295907509 	-1.142468776e-07 	4.376637827e-05
0.8771542268 	0.01607082606 	0.008253248127 	1.57552396e-07 	0.0229627506 	-1.047132779e-07 	4.377338482e-05
0.8795783229 	0.01614821677 	0.008293966682 	1.578057181e-07 	0.02296986639 	-8.986871375e-08 	4.378694948e-05
0.8819758673 	0.01622234153 	0.008332834858 	1.558486575e-07 	0.02298080661 	-7.00191765e-08 	4.380780459e-05
0.8843471534 	0.0162936816 	0.008370148938 	1.522890438e-07 	0.02299478221 	-4.684919538e-08 	4.383444596e-05
0.8866924807 	0.016363977 	0.008406723832 	1.482849654e-07 	0.02300966618 	-2.355512625e-08 	4.386281894e-05
0.8890121322 	0.01643597894 	0.008443755378 	1.455623618e-07 	0.02302229418 	-4.883070822e-09 	4.388689142e-05
0.8913063745 	0.01651282918 	0.008482514552 	1.46302888e-07 	0.02302922797 	3.091265456e-09 	4.390010915e-05
0.8935754874 	0.0165971848 	0.008523966796 	1.52730779e-07 	0.02302768579 	-6.082755692e-09 	4.389716933e-05
0.8958197471 	0.01669021735 	0.008568376396 	1.662260038e-07 	0.0230165535 	-3.702215195e-08 	4.387594809e-05
0.8980394268 	0.01679082856 	0.008615051677 	1.860685803e-07 	0.02299715069 	-8.900742828e-08 	4.383896093e-05
0.9002348058 	0.01689529202 	0.008662333165 	2.083367333e-07 	0.02297346241 	-1.522163843e-07 	4.379380449e-05