0 	0.03357839856 	-1.371701088e-15 	-2.521402194e-21 	1.319439095e-16 	-5.760795499e-18 	2.515217634e-19
0.0003149815135 	0.03357828103 	1.992938705e-05 	-6.699876675e-09 	0.03850843913 	-3.754523704e-07 	7.340778785e-05
0.0006299624731 	0.03357768278 	-0.0001122986706 	9.214348269e-10 	0.03869176621 	-3.262385487e-07 	7.375726023e-05
0.000944942878 	0.03357663126 	-0.0001670320289 	9.763692263e-10 	0.03871034196 	-2.627656059e-07 	7.379267076e-05
0.001259922728 	0.03357526233 	-0.0002252066882 	1.133382483e-09 	0.03874476588 	-1.998565133e-07 	7.385829231e-05
0.001574902021 	0.03357355723 	-0.0002820646731 	9.862524018e-10 	0.0387572218 	-1.356217761e-07 	7.388203677e-05
0.001889880759 	0.0335714991 	-0.0003387212277 	6.317127068e-10 	0.03877222174 	-7.152520862e-08 	7.391063081e-05
0.002204858939 	0.03356907003 	-0.0003952350021 	7.852276423e-11 	0.03878872961 	-7.585734952e-09 	7.394209941e-05
0.002239353681 	0.03356876161 	-0.0004014151588 	2.213586746e-10 	0.03879077633 	-2.641375108e-05 	7.394600102e-05
0.002519836561 	0.03356612066 	-0.000451669422 	6.955414501e-10 	0.03880742112 	-5.741544911e-08 	7.397773063e-05
0.002834813626 	0.0335627482 	-0.0005080451828 	1.653622829e-09 	0.03882814742 	-1.209772456e-07 	7.401724071e-05
0.003149790132 	0.03355894974 	-0.0005643714611 	2.804563174e-09 	0.03885099428 	-1.842108744e-07 	7.406079316e-05
0.00346476608 	0.03355470602 	-0.0006206510554 	4.147062632e-09 	0.03887597324 	-2.470572476e-07 	7.410841002e-05
0.003779741468 	0.03354999797 	-0.0006768840086 	5.680020165e-09 	0.03890307764 	-3.09463217e-07 	7.416007853e-05
0.004094716297 	0.03354480718 	-0.0007330688911 	7.402416961e-09 	0.03893228209 	-3.713802186e-07 	7.421575033e-05
0.004409690567 	0.03353911633 	-0.0007892035234 	9.313271952e-09 	0.03896355201 	-4.327639614e-07 	7.42753595e-05
0.004724664277 	0.03353290976 	-0.0008452853519 	1.141162807e-08 	0.03899684552 	-4.935741807e-07 	7.433882617e-05
0.005039637428 	0.03352617405 	-0.0009013116805 	1.369655464e-08 	0.03903211494 	-5.537745069e-07 	7.440605949e-05
0.005354610019 	0.03351889864 	-0.0009572798176 	1.616715736e-08 	0.03906930771 	-6.133323635e-07 	7.447695925e-05
0.00566958205 	0.03351107641 	-0.001013187181 	1.882259151e-08 	0.03910836692 	-6.722188701e-07 	7.455141696e-05
0.005984553521 	0.03350270433 	-0.001069031381 	2.166207707e-08 	0.03914923174 	-7.304087555e-07 	7.462931667e-05
0.006299524433 	0.03349378413 	-0.001124810286 	2.468491297e-08 	0.03919183769 	-7.878802416e-07 	7.471053545e-05
0.006614494785 	0.0334843229 	-0.001180522092 	2.789049042e-08 	0.03923611684 	-8.446149234e-07 	7.479494381e-05
0.006929464579 	0.03347433372 	-0.001236165376 	3.127830424e-08 	0.03928199799 	-9.005976362e-07 	7.488240603e-05
0.007244433813 	0.03346383625 	-0.001291739159 	3.484796144e-08 	0.03932940683 	-9.558163178e-07 	7.497278046e-05
0.007559402488 	0.03345285718 	-0.001347242951 	3.859918658e-08 	0.039378266 	-1.010261856e-06 	7.506591962e-05
0.007874370605 	0.03344143056 	-0.001402676799 	4.2531823e-08 	0.03942849508 	-1.063928014e-06 	7.51616702e-05
0.008189338164 	0.0334295977 	-0.001458041288 	4.664584658e-08 	0.03948001129 	-1.116811234e-06 	7.525987443e-05
0.008504305166 	0.03341740616 	-0.001513337085 	5.094121286e-08 	0.03953273576 	-1.168911613e-06 	7.536038191e-05
0.00881927161 	0.03340490725 	-0.001568567407 	5.541936645e-08 	0.03958660007 	-1.220228708e-06 	7.546306227e-05
0.009134237498 	0.0333921513 	-0.001623718825 	6.007214619e-08 	0.03964150613 	-1.2707671e-06 	7.556772847e-05
0.00944920283 	0.03337742211 	-0.001686350255 	6.506861706e-08 	0.03970505572 	-1.319321759e-06 	7.568887166e-05
0.009938585281 	0.03336019423 	-0.001764377836 	7.229427309e-08 	0.03978535104 	-1.396205941e-06 	7.584193684e-05
0.01043716429 	0.03334347476 	-0.001851005822 	8.021305064e-08 	0.0398753663 	-1.471737932e-06 	7.601353095e-05
0.01094511267 	0.03332905823 	-0.001939171891 	8.865267738e-08 	0.03996761284 	-1.546944777e-06 	7.61893785e-05
0.01146260646 	0.0333170703 	-0.002028937898 	9.764681445e-08 	0.0400620093 	-1.621829242e-06 	7.636932438e-05
0.01198982501 	0.03330765146 	-0.002120336544 	1.072150716e-07 	0.04015851352 	-1.69639748e-06 	7.655328825e-05
0.01252695104 	0.03330094495 	-0.002213406146 	1.173793443e-07 	0.04025709087 	-1.770674629e-06 	7.674120408e-05
0.01307417072 	0.03329709316 	-0.002308186643 	1.281620453e-07 	0.04035770646 	-1.844693135e-06 	7.693300536e-05
0.0136316737 	0.03329623613 	-0.002404719679 	1.395863366e-07 	0.04046033288 	-1.918495536e-06 	7.712863983e-05
0.0141996532 	0.03329851121 	-0.00250304838 	1.516761129e-07 	0.04056495101 	-1.992134765e-06 	7.732807107e-05
0.01477830606 	0.03330405311 	-0.002603217298 	1.644560331e-07 	0.04067154987 	-2.065674538e-06 	7.753127813e-05
0.01536783283 	0.03331299417 	-0.002705272386 	1.779515431e-07 	0.04078012634 	-2.139189525e-06 	7.773825506e-05
0.01596843782 	0.03332546458 	-0.002809260977 	1.92188899e-07 	0.04089068497 	-2.212765534e-06 	7.794901052e-05
0.01658032919 	0.03334159263 	-0.002915231771 	2.071951886e-07 	0.0410032378 	-2.286499638e-06 	7.81635675e-05
0.017203719 	0.03336150489 	-0.003023234741 	2.229982763e-07 	0.04111780507 	-2.36050036e-06 	7.838196456e-05
0.01783882331 	0.03338532641 	-0.003133322134 	2.39627152e-07 	0.04123441229 	-2.434887055e-06 	7.860425034e-05
0.01848586222 	0.03341318072 	-0.003245540065 	2.571095247e-07 	0.04135308921 	-2.509786589e-06 	7.883048153e-05
0.01914505998 	0.03344518999 	-0.003360003026 	2.754858248e-07 	0.04147388648 	-2.585342361e-06 	7.906075471e-05
0.01981664504 	0.0334815134 	-0.00347690305 	2.948450083e-07 	0.04159697992 	-2.661690053e-06 	7.9295405e-05
0.02050358684 	0.0335223546 	-0.003596255577 	3.151614437e-07 	0.04172262586 	-2.73920407e-06 	7.953492109e-05
0.02120541643 	0.0335678497 	-0.003718239447 	3.364999482e-07 	0.04185086463 	-2.818173349e-06 	7.977937983e-05
0.02192043461 	0.03361805705 	-0.003842863418 	3.589679902e-07 	0.04198156997 	-2.898727348e-06 	8.002854054e-05
0.02264888918 	0.03367306134 	-0.003969951877 	3.825351843e-07 	0.04211471922 	-2.981108207e-06 	8.028236001e-05
0.02339103259 	0.03373297667 	-0.004099607544 	4.072579429e-07 	0.04225039477 	-3.065557199e-06 	8.054099532e-05
0.02414712205 	0.03379791596 	-0.004231890105 	4.331838465e-07 	0.04238869291 	-3.152334553e-06 	8.080463001e-05
0.02491741957 	0.03386799088 	-0.004366865737 	4.603650375e-07 	0.04252970814 	-3.241707479e-06 	8.107344424e-05
0.02570219212 	0.03394331184 	-0.004504601514 	4.888562817e-07 	0.0426735447 	-3.333955719e-06 	8.134763669e-05
0.02650171165 	0.03402398795 	-0.004645165943 	5.141083483e-07 	0.04282031236 	-3.398910243e-06 	8.162741665e-05
0.02731625524 	0.03411012712 	-0.00478862896 	5.10859371e-07 	0.04297012714 	-3.277138111e-06 	8.191300525e-05
0.02814610517 	0.03420183611 	-0.004935061931 	5.066715885e-07 	0.04312311081 	-3.156686777e-06 	8.220463465e-05
0.02899154901 	0.03429922054 	-0.005084537668 	5.015027882e-07 	0.04327939067 	-3.037338336e-06 	8.25025475e-05
0.02985287976 	0.03440238504 	-0.005237130443 	4.953084318e-07 	0.04343909924 	-2.918854443e-06 	8.280699642e-05
0.03073039588 	0.03451143327 	-0.005392916005 	4.880414404e-07 	0.04360237387 	-2.800976881e-06 	8.311824324e-05
0.03162440149 	0.03462646804 	-0.005551971604 	4.79651956e-07 	0.04376935637 	-2.683428217e-06 	8.343655831e-05
0.03253520637 	0.03474759134 	-0.00571437601 	4.700870786e-07 	0.04394019258 	-2.565912547e-06 	8.376221961e-05
0.03346312615 	0.03487490442 	-0.00588020954 	4.592905794e-07 	0.04411503191 	-2.448116321e-06 	8.409551196e-05
0.03440848238 	0.03500850786 	-0.006049554079 	4.472025863e-07 	0.0442940268 	-2.329709223e-06 	8.443672597e-05
0.03537160265 	0.03514850157 	-0.006222493118 	4.337592462e-07 	0.04447733255 	-2.210345169e-06 	8.478615768e-05
0.0363528207 	0.03529498482 	-0.006399112057 	4.188923648e-07 	0.04466510492 	-2.089663035e-06 	8.514410401e-05
0.03735247655 	0.03544805621 	-0.006579495888 	4.025288692e-07 	0.04485750136 	-1.967288876e-06 	8.551086508e-05
0.0383709166 	0.03560781363 	-0.006763749944 	3.84590444e-07 	0.04505469015 	-1.84283561e-06 	8.588676173e-05
0.03940849374 	0.03577442619 	-0.00695202292 	3.649923348e-07 	0.04525690746 	-1.715910262e-06 	8.627224413e-05
0.0404673353 	0.03594827543 	-0.007144632743 	3.436101844e-07 	0.04546463404 	-1.585818656e-06 	8.666822871e-05
0.04155102347 	0.03612961858 	-0.0073420123 	3.202424945e-07 	0.04567822382 	-1.451628114e-06 	8.707539022e-05
0.04265507532 	0.03631829515 	-0.007543940524 	2.949242479e-07 	0.04589752029 	-1.313767885e-06 	8.749343024e-05
0.04377987343 	0.03651419832 	-0.007750146097 	2.675277197e-07 	0.04612241788 	-1.171780942e-06 	8.792214754e-05
0.0449258076 	0.03671741901 	-0.007960815953 	2.37937343e-07 	0.04635307405 	-1.025226736e-06 	8.836184232e-05
0.04609327493 	0.03692804581 	-0.008176043681 	2.060231553e-07 	0.0465896395 	-8.736613022e-07 	8.881280181e-05
0.04728267999 	0.03714616451 	-0.008395934708 	1.716462658e-07 	0.04683224529 	-7.16637927e-07 	8.927527588e-05
0.04849443492 	0.03737185752 	-0.008620595532 	1.346574009e-07 	0.0470810251 	-5.537092641e-07 	8.974951934e-05
0.04972895965 	0.03760520317 	-0.008850134635 	9.489640427e-08 	0.04733610247 	-3.844279359e-07 	9.023576769e-05
0.05098668197 	0.03784627504 	-0.009084662649 	5.219157843e-08 	0.04759759263 	-2.083479395e-07 	9.073424062e-05
0.05226803769 	0.03809514107 	-0.009324292259 	6.359037278e-09 	0.04786560103 	-2.502584387e-08 	9.124513912e-05
0.0524408778 	0.03812912471 	-0.009356706457 	-6.263041725e-08 	0.04790195431 	-5.348636315e-06 	9.131443858e-05
0.05357347084 	0.03835171647 	-0.009569134969 	4.26662922e-08 	0.04814022905 	-1.663234044e-07 	9.176865646e-05
0.05490343377 	0.03861617928 	-0.009819312248 	9.526033982e-08 	0.04842155923 	-3.660706498e-07 	9.230494996e-05
0.05625838734 	0.03888859723 	-0.01007494333 	1.516924406e-07 	0.04870965635 	-5.746781278e-07 	9.285414314e-05
0.05763880103 	0.03916900568 	-0.01033615605 	2.122083201e-07 	0.04900458229 	-7.925616639e-07 	9.341635396e-05
0.0590451532 	0.03945749619 	-0.01060312878 	2.770655732e-07 	0.04930648897 	-1.020129982e-06 	9.3991872e-05
0.06047923248 	0.03975451912 	-0.01087629526 	3.466241272e-07 	0.04961585812 	-1.258035679e-06 	9.45816156e-05
0.06194729128 	0.04006040195 	-0.01115609446 	4.213786085e-07 	0.04993286236 	-1.50757826e-06 	9.518591378e-05
0.06344293635 	0.04041550745 	-0.01148007086 	5.028526817e-07 	0.05029868505 	-1.771511046e-06 	9.588327349e-05
0.06573896916 	0.04086267286 	-0.0118868182 	6.297774132e-07 	0.05075634581 	-2.17930659e-06 	9.67557021e-05
0.06806060918 	0.04136058937 	-0.01233693924 	7.683914362e-07 	0.0512618726 	-2.609043662e-06 	9.771937667e-05
0.07040814198 	0.04186861865 	-0.01279353855 	9.176558493e-07 	0.05177309904 	-3.057065624e-06 	9.869391635e-05
0.07278185635 	0.04238603103 	-0.01325696273 	1.078179349e-06 	0.05228924677 	-3.523109001e-06 	9.967783739e-05
0.07518204426 	0.04291206418 	-0.0137271515 	1.250428722e-06 	0.05280948753 	-4.006757465e-06 	0.0001006695609
0.07760900095 	0.04344591738 	-0.01420408936 	1.434844811e-06 	0.05333287783 	-4.507479167e-06 	0.0001016672883
0.08006302497 	0.0439873861 	-0.01468815533 	1.631966112e-06 	0.05385901037 	-5.024759049e-06 	0.0001026702431
0.082556096 	0.04453633123 	-0.01518017368 	1.628918665e-06 	0.05438754485 	-4.913845851e-06 	0.0001036777767
0.08507824313 	0.04509120889 	-0.01567958987 	1.54032792e-06 	0.05491673306 	-4.551111141e-06 	0.0001046865565
0.0876285222 	0.045650316 	-0.01618547377 	1.44097304e-06 	0.05544460721 	-4.168854175e-06 	0.0001056928314
0.09020724701 	0.04621251437 	-0.01669777889 	1.330400533e-06 	0.0559697777 	-3.767495049e-06 	0.0001066939523
0.09281473484 	0.04677666992 	-0.01721640974 	1.208151145e-06 	0.0564908555 	-3.347621336e-06 	0.0001076872714
0.09545130652 	0.04734158232 	-0.01774126892 	1.073779233e-06 	0.05700633559 	-2.909963246e-06 	0.0001086699197
0.09811728644 	0.04790609621 	-0.01827231465 	9.268425086e-07 	0.05751470879 	-2.455421871e-06 	0.0001096390203
0.1008152168 	0.04846952871 	-0.01881004808 	7.667844301e-07 	0.05801485542 	-1.984633136e-06 	0.0001105924388
0.103553885 	0.04903087977 	-0.01935497256 	5.925580389e-07 	0.05850536257 	-1.497328081e-06 	0.0001115274818
0.1063231033 	0.04958790201 	-0.01990622469 	4.045820275e-07 	0.05898364342 	-9.974046852e-07 	0.000112439218
0.1091232126 	0.05013845562 	-0.02046303787 	2.024832403e-07 	0.05944717732 	-4.866687766e-07 	0.0001133228425
0.1117772003 	0.05064684935 	-0.02099014304 	-7.016220038e-08 	0.05986587173 	-2.953538352e-06 	0.0001141209904
0.1119545574 	0.05068082117 	-0.02102538068 	1.410260731e-08 	0.05989386484 	-3.310768369e-08 	0.000114174353
0.1148174863 	0.05121299709 	-0.02159320393 	2.473081581e-07 	0.06032161812 	-5.648671114e-07 	0.0001149897697
0.1177123515 	0.05173331548 	-0.02216644926 	4.956009978e-07 	0.06072796478 	-1.100371365e-06 	0.0001157643793
0.1206406417 	0.0522402499 	-0.02274573669 	7.586948386e-07 	0.06111081885 	-1.636292224e-06 	0.0001164942056
0.1236130938 	0.05273198723 	-0.02333195732 	1.036013281e-06 	0.06146787471 	-2.169976838e-06 	0.0001171748533
0.1266187072 	0.05320550475 	-0.02392479375 	1.323404075e-06 	0.06179590926 	-2.693939747e-06 	0.0001178001783
0.129657852 	0.05365778507 	-0.02452439956 	1.616340537e-06 	0.06209162527 	-3.202675285e-06 	0.0001183638952
0.1327309021 	0.05408610236 	-0.02513242322 	1.910503055e-06 	0.06235181339 	-3.691284812e-06 	0.0001188598861
0.1358382359 	0.05448758894 	-0.02575157406 	2.206524312e-06 	0.06257261615 	-4.157273028e-06 	0.0001192807975
0.1389802358 	0.05485948968 	-0.02638204338 	2.504235434e-06 	0.06274388975 	-4.582343652e-06 	0.0001196072926
0.142164066 	0.05519865772 	-0.02701319885 	2.797911133e-06 	0.06287963029 	-5.054103873e-06 	0.0001198660518
0.1453889171 	0.05550088201 	-0.02760948379 	3.040038636e-06 	0.06299329241 	-5.569476224e-06 	0.0001200827234
0.1486497488 	0.05576085729 	-0.02812211063 	2.780479009e-06 	0.06303162303 	-5.164382568e-06 	0.0001201557922
0.1519469623 	0.05597270292 	-0.02853953608 	2.36069555e-06 	0.06298713357 	-4.466200124e-06 	0.0001200709829
0.1552809637 	0.05613353267 	-0.02889086846 	2.045547283e-06 	0.06290900626 	-3.919085821e-06 	0.0001199220506
0.1586521634 	0.05624191644 	-0.02920128815 	1.790280749e-06 	0.06277983615 	-3.331734301e-06 	0.0001196758165
0.1620666826 	0.05629459084 	-0.02947898441 	1.538724273e-06 	0.06257402783 	-2.73260814e-06 	0.0001192834886
0.1655254185 	0.05628754815 	-0.02972236807 	1.280220014e-06 	0.06229499544 	-2.184779883e-06 	0.0001187515753
0.1690227477 	0.05621661215 	-0.02992658314 	1.02029934e-06 	0.06194111415 	-1.674116417e-06 	0.0001180769792
0.1725591007 	0.05607789933 	-0.03008800081 	7.666856146e-07 	0.06150938922 	-1.206716644e-06 	0.0001172539915
0.176134913 	0.0558676168 	-0.03020323536 	5.250724611e-07 	0.06099676857 	-7.899607572e-07 	0.0001162767941
0.1797506249 	0.05558189026 	-0.03026876064 	3.014697769e-07 	0.06040024768 	-4.313376037e-07 	0.0001151396595
0.1834159144 	0.05521675023 	-0.0302810003 	1.020191557e-07 	0.05971680674 	-1.377391086e-07 	0.0001138368311
0.1855775696 	0.05495581511 	-0.03025495942 	1.179692262e-05 	0.05926696939 	-3.542062661e-05 	0.0001129793161
0.1871241627 	0.0547688099 	-0.03023614019 	6.47648067e-08 	0.05894474869 	-8.201503693e-08 	0.0001123650738
0.1908737915 	0.0542353621 	-0.03013044695 	1.901773297e-07 	0.05808330891 	-2.198717122e-07 	0.0001107229302
0.1946652624 	0.05361418179 	-0.02996054376 	2.676218091e-07 	0.05713208123 	-2.706715417e-07 	0.0001089096259
0.1984990423 	0.05290326304 	-0.02972301974 	2.897666457e-07 	0.05609108348 	-2.300687313e-07 	0.0001069251948
0.2023809986 	0.0521009526 	-0.02941466007 	2.496887544e-07 	0.05496074448 	-9.524446066e-08 	0.0001047704545
0.2063115746 	0.05120701208 	-0.02903278252 	1.410367897e-07 	0.0537433848 	1.345432429e-07 	0.0001024498286
0.2102860148 	0.05022311791 	-0.02857542168 	-4.141140863e-08 	0.05244367827 	4.567156959e-07 	9.997222675e-05
0.2143048088 	0.04915214797 	-0.02804133436 	-3.009010619e-07 	0.05106751939 	8.652438425e-07 	9.734888543e-05
0.2183684513 	0.04799804078 	-0.02743011778 	-6.375344446e-07 	0.04962178087 	1.350365707e-06 	9.4592906e-05
0.222482493 	0.0467661535 	-0.02674258244 	-1.048868778e-06 	0.04811463412 	1.898387466e-06 	9.171986541e-05
0.2266474496 	0.04546468408 	-0.02598136564 	-1.528656366e-06 	0.04655728079 	2.490105705e-06 	8.875111711e-05
0.2308588887 	0.04410509406 	-0.02515128003 	-2.065198766e-06 	0.04496418202 	3.100647538e-06 	8.571422807e-05
0.2351173289 	0.04270092029 	-0.02425906194 	-2.269265628e-06 	0.04335139995 	3.179277308e-06 	8.263981721e-05
0.2394232946 	0.04126704307 	-0.02331308812 	-2.342753227e-06 	0.04173574269 	3.083661509e-06 	7.955992542e-05
0.2437845959 	0.03982008845 	-0.02232395897 	-2.321831485e-06 	0.04013510833 	2.881701074e-06 	7.650867145e-05
0.2481966718 	0.03837977494 	-0.02130548686 	-2.210922447e-06 	0.03856988678 	2.591691823e-06 	7.352492415e-05
0.2526579903 	0.03696701749 	-0.02027356108 	-2.019501073e-06 	0.03706068796 	2.236583649e-06 	7.064797174e-05
0.2571691008 	0.03560183419 	-0.01924489074 	-1.762419626e-06 	0.03562607285 	1.842896637e-06 	6.791319661e-05
0.2617331246 	0.03430238986 	-0.01823620719 	-1.459085937e-06 	0.03428178914 	1.438224496e-06 	6.535061823e-05
0.26635421 	0.0330848054 	-0.01726405602 	-1.131797963e-06 	0.03304067106 	1.050453274e-06 	6.298470221e-05
0.2710268727 	0.03196268077 	-0.01634442667 	-8.06739613e-07 	0.03191119514 	7.109193053e-07 	6.083160719e-05
0.275751688 	0.03094451694 	-0.01548738274 	-5.131510167e-07 	0.03089101441 	4.218186563e-07 	5.888685918e-05
0.2805295301 	0.03003243481 	-0.0146930874 	-2.691603959e-07 	0.02999624062 	1.905957507e-07 	5.718117165e-05
0.2853683997 	0.02921964856 	-0.01394816804 	-5.930959615e-08 	0.02923458004 	3.587029958e-08 	5.572923489e-05
0.2868773396 	0.02899800897 	-0.01372916746 	1.272230037e-05 	0.02902584737 	-1.582666326e-05 	5.533133241e-05
0.2902612789 	0.02850159042 	-0.01323844615 	-1.152531455e-07 	0.02855819837 	6.071551037e-08 	5.443986343e-05
0.2952087702 	0.02787811076 	-0.01258843857 	-2.157278821e-07 	0.02795926535 	8.612948016e-08 	5.329813063e-05
0.3002114829 	0.0273426514 	-0.01204311077 	-2.260838947e-07 	0.02745786526 	7.052962644e-08 	5.23423227e-05
0.3052771644 	0.02688393555 	-0.01160893791 	-1.799784017e-07 	0.02702265669 	4.739944571e-08 	5.151269421e-05
0.3103995606 	0.02648873143 	-0.01126151045 	-1.06529057e-07 	0.0266311803 	-2.594784752e-10 	5.07664314e-05
0.3155791317 	0.02614431496 	-0.01097556323 	-2.153225495e-08 	0.02628115887 	-5.604421843e-08 	5.009919327e-05
0.3208171581 	0.02584003277 	-0.01073318851 	7.016111292e-08 	0.02596468341 	-1.142324948e-07 	4.949590309e-05
0.3261196355 	0.02556738599 	-0.01052298916 	1.65145448e-07 	0.02567474308 	-1.690473201e-07 	4.894319624e-05
0.3314812991 	0.02531987208 	-0.01033711155 	2.607181817e-07 	0.02540560174 	-2.170497843e-07 	4.843013804e-05
0.3369028091 	0.02509233529 	-0.01016970917 	3.551026665e-07 	0.02515269066 	-2.563610868e-07 	4.794801923e-05
0.3423871157 	0.02488070176 	-0.01001628993 	4.47415878e-07 	0.02491244414 	-2.859783262e-07 	4.749004259e-05
0.3479363296 	0.02468194305 	-0.009873379169 	5.373829716e-07 	0.02468226354 	-3.054977236e-07 	4.705125439e-05
0.353547484 	0.02449390279 	-0.009738303358 	6.253505594e-07 	0.02446034094 	-3.149714487e-07 	4.662820823e-05
0.3592212697 	0.02431498885 	-0.009608980774 	7.121937726e-07 	0.02424532481 	-3.147371571e-07 	4.621832773e-05
0.3649627704 	0.02414407038 	-0.009483763532 	7.038475557e-07 	0.024036229 	-2.688695135e-07 	4.581973299e-05
0.3707693221 	0.02398049585 	-0.009361344597 	6.855575646e-07 	0.02383247665 	-2.218494848e-07 	4.543132439e-05
0.3766406865 	0.02382390612 	-0.009240605073 	6.633959797e-07 	0.0236337045 	-1.771440518e-07 	4.505240943e-05
0.3825794668 	0.02367413083 	-0.009120530925 	6.390360948e-07 	0.02343958968 	-1.360457019e-07 	4.468237262e-05
0.3885874109 	0.02353121644 	-0.009000079779 	6.139392769e-07 	0.02324992682 	-9.960502733e-08 	4.43208225e-05
0.3946624158 	0.02339541479 	-0.008878068904 	5.892338483e-07 	0.02306457649 	-6.862151279e-08 	4.396749326e-05
0.4008056514 	0.02326709919 	-0.008753047998 	5.657038848e-07 	0.02288325242 	-4.357708171e-08 	4.362183918e-05
0.4070212332 	0.02314679786 	-0.008623119236 	5.437355123e-07 	0.02270553273 	-2.462564434e-08 	4.328305606e-05
0.4133061932 	0.02303526846 	-0.008485834994 	5.229182638e-07 	0.02253091395 	-1.151837537e-08 	4.295018413e-05
0.4196613049 	0.0229334236 	-0.008338095028 	5.015929221e-07 	0.02235864019 	-3.499523265e-09 	4.262178247e-05
0.4260907495 	0.02284232031 	-0.008176155176 	4.769603262e-07 	0.02218772047 	6.337163922e-10 	4.229596198e-05
0.4325922399 	0.02276315848 	-0.007995836513 	4.453709727e-07 	0.02201715383 	2.323015844e-09 	4.197081455e-05
0.4391662984 	0.02269714084 	-0.007792831943 	4.026315271e-07 	0.02184592687 	2.9636056e-09 	4.164440837e-05
0.4458164753 	0.02264537342 	-0.007563172615 	3.45273992e-07 	0.02167312169 	3.538467911e-09 	4.131499367e-05
0.4525413397 	0.02260880658 	-0.007303781126 	2.716188608e-07 	0.02149826193 	4.288817495e-09 	4.098166237e-05
0.4593412644 	0.02258817273 	-0.007012820351 	1.818094462e-07 	0.02132133682 	4.601117103e-09 	4.064439395e-05
0.4662195511 	0.02258401056 	-0.006689816188 	7.828659534e-08 	0.02114287288 	3.104762048e-09 	4.030419207e-05
0.4711052801 	0.02259292526 	-0.006440939689 	5.845891645e-06 	0.02101743157 	-6.322270521e-06 	4.006506607e-05
0.4731749089 	0.02259670156 	-0.006335564386 	3.536206117e-08 	0.02096426393 	2.62380687e-09 	3.996371378e-05
0.4802079543 	0.02262644508 	-0.005951608892 	1.561211275e-07 	0.02078769656 	1.526598939e-08 	3.962712729e-05
0.4873218078 	0.02267318549 	-0.005539798129 	2.774538903e-07 	0.02061606076 	3.536944068e-08 	3.929994175e-05
0.4945150619 	0.02273633162 	-0.005103555272 	3.943010009e-07 	0.020453101 	6.427928312e-08 	3.898929515e-05
0.5017088022 	0.02281432951 	-0.004649846205 	5.016788002e-07 	0.02030313783 	1.022380361e-07 	3.870342367e-05
0.5088246559 	0.02290509467 	-0.004186244814 	5.956818563e-07 	0.02016936841 	1.483904623e-07 	3.844842198e-05
0.5158619961 	0.02300691683 	-0.003717161677 	6.752636389e-07 	0.02005315476 	2.016203055e-07 	3.822688646e-05
0.5228223256 	0.02311843797 	-0.003245057762 	7.404047176e-07 	0.01995492766 	2.606851985e-07 	3.80396383e-05
0.5297067628 	0.0232384583 	-0.002771753963 	7.911440991e-07 	0.01987490542 	3.240739269e-07 	3.788709367e-05
0.5365152378 	0.02336589659 	-0.002298654661 	8.281373721e-07 	0.01981321438 	3.903162445e-07 	3.77694934e-05
0.5432491873 	0.02349978824 	-0.001826720136 	8.521929543e-07 	0.01976968146 	4.579459995e-07 	3.768650755e-05
0.5499094439 	0.02363926487 	-0.001356700732 	8.637961461e-07 	0.01974406037 	5.255293958e-07 	3.763766664e-05
0.5564962101 	0.02378353791 	-0.0008892421063 	8.63721336e-07 	0.01973611238 	5.918348824e-07 	3.762251556e-05
0.5630107473 	0.02393191658 	-0.0004247106369 	8.528026738e-07 	0.01974531056 	6.555310553e-07 	3.764004986e-05
0.5694538871 	0.02408380086 	3.671804334e-05 	8.315294644e-07 	0.01977105618 	7.156046226e-07 	3.768912816e-05
0.5758259307 	0.02423864917 	0.0004949086509 	8.003248659e-07 	0.01981282998 	7.713085097e-07 	3.776876063e-05
0.5821279228 	0.02439597353 	0.0009498275915 	7.594510775e-07 	0.01986996381 	8.219153981e-07 	3.787767359e-05
0.5883608326 	0.02455532991 	0.001401461021 	7.089173454e-07 	0.01994176808 	8.668340849e-07 	3.801455248e-05
0.5945249646 	0.02471630386 	0.001849782578 	6.487519848e-07 	0.0200276062 	9.057235375e-07 	3.817818379e-05
0.6006211498 	0.02487851348 	0.002294909765 	5.788190654e-07 	0.0201267844 	9.385023323e-07 	3.836724501e-05
0.606650536 	0.02504159711 	0.002737013475 	4.986748236e-07 	0.02023863765 	9.65134799e-07 	3.858046841e-05
0.6126133893 	0.02520519433 	0.003176230211 	4.077273169e-07 	0.0203625513 	9.858561509e-07 	3.881668226e-05
0.6185104433 	0.025368951 	0.003612780964 	3.051602657e-07 	0.02049793799 	1.001268762e-06 	3.907476691e-05
0.624342742 	0.02553251297 	0.00404698937 	1.897712146e-07 	0.02064423562 	1.012228576e-06 	3.935365087e-05
0.6301107689 	0.0256955088 	0.00447916129 	5.986807404e-08 	0.02080094745 	1.020113036e-06 	3.965238717e-05
0.6358151458 	0.02585754852 	0.004909641167 	-8.626478068e-08 	0.02096765403 	1.027119376e-06 	3.997017625e-05
0.641456666 	0.02601824926 	0.005338921671 	-2.497038374e-07 	0.02114393151 	1.035408662e-06 	4.030621011e-05
0.647036138 	0.02617726457 	0.005767521393 	-4.317839163e-07 	0.02132941166 	1.047463425e-06 	4.065978682e-05
0.65255404 	0.02633426302 	0.006196030713 	-6.346199878e-07 	0.02152374586 	1.067023183e-06 	4.103024183e-05
0.6580110512 	0.02648892865 	0.006625291409 	-8.597138244e-07 	0.02172657977 	1.098445715e-06 	4.141689963e-05
0.6634079914 	0.02664098756 	0.007056423909 	-1.107925981e-06 	0.02193755949 	1.147280019e-06 	4.181908562e-05
0.6687454422 	0.0267902071 	0.007490799307 	-1.380065441e-06 	0.02215634815 	1.221348531e-06 	4.223615761e-05
0.6740239929 	0.02693640756 	0.007930224868 	-1.676447698e-06 	0.02238262025 	1.33131825e-06 	4.266749513e-05
0.6792442933 	0.02707949166 	0.008377323714 	-1.995847737e-06 	0.02261606706 	1.49197464e-06 	4.311250963e-05
0.6844071263 	0.0272195128 	0.008836052793 	-2.331085478e-06 	0.02285623777 	1.723405651e-06 	4.357034175e-05
0.6895129981 	0.02735697239 	0.009312565958 	-2.650773746e-06 	0.02310194066 	2.05103431e-06 	4.403871974e-05
0.6945625248 	0.02749392881 	0.009817288606 	-2.846879709e-06 	0.02335121828 	2.514564703e-06 	4.451391218e-05
0.699556328 	0.02763704255 	0.01036175953 	-2.679377365e-06 	0.02358741841 	3.134872523e-06 	4.496417527e-05
0.7044951269 	0.02780183598 	0.01094580415 	-1.718303051e-06 	0.02380165377 	4.192848502e-06 	4.537256741e-05
0.7093794255 	0.0280154778 	0.01156041452 	2.6503653e-07 	0.02399695342 	5.937954956e-06 	4.574486282e-05
0.7142098239 	0.02828175611 	0.01203473623 	1.567391861e-06 	0.02415113763 	7.979613333e-06 	4.603878079e-05
0.7189869164 	0.02855469685 	0.01223467609 	1.825121282e-06 	0.02428434712 	9.845906241e-06 	4.62927151e-05
0.7237113542 	0.02878078446 	0.01232254093 	2.1444171e-06 	0.02448002814 	1.149496027e-05 	4.666573751e-05
0.7283836644 	0.0289331624 	0.01242626512 	2.232905758e-06 	0.0247630886 	1.24128093e-05 	4.720532941e-05
0.7330044134 	0.02903113726 	0.01253824357 	2.010527467e-06 	0.0250809571 	1.191926276e-05 	4.781127512e-05
0.7375741699 	0.0291363729 	0.01264773665 	1.59545774e-06 	0.02537800581 	1.016238831e-05 	4.837753252e-05
0.7420935234 	0.02930536052 	0.01274734061 	1.152758501e-06 	0.02561504705 	7.741926389e-06 	4.882939902e-05
0.7465630238 	0.02955272712 	0.01283586081 	7.960186661e-07 	0.02578416288 	5.406257035e-06 	4.915178078e-05
0.7509832008 	0.02984515777 	0.01291874873 	5.78511625e-07 	0.025920169 	3.797220502e-06 	4.941104624e-05
0.7553545986 	0.0301241938 	0.01300493622 	5.049225097e-07 	0.02607740704 	3.158938013e-06 	4.971078566e-05
0.7596777566 	0.03033966869 	0.01310180339 	5.183565775e-07 	0.02629905474 	3.218060163e-06 	5.013330777e-05
0.7639532349 	0.03047271616 	0.01321097339 	5.138596365e-07 	0.02659787585 	3.337488992e-06 	5.070294387e-05
0.7681815307 	0.03053974439 	0.01332805577 	4.078992919e-07 	0.02695587391 	2.86493798e-06 	5.138538767e-05
0.7723631646 	0.03057832821 	0.0134462113 	1.991692019e-07 	0.027337839 	1.498762325e-06 	5.21135193e-05
0.7764986516 	0.03062967663 	0.01356000758 	-4.825081032e-08 	0.02770575206 	-6.026473017e-07 	5.281486385e-05
0.7805885059 	0.03073084393 	0.01366700506 	-2.765149598e-07 	0.02802786118 	-3.042693934e-06 	5.342889334e-05
0.7846332395 	0.03090759173 	0.01376749874 	-4.690485977e-07 	0.02828532571 	-5.405093168e-06 	5.391969231e-05
0.7886333369 	0.0311645053 	0.01386370664 	-6.269527594e-07 	0.02847903319 	-7.313497219e-06 	5.428895259e-05
0.7925892905 	0.03148023829 	0.01395931811 	-7.333613966e-07 	0.02863357062 	-8.437074552e-06 	5.458354389e-05
0.7965015875 	0.03181232345 	0.01405917012 	-7.44587192e-07 	0.02879112826 	-8.515063731e-06 	5.488389254e-05
0.8003707124 	0.03211090111 	0.01416802518 	-6.243058336e-07 	0.02899709507 	-7.473579599e-06 	5.527652253e-05
0.8041971471 	0.0323352582 	0.01428827796 	-3.944686264e-07 	0.02928472682 	-5.559920196e-06 	5.582482859e-05
0.8079813545 	0.032468862 	0.01441804107 	-1.439531666e-07 	0.02966244202 	-3.323946771e-06 	5.654485874e-05
0.8117238006 	0.03252852877 	0.01455167268 	2.877975187e-08 	0.0301074542 	-1.450457031e-06 	5.739317563e-05
0.8154249462 	0.03256259299 	0.01468303074 	8.774270248e-08 	0.03057154934 	-4.650418071e-07 	5.827786996e-05
0.819085247 	0.0326307374 	0.01480906936 	7.040431843e-08 	0.03100140782 	-4.513631466e-07 	5.909729971e-05
0.8227051594 	0.03277517891 	0.01493060684 	3.493335878e-08 	0.03136246436 	-1.051478093e-06 	5.978557382e-05
0.8262851241 	0.03300451113 	0.01505031761 	1.603725435e-08 	0.03165133691 	-1.719545978e-06 	6.033624519e-05
0.8298255813 	0.03329652018 	0.01517072193 	2.40794889e-08 	0.03189213929 	-2.019745761e-06 	6.079528144e-05
0.8333269671 	0.03361327438 	0.01529348722 	5.905480702e-08 	0.03212134781 	-1.776508548e-06 	6.12322166e-05
0.8367897125 	0.03391864361 	0.01541935999 	1.136595425e-07 	0.03237057586 	-1.052643668e-06 	6.170731453e-05
0.8402142449 	0.03419202839 	0.01554804229 	1.725385014e-07 	0.03265308944 	-4.593518265e-08 	6.224586392e-05
0.8436009875 	0.03443552367 	0.01567854566 	2.177073557e-07 	0.03296801976 	9.340330093e-07 	6.284620865e-05
0.8469503549 	0.03467057833 	0.01580534119 	9.653101649e-08 	0.03329716083 	1.597427377e-06 	6.347364302e-05
0.8502627596 	0.03491903752 	0.01588791234 	-1.399193388e-08 	0.03361120037 	1.983575846e-06 	6.407228966e-05
0.8535386095 	0.03518586076 	0.0159457621 	1.262234989e-07 	0.03391264651 	2.287824527e-06 	6.464692978e-05
0.856778308 	0.03546355886 	0.01602234119 	1.800850309e-07 	0.03422041604 	2.520812339e-06 	6.523362404e-05