0.3443842407 	-0.002455985095 	0.0006410669446 	-1.515333914e-08 	0.01597844186 	-0.004185223536 	1.099342561e-07 	73.86624419 	-19.32921084 	0.0004549282854
0.3446065432 	0 	0 	0 	0.04913127777 	-0.01287395853 	2.160979501e-07 	0 	0 	0
0.3448288532 	0 	0 	0 	0.1008744015 	-0.02640101371 	2.887838687e-07 	0 	0 	0
0.3450511696 	0 	0 	0 	0.1551551793 	-0.04053329515 	2.390214769e-07 	0 	0 	0
0.3452734914 	0 	0 	0 	0.2116902226 	-0.05520762365 	8.880770622e-08 	0 	0 	0
0.3453683896 	0 	0 	0 	0.2364986693 	-0.06162462172 	-0.0002794208533 	0 	0 	0
0.3454955589 	0 	0 	0 	0.2698166727 	-0.07024163938 	1.066427872e-07 	0 	0 	0
0.3457174369 	0 	0 	0 	0.3283816756 	-0.0853237131 	3.127258352e-07 	0 	0 	0
0.3459393173 	0 	0 	0 	0.3858969443 	-0.1000714421 	5.210010605e-07 	0 	0 	0
0.346161199 	0 	0 	0 	0.4409459928 	-0.1141351303 	7.106730144e-07 	0 	0 	0
0.3463830811 	0 	0 	0 	0.4925618729 	-0.127274717 	8.70670597e-07 	0 	0 	0
0.3466049627 	0 	0 	0 	0.5403287705 	-0.1393801927 	9.983486222e-07 	0 	0 	0
0.3468268426 	0 	0 	0 	0.5842554093 	-0.1504499689 	1.095994043e-06 	0 	0 	0
0.3470487201 	0 	0 	0 	0.6245919837 	-0.1605499809 	1.167320094e-06 	0 	0 	0
0.347270594 	0 	0 	0 	0.6616909498 	-0.1697758408 	1.215441763e-06 	0 	0 	0
0.3474924634 	0 	0 	0 	0.6959258069 	-0.1782289801 	1.242330447e-06 	0 	0 	0
0.3477143274 	0 	0 	0 	0.7276508946 	-0.1860051596 	1.248944905e-06 	0 	0 	0
0.347936185 	0 	0 	0 	0.7571847642 	-0.1931900971 	1.235508277e-06 	0 	0 	0
0.3481580352 	0 	0 	0 	0.7848057729 	-0.1998584976 	1.201761585e-06 	0 	0 	0
0.348379877 	0 	0 	0 	0.8107534897 	-0.2060745756 	1.147162669e-06 	0 	0 	0
0.3486017095 	0 	0 	0 	0.8352325206 	-0.2118931571 	1.071032575e-06 	0 	0 	0
0.3488235318 	0 	0 	0 	0.8584170536 	-0.2173609333 	9.7265906e-07 	0 	0 	0
0.3490453428 	0 	0 	0 	0.8804553197 	-0.222517668 	8.513681052e-07 	0 	0 	0
0.3492671416 	0 	0 	0 	0.9014736301 	-0.2273972812 	7.06573101e-07 	0 	0 	0
0.3494889273 	0 	0 	0 	0.9215798797 	-0.2320287835 	5.378062529e-07 	0 	0 	0
0.3497106988 	0 	0 	0 	0.9408665152 	-0.2364370661 	3.447522646e-07 	0 	0 	0
0.3499324553 	0 	0 	0 	0.9594130202 	-0.2406435671 	1.272417478e-07 	0 	0 	0
0.3501541958 	0 	0 	0 	0.9772879851 	-0.244666817 	-1.148757762e-07 	0 	0 	0
0.3503759193 	0 	0 	0 	0.9945508328 	-0.2485228958 	-3.8178664e-07 	0 	0 	0
0.3505976249 	0 	0 	0 	1.011253453 	-0.2522260747 	-6.735782025e-07 	0 	0 	0
0.3508193117 	0 	0 	0 	1.02744171 	-0.2557880373 	-9.903371008e-07 	0 	0 	0
0.3510409786 	0 	0 	0 	1.04528354 	-0.2596850811 	-1.37575803e-06 	0 	0 	0
0.3513853564 	0 	0 	0 	1.066823829 	-0.264343053 	-1.913517125e-06 	0 	0 	0
0.3517361516 	0 	0 	0 	1.089845446 	-0.269269882 	-2.563305446e-06 	0 	0 	0
0.3520934788 	0 	0 	0 	1.112385469 	-0.2740381551 	-3.285755456e-06 	0 	0 	0
0.3524574545 	0 	0 	0 	1.134489632 	-0.2786614737 	-4.0824497e-06 	0 	0 	0
0.3528281968 	0 	0 	0 	1.156198307 	-0.2831501373 	-4.955013416e-06 	0 	0 	0
0.3532058255 	0 	0 	0 	1.177546944 	-0.2875135464 	-5.904820211e-06 	0 	0 	0
0.3535904623 	0 	0 	0 	1.198566537 	-0.2917599072 	-6.933118705e-06 	0 	0 	0
0.3539822304 	0 	0 	0 	1.219284304 	-0.2958964026 	-8.0410772e-06 	0 	0 	0
0.3543812548 	0 	0 	0 	1.239724197 	-0.2999293441 	-9.229816041e-06 	0 	0 	0
0.3547876624 	0 	0 	0 	1.25990733 	-0.3038642781 	-1.050041889e-05 	0 	0 	0
0.3552015816 	0 	0 	0 	1.279852318 	-0.3077060811 	-1.185393512e-05 	0 	0 	0
0.3556231425 	0 	0 	0 	1.299575569 	-0.3114590394 	-1.329136843e-05 	0 	0 	0
0.356052477 	0 	0 	0 	1.319091532 	-0.3151269161 	-1.481365311e-05 	0 	0 	0
0.3564897188 	0 	0 	0 	1.33841292 	-0.3187130107 	-1.642163759e-05 	0 	0 	0
0.3569350029 	0 	0 	0 	1.35755089 	-0.3222202084 	-1.811607295e-05 	0 	0 	0
0.3573884662 	0 	0 	0 	1.376515203 	-0.3256510366 	-1.989760314e-05 	0 	0 	0
0.3578502473 	0 	0 	0 	1.395314368 	-0.3290076842 	-2.176675557e-05 	0 	0 	0
0.358320486 	0 	0 	0 	1.413978394 	-0.3322959955 	-2.372556099e-05 	0 	0 	0
0.3588016631 	0 	0 	0 	1.432552332 	-0.3355240451 	-2.578218884e-05 	0 	0 	0
0.359293396 	0 	0 	0 	1.451033681 	-0.3386915447 	-2.793804798e-05 	0 	0 	0
0.3597942051 	0 	0 	0 	1.469388644 	-0.3417928527 	-3.018839579e-05 	0 	0 	0
0.3603042555 	0 	0 	0 	1.4876063 	-0.3448263425 	-3.253273001e-05 	0 	0 	0
0.3608237152 	0 	0 	0 	1.50569046 	-0.3477929557 	-3.497165495e-05 	0 	0 	0
0.3613527551 	0 	0 	0 	1.52364432 	-0.3506934476 	-3.750566651e-05 	0 	0 	0
0.3618915494 	0 	0 	0 	1.541470519 	-0.3535284361 	-4.013515269e-05 	0 	0 	0
0.362440275 	0 	0 	0 	1.559171185 	-0.3562984106 	-4.286037663e-05 	0 	0 	0
0.3629991123 	0 	0 	0 	1.576747989 	-0.3590037453 	-4.568145347e-05 	0 	0 	0
0.3635682448 	0 	0 	0 	1.594202191 	-0.3616447125 	-4.859833756e-05 	0 	0 	0
0.3641478591 	0 	0 	0 	1.611534682 	-0.3642214938 	-5.16108152e-05 	0 	0 	0
0.3647381453 	0 	0 	0 	1.628746028 	-0.3667341907 	-5.471850077e-05 	0 	0 	0
0.3653392967 	0 	0 	0 	1.645836506 	-0.369182835 	-5.792083497e-05 	0 	0 	0
0.3659515103 	0 	0 	0 	1.662806137 	-0.3715673964 	-6.121708462e-05 	0 	0 	0
0.3665749862 	0 	0 	0 	1.679654717 	-0.3738877919 	-6.460634386e-05 	0 	0 	0
0.3672099285 	0 	0 	0 	1.696381847 	-0.376143892 	-6.808753449e-05 	0 	0 	0
0.3678565445 	0 	0 	0 	1.712986959 	-0.3783355282 	-7.165940556e-05 	0 	0 	0
0.3685150454 	0 	0 	0 	1.729469338 	-0.3804624991 	-7.532053341e-05 	0 	0 	0
0.3691856462 	0 	0 	0 	1.74582815 	-0.3825245763 	-7.906932068e-05 	0 	0 	0
0.3698685656 	0 	0 	0 	1.762062457 	-0.384521509 	-8.290399416e-05 	0 	0 	0
0.370564026 	0 	0 	0 	1.778171242 	-0.3864530338 	-8.682260437e-05 	0 	0 	0
0.3712722542 	0 	0 	0 	1.794153438 	-0.3883188767 	-9.082302446e-05 	0 	0 	0
0.3719934806 	0 	0 	0 	1.810015857 	-0.390119633 	-9.490401167e-05 	0 	0 	0
0.3727294247 	0 	0 	0 	1.825786767 	-0.3918581531 	-9.907224706e-05 	0 	0 	0
0.3734830113 	0 	0 	0 	1.841477312 	-0.3935350438 	-0.000103335973 	0 	0 	0
0.3742503944 	0 	0 	0 	1.857053595 	-0.3951462545 	-0.0001037417291 	0 	0 	0
0.375031822 	0 	0 	0 	1.87249356 	-0.3966891837 	-0.0001026581466 	0 	0 	0
0.3758275468 	0 	0 	0 	1.887796298 	-0.3981636643 	-0.000101404525 	0 	0 	0
0.3766378254 	0 	0 	0 	1.902960964 	-0.3995694888 	-9.998182208e-05 	0 	0 	0
0.3774629195 	0 	0 	0 	1.917986791 	-0.4009064832 	-9.839127918e-05 	0 	0 	0
0.3783030949 	0 	0 	0 	1.932873096 	-0.4021744933 	-9.663441402e-05 	0 	0 	0
0.3791586226 	0 	0 	0 	1.947619289 	-0.4033733861 	-9.471301994e-05 	0 	0 	0
0.3800297781 	0 	0 	0 	1.962224867 	-0.4045030497 	-9.262916413e-05 	0 	0 	0
0.3809168418 	0 	0 	0 	1.976689422 	-0.4055633922 	-9.038518234e-05 	0 	0 	0
0.3818200992 	0 	0 	0 	1.991012622 	-0.4065543392 	-8.798367179e-05 	0 	0 	0
0.3827398406 	0 	0 	0 	2.005194211 	-0.4074758302 	-8.542748504e-05 	0 	0 	0
0.3836763618 	0 	0 	0 	2.019234001 	-0.4083278223 	-8.271973279e-05 	0 	0 	0
0.3846299636 	0 	0 	0 	2.033131916 	-0.4091102972 	-7.986380582e-05 	0 	0 	0
0.3856009522 	0 	0 	0 	2.046891785 	-0.4098234368 	-7.686367128e-05 	0 	0 	0
0.3865907222 	0 	0 	0 	2.060537296 	-0.4104684442 	-7.37195965e-05 	0 	0 	0
0.387604356 	0 	0 	0 	2.074085182 	-0.4110455166 	-7.041486356e-05 	0 	0 	0
0.3886364169 	0 	0 	0 	2.089162816 	-0.4116164982 	-6.705736202e-05 	0 	0 	0
0.3902195767 	0 	0 	0 	2.107382663 	-0.4121879531 	-6.160287847e-05 	0 	0 	0
0.3918189307 	0 	0 	0 	2.126626568 	-0.4126608142 	-5.605900967e-05 	0 	0 	0
0.3934346495 	0 	0 	0 	2.145269807 	-0.4129794904 	-5.037447848e-05 	0 	0 	0
0.3950669062 	0 	0 	0 	2.163341126 	-0.4131526971 	-4.457378121e-05 	0 	0 	0
0.3967158762 	0 	0 	0 	2.180868029 	-0.4131874937 	-3.86794773e-05 	0 	0 	0
0.398381737 	0 	0 	0 	2.197876758 	-0.4130907341 	-3.271279139e-05 	0 	0 	0
0.4000646689 	0 	0 	0 	2.214414249 	-0.4128685169 	-2.66937807e-05 	0 	0 	0
0.4017744432 	0 	0 	0 	2.2305284 	-0.4125258191 	-2.060017682e-05 	0 	0 	0
0.4035026989 	0 	0 	0 	2.246213857 	-0.4120680381 	-1.449136699e-05 	0 	0 	0
0.4052485868 	0 	0 	0 	2.26146616 	-0.4115007745 	-8.388081539e-06 	0 	0 	0
0.4070122955 	0 	0 	0 	2.276302282 	-0.4108292256 	-2.305281921e-06 	0 	0 	0
0.407690136 	0 	0 	0 	2.281796291 	-0.41053597 	4.036739423e-05 	0 	0 	0
0.408792624 	0 	0 	0 	2.29073025 	-0.4100505019 	-4.012171869e-06 	0 	0 	0
0.4105903171 	0 	0 	0 	2.30477122 	-0.4091721225 	-1.043921424e-05 	0 	0 	0
0.4124064297 	0 	0 	0 	2.318449983 	-0.4082025899 	-1.679768202e-05 	0 	0 	0
0.4142429688 	0 	0 	0 	2.331798876 	-0.407144163 	-2.308529435e-05 	0 	0 	0
0.4161069656 	0 	0 	0 	2.344842166 	-0.4059989134 	-2.931728575e-05 	0 	0 	0
0.417989985 	0 	0 	0 	2.357569002 	-0.4047715426 	-3.54455523e-05 	0 	0 	0
0.4198922341 	0 	0 	0 	2.369975784 	-0.4034662974 	-4.146253839e-05 	0 	0 	0
0.4218139229 	0 	0 	0 	2.382071904 	-0.4020859676 	-4.73600254e-05 	0 	0 	0
0.4237552645 	0 	0 	0 	2.393864992 	-0.4006327435 	-5.312874621e-05 	0 	0 	0
0.4257164752 	0 	0 	0 	2.405363369 	-0.3991084405 	-5.876233725e-05 	0 	0 	0
0.4276986919 	0 	0 	0 	2.416590546 	-0.3975138854 	-6.427157164e-05 	0 	0 	0
0.4297104706 	0 	0 	0 	2.427575419 	-0.3958519188 	-6.971127129e-05 	0 	0 	0
0.4317427659 	0 	0 	0 	2.438325872 	-0.3941337454 	-7.511897376e-05 	0 	0 	0
0.4337958054 	0 	0 	0 	2.448853921 	-0.3923717909 	-8.052080191e-05 	0 	0 	0
0.4358698202 	0 	0 	0 	2.459165172 	-0.3905675545 	-8.574474978e-05 	0 	0 	0
0.4379650448 	0 	0 	0 	2.469247856 	-0.3887142032 	-9.067738957e-05 	0 	0 	0
0.4400817173 	0 	0 	0 	2.479097442 	-0.3868077095 	-9.541712466e-05 	0 	0 	0
0.4422255123 	0 	0 	0 	2.488724228 	-0.3848471933 	-0.0001000153076 	0 	0 	0
0.4443955983 	0 	0 	0 	2.498129366 	-0.3828339242 	-0.000104437699 	0 	0 	0
0.4465878315 	0 	0 	0 	2.507305911 	-0.3807713411 	-0.0001086858317 	0 	0 	0
0.4488024631 	0 	0 	0 	2.51625447 	-0.3786621866 	-0.0001127632158 	0 	0 	0
0.4510397483 	0 	0 	0 	2.524979996 	-0.3765081919 	-0.0001143917156 	0 	0 	0
0.4532999463 	0 	0 	0 	2.533491302 	-0.3743098669 	-0.0001080134149 	0 	0 	0
0.4555878644 	0 	0 	0 	2.541801585 	-0.3720664031 	-0.0001017559732 	0 	0 	0
0.4579040328 	0 	0 	0 	2.549914339 	-0.3697792271 	-9.56284142e-05 	0 	0 	0
0.4602438632 	0 	0 	0 	2.557824428 	-0.367452155 	-8.96508755e-05 	0 	0 	0
0.4626076297 	0 	0 	0 	2.565532438 	-0.3650878025 	-8.382526994e-05 	0 	0 	0
0.4649956106 	0 	0 	0 	2.573042888 	-0.3626876328 	-7.815275282e-05 	0 	0 	0
0.4674080891 	0 	0 	0 	2.580365268 	-0.3602512341 	-7.263357891e-05 	0 	0 	0
0.4698526333 	0 	0 	0 	2.587510741 	-0.35777755 	-6.725068822e-05 	0 	0 	0
0.4723238069 	0 	0 	0 	2.594477253 	-0.3552694878 	-6.202759295e-05 	0 	0 	0
0.4748202848 	0 	0 	0 	2.601262361 	-0.3527304635 	-5.696944682e-05 	0 	0 	0
0.4773423667 	0 	0 	0 	2.607869108 	-0.3501621562 	-5.207582265e-05 	0 	0 	0
0.4798903572 	0 	0 	0 	2.614303944 	-0.3475647154 	-4.73456312e-05 	0 	0 	0
0.4824688066 	0 	0 	0 	2.620575875 	-0.3449371253 	-4.276861955e-05 	0 	0 	0
0.4850778683 	0 	0 	0 	2.62668762 	-0.3422805807 	-3.835154979e-05 	0 	0 	0
0.4877136985 	0 	0 	0 	2.632636977 	-0.3395983398 	-3.410422588e-05 	0 	0 	0
0.4903766202 	0 	0 	0 	2.638425324 	-0.3368924798 	-3.002473391e-05 	0 	0 	0
0.4930669622 	0 	0 	0 	2.644058076 	-0.33416307 	-2.611057508e-05 	0 	0 	0
0.4957890047 	0 	0 	0 	2.649542626 	-0.3314090968 	-2.235237436e-05 	0 	0 	0
0.498542954 	0 	0 	0 	2.654881418 	-0.3286315908 	-1.875520278e-05 	0 	0 	0
0.501325243 	0 	0 	0 	2.660073031 	-0.3258334968 	-1.532516615e-05 	0 	0 	0
0.5041362209 	0 	0 	0 	2.665118857 	-0.3230166595 	-1.205889858e-05 	0 	0 	0
0.5069762428 	0 	0 	0 	2.67002412 	-0.3201806032 	-8.952664902e-06 	0 	0 	0
0.5098513058 	0 	0 	0 	2.674794959 	-0.3173242926 	-5.996159487e-06 	0 	0 	0
0.5127576566 	0 	0 	0 	2.679431312 	-0.3144497077 	-3.198923726e-06 	0 	0 	0
0.515694038 	0 	0 	0 	2.683932718 	-0.3115593718 	-5.596111321e-07 	0 	0 	0
0.5163520982 	0 	0 	0 	2.684902176 	-0.3109149084 	4.493586463e-05 	0 	0 	0
0.5186599183 	0 	0 	0 	2.688300139 	-0.3086504178 	-2.058632253e-06 	0 	0 	0
0.5216583595 	0 	0 	0 	2.692539788 	-0.3057247599 	-4.560704991e-06 	0 	0 	0
0.5246926629 	0 	0 	0 	2.696655223 	-0.3027834738 	-6.910102173e-06 	0 	0 	0
0.5277584632 	0 	0 	0 	2.700645536 	-0.2998290008 	-9.102546104e-06 	0 	0 	0
0.5308561613 	0 	0 	0 	2.704511483 	-0.2968630267 	-1.11435923e-05 	0 	0 	0
0.533986392 	0 	0 	0 	2.708256754 	-0.2938848343 	-1.303903376e-05 	0 	0 	0
0.5371552072 	0 	0 	0 	2.711885092 	-0.2908936237 	-1.479611279e-05 	0 	0 	0
0.5403570304 	0 	0 	0 	2.715395481 	-0.287891671 	-1.640872618e-05 	0 	0 	0
0.5435922885 	0 	0 	0 	2.718788067 	-0.2848808369 	-1.788298251e-05 	0 	0 	0
0.5468614163 	0 	0 	0 	2.722065629 	-0.2818605328 	-1.922475683e-05 	0 	0 	0
0.5501702641 	0 	0 	0 	2.725231107 	-0.2788299383 	-2.04408799e-05 	0 	0 	0
0.5535138574 	0 	0 	0 	2.728283558 	-0.2757909797 	-2.152696286e-05 	0 	0 	0
0.5568925193 	0 	0 	0 	2.731222914 	-0.2727451854 	-2.248917526e-05 	0 	0 	0
0.5603072062 	0 	0 	0 	2.734050985 	-0.2696919937 	-2.333391644e-05 	0 	0 	0
0.5637623821 	0 	0 	0 	2.736769266 	-0.266630859 	-2.406519531e-05 	0 	0 	0
0.5672538805 	0 	0 	0 	2.739376483 	-0.2635634134 	-2.468181066e-05 	0 	0 	0
0.5707821855 	0 	0 	0 	2.741872306 	-0.2604905504 	-2.519034955e-05 	0 	0 	0
0.5743495265 	0 	0 	0 	2.744257464 	-0.2574116771 	-2.55978172e-05 	0 	0 	0
0.577957345 	0 	0 	0 	2.746531604 	-0.2543268946 	-2.590497983e-05 	0 	0 	0
0.5816033051 	0 	0 	0 	2.748693112 	-0.2512375067 	-2.611521917e-05 	0 	0 	0
0.5852879225 	0 	0 	0 	2.750741253 	-0.2481437223 	-2.623545617e-05 	0 	0 	0
0.5890150047 	0 	0 	0 	2.752675563 	-0.2450449892 	-2.627146361e-05 	0 	0 	0
0.5927823599 	0 	0 	0 	2.754493853 	-0.2419422353 	-2.622312774e-05 	0 	0 	0
0.5965897945 	0 	0 	0 	2.756193975 	-0.2388362286 	-2.609678624e-05 	0 	0 	0
0.6004392764 	0 	0 	0 	2.757774106 	-0.2357267107 	-2.589899e-05 	0 	0 	0
0.6043319749 	0 	0 	0 	2.759231566 	-0.2326137868 	-2.563041562e-05 	0 	0 	0
0.6082662433 	0 	0 	0 	2.760562917 	-0.2294983307 	-2.529504296e-05 	0 	0 	0
0.6122429764 	0 	0 	0 	2.761765136 	-0.2263803832 	-2.489916279e-05 	0 	0 	0
0.6162651862 	0 	0 	0 	2.762835268 	-0.2232596341 	-2.444507368e-05 	0 	0 	0
0.620330528 	0 	0 	0 	2.763769937 	-0.2201369608 	-2.393456849e-05 	0 	0 	0
0.6244396024 	0 	0 	0 	2.764566832 	-0.2170126312 	-2.3373493e-05 	0 	0 	0
0.6285955101 	0 	0 	0 	2.765224645 	-0.2138863835 	-2.276521396e-05 	0 	0 	0
0.6327963996 	0 	0 	0 	2.765742584 	-0.2107590253 	-2.211094885e-05 	0 	0 	0
0.6370426866 	0 	0 	0 	2.766121294 	-0.2076310015 	-2.141703526e-05 	0 	0 	0
0.6413370089 	0 	0 	0 	2.76636254 	-0.2045022918 	-2.068764257e-05 	0 	0 	0
0.6456781654 	0 	0 	0 	2.766468583 	-0.2013736022 	-1.992415189e-05 	0 	0 	0
0.6500664637 	0 	0 	0 	2.766442394 	-0.1982453152 	-1.913245682e-05 	0 	0 	0
0.6545043509 	0 	0 	0 	2.766287116 	-0.1951173929 	-1.831597251e-05 	0 	0 	0
0.6589907485 	0 	0 	0 	2.766005526 	-0.1919903258 	-1.747600592e-05 	0 	0 	0
0.6635261572 	0 	0 	0 	2.76560001 	-0.188864238 	-1.661796485e-05 	0 	0 	0
0.6681128654 	0 	0 	0 	2.765072084 	-0.1857388851 	-1.574403635e-05 	0 	0 	0
0.6727497425 	0 	0 	0 	2.764424397 	-0.1826224731 	-1.485696416e-05 	0 	0 	0
0.6773861214 	0 	0 	0 	2.763663456 	-0.1795407826 	-1.397075715e-05 	0 	0 	0
0.6819716458 	0 	0 	0 	2.762798017 	-0.1765181483 	-1.309559361e-05 	0 	0 	0
0.6865058683 	0 	0 	0 	2.761834201 	-0.1735601429 	-1.223524678e-05 	0 	0 	0
0.6909899831 	0 	0 	0 	2.760775275 	-0.1706643303 	-1.139357176e-05 	0 	0 	0
0.6954247659 	0 	0 	0 	2.759624302 	-0.1678284899 	-1.057061164e-05 	0 	0 	0
0.6998101865 	0 	0 	0 	2.758384702 	-0.1650507585 	-9.768536907e-06 	0 	0 	0
0.7041473543 	0 	0 	0 	2.757060287 	-0.1623294047 	-8.989074795e-06 	0 	0 	0
0.708436817 	0 	0 	0 	2.755655183 	-0.1596628927 	-8.230697942e-06 	0 	0 	0
0.7126787351 	0 	0 	0 	2.754173727 	-0.1570497933 	-7.493798503e-06 	0 	0 	0
0.7168740637 	0 	0 	0 	2.752619954 	-0.1544885707 	-6.778553213e-06 	0 	0 	0
0.7210233433 	0 	0 	0 	2.750997213 	-0.1519775844 	-6.08308498e-06 	0 	0 	0
0.7251267892 	0 	0 	0 	2.74930795 	-0.1495150446 	-5.407882229e-06 	0 	0 	0
0.7291851807 	0 	0 	0 	2.747553359 	-0.1470989178 	-4.754136363e-06 	0 	0 	0
0.73319916 	0 	0 	0 	2.745733348 	-0.1447270129 	-4.12173222e-06 	0 	0 	0
0.7371689229 	0 	0 	0 	2.743846794 	-0.1423971163 	-3.512331502e-06 	0 	0 	0
0.7410950781 	0 	0 	0 	2.74189166 	-0.1401069805 	-2.928128224e-06 	0 	0 	0
0.7449784111 	0 	0 	0 	2.739865276 	-0.1378544241 	-2.369729923e-06 	0 	0 	0
0.7488190624 	0 	0 	0 	2.737764794 	-0.1356375039 	-1.837815638e-06 	0 	0 	0
0.7526175557 	0 	0 	0 	2.73558732 	-0.1334544204 	-1.333303726e-06 	0 	0 	0
0.7563746203 	0 	0 	0 	2.733329977 	-0.1313035045 	-8.561221968e-07 	0 	0 	0
0.7600905322 	0 	0 	0 	2.73099006 	-0.129183263 	-4.054347201e-07 	0 	0 	0
0.7636007819 	0 	0 	0 	2.728673795 	-0.1271861113 	5.313967386e-06 	0 	0 	0
0.7637656988 	0 	0 	0 	2.728564977 	-0.1270922172 	-1.629843042e-08 	0 	0 	0
0.7674002605 	0 	0 	0 	2.726052293 	-0.1250279532 	-3.66926111e-07 	0 	0 	0
0.7709951809 	0 	0 	0 	2.723449153 	-0.1229902839 	-6.930281083e-07 	0 	0 	0
0.7745507588 	0 	0 	0 	2.720753134 	-0.1209780751 	-9.958859455e-07 	0 	0 	0
0.7780674581 	0 	0 	0 	2.717962167 	-0.1189904325 	-1.277896338e-06 	0 	0 	0
0.7815458334 	0 	0 	0 	2.715074845 	-0.1170268297 	-1.543386042e-06 	0 	0 	0
0.7849862318 	0 	0 	0 	2.712090926 	-0.1150872694 	-1.798759301e-06 	0 	0 	0
0.7883890421 	0 	0 	0 	2.709011731 	-0.1131723567 	-2.050937152e-06 	0 	0 	0
0.7917546993 	0 	0 	0 	2.705840356 	-0.1112832997 	-2.306877176e-06 	0 	0 	0
0.7950837181 	0 	0 	0 	2.702581695 	-0.1094218122 	-2.572407885e-06 	0 	0 	0
0.7983763974 	0 	0 	0 	2.699242164 	-0.1075899118 	-2.850414815e-06 	0 	0 	0
0.8016331439 	0 	0 	0 	2.695828922 	-0.105789567 	-3.139084056e-06 	0 	0 	0
0.8048543671 	0 	0 	0 	2.692348783 	-0.1040223099 	-3.431934581e-06 	0 	0 	0
0.8080405314 	0 	0 	0 	2.688807102 	-0.1022888989 	-3.718864735e-06 	0 	0 	0
0.8111919383 	0 	0 	0 	2.68520681 	-0.1005891094 	-3.987684036e-06 	0 	0 	0
0.8143089796 	0 	0 	0 	2.68154776 	-0.09892166944 	-4.226313608e-06 	0 	0 	0
0.8173920419 	0 	0 	0 	2.677826577 	-0.09728439328 	-4.425802699e-06 	0 	0 	0
0.8204415432 	0 	0 	0 	2.674037109 	-0.09567448815 	-4.582672137e-06 	0 	0 	0
0.8234578018 	0 	0 	0 	2.670171298 	-0.09408895172 	-4.699914517e-06 	0 	0 	0
0.8264411824 	0 	0 	0 	2.66622022 	-0.09252497148 	-4.78640421e-06 	0 	0 	0
0.8293920517 	0 	0 	0 	2.662175098 	-0.09098025512 	-4.856064985e-06 	0 	0 	0
0.8323107879 	0 	0 	0 	2.6580281 	-0.08945325855 	-4.926235388e-06 	0 	0 	0
0.8351977266 	0 	0 	0 	2.653773083 	-0.08794330668 	-5.015388775e-06 	0 	0 	0
0.838053203 	0 	0 	0 	2.649406189 	-0.08645060723 	-5.1390397e-06 	0 	0 	0
0.8408775654 	0 	0 	0 	2.644925871 	-0.08497611918 	-5.305987306e-06 	0 	0 	0
0.8436711583 	0 	0 	0 	2.640332348 	-0.08352123736 	-5.516078056e-06 	0 	0 	0
0.8464343327 	0 	0 	0 	2.635626433 	-0.08208740953 	-5.760912501e-06 	0 	0 	0
0.8491673941 	0 	0 	0 	2.630808505 	-0.08067578316 	-6.026505752e-06 	0 	0 	0
0.8518706739 	0 	0 	0 	2.625877865 	-0.07928697954 	-6.296300234e-06 	0 	0 	0
0.8545444993 	0 	0 	0 	2.620832187 	-0.07792101233 	-6.553702352e-06 	0 	0 	0
0.8571891969 	0 	0 	0 	2.615667291 	-0.07657730789 	-6.784295225e-06 	0 	0 	0
0.8598050829 	0 	0 	0 	2.610377179 	-0.07525479252 	-6.977255146e-06 	0 	0 	0
0.8623924596 	0 	0 	0 	2.604954244 	-0.07395201763 	-7.124948027e-06 	0 	0 	0
0.864951639 	0 	0 	0 	2.59938946 	-0.07266727427 	-7.221773677e-06 	0 	0 	0
0.8674829292 	0 	0 	0 	2.593672457 	-0.07139864539 	-7.262371008e-06 	0 	0 	0
0.8699866364 	0 	0 	0 	2.587791372 	-0.07014400865 	-7.239865003e-06 	0 	0 	0
0.8724630593 	0 	0 	0 	2.581732482 	-0.06890096905 	-7.144408749e-06 	0 	0 	0
0.8749124865 	0 	0 	0 	2.575479484 	-0.06766672663 	-6.960864889e-06 	0 	0 	0
0.8773352122 	0 	0 	0 	2.569012407 	-0.06643787862 	-6.667368169e-06 	0 	0 	0
0.8797315274 	0 	0 	0 	2.562306338 	-0.06521022136 	-6.237862734e-06 	0 	0 	0
0.8821017194 	0 	0 	0 	2.555330796 	-0.06397875672 	-5.65025389e-06 	0 	0 	0
0.8844460737 	0 	0 	0 	2.548050933 	-0.06273805535 	-4.83302991e-06 	0 	0 	0
0.8867648633 	0 	0 	0 	2.540431215 	-0.06148307485 	-3.793484532e-06 	0 	0 	0
0.889058366 	0 	0 	0 	2.532442226 	-0.06021052568 	-2.777380133e-06 	0 	0 	0
0.8913268564 	0 	0 	0 	2.524070878 	-0.05892065916 	-1.902195377e-06 	0 	0 	0
0.8935706063 	0 	0 	0 	2.515332621 	-0.05761894101 	-1.30382658e-06 	0 	0 	0
0.8957898846 	0 	0 	0 	2.506279326 	-0.05631660634 	-1.087695717e-06 	0 	0 	0
0.8979849547 	0 	0 	0 	2.496996097 	-0.05502908158 	-1.270691373e-06 	0 	0 	0
0.9001560763 	0 	0 	0 	2.487583784 	-0.05377228533 	-1.757324611e-06 	0 	0 	0
0.9023035092 	0 	0 	0 	2.478133492 	-0.05255826062 	-2.374297615e-06 	0 	0 	0
0.9044275105 	0 	0 	0 	2.46870516 	-0.05139218224 	-2.938091727e-06 	0 	0 	0
0.9065283342 	0 	0 	0 	2.459317286 	-0.05027184229 	-3.31278797e-06 	0 	0 	0
0.9086062317 	0 	0 	0 	2.449949545 	-0.0491893541 	-3.43740917e-06 	0 	0 	0
0.9106614501 	0 	0 	0 	2.440554605 	-0.04813400413 	-3.321877386e-06 	0 	0 	0
0.9126942333 	0 	0 	0 	2.431072654 	-0.04709498554 	-3.020958789e-06 	0 	0 	0
0.9147048246 	0 	0 	0 	2.421443048 	-0.0460631837 	-2.604383424e-06 	0 	0 	0
0.9166934645 	0 	0 	0 	2.411611411 	-0.045031973 	-2.139170787e-06 	0 	0 	0
0.9186603909 	0 	0 	0 	2.40153417 	-0.04399744997 	-1.684381757e-06 	0 	0 	0
0.9206058391 	0 	0 	0 	2.391182009 	-0.04295832814 	-1.287864996e-06 	0 	0 	0
0.9225300416 	0 	0 	0 	2.380540451 	-0.04191546785 	-9.799061782e-07 	0 	0 	0
0.924433227 	0 	0 	0 	2.369607309 	-0.04087105611 	-7.679000829e-07 	0 	0 	0
0.9263156229 	0 	0 	0 	2.358388789 	-0.03982767905 	-6.37282089e-07 	0 	0 	0
0.9281774546 	0 	0 	0 	2.346895623 	-0.03878760044 	-5.592967938e-07 	0 	0 	0
0.9300189449 	0 	0 	0 	2.335140256 	-0.03775244185 	-5.029093508e-07 	0 	0 	0
0.9318403144 	0 	0 	0 	2.323136176 	-0.03672329008 	-4.455206019e-07 	0 	0 	0
0.9336417811 	0 	0 	0 	2.310898178 	-0.03570108095 	-3.780578972e-07 	0 	0 	0
0.9354235603 	0 	0 	0 	2.298441916 	-0.03468699002 	-3.03527864e-07 	0 	0 	0
0.9371858648 	0 	0 	0 	2.285781905 	-0.03368257829 	-2.314940048e-07 	0 	0 	0
0.9389289053 	0 	0 	0 	2.272927624 	-0.03268958152 	-1.71589194e-07 	0 	0 	0
0.9406528909 	0 	0 	0 	2.259878844 	-0.03170935186 	-1.278528825e-07 	0 	0 	0
0.9423580282 	0 	0 	0 	2.246622109 	-0.0307422235 	-9.972701241e-08 	0 	0 	0
0.9440445214 	0 	0 	0 	2.233128745 	-0.02978863389 	-8.916672508e-08 	0 	0 	0
0.9457125728 	0 	0 	0 	2.219355526 	-0.02884698855 	-7.539283135e-08 	0 	0 	0
0.9473623823 	0 	0 	0 	2.205255295 	-0.02791307455 	-4.528415347e-08 	0 	0 	0
0.9489941474 	0 	0 	0 	2.190791864 	-0.02698587401 	-2.109145133e-08 	0 	0 	0
0.9506080637 	0 	0 	0 	2.175940328 	-0.02606594483 	-1.311937058e-09 	0 	0 	0
0.9522043246 	0 	0 	0 	2.160678862 	-0.02515237729 	2.226465406e-08 	0 	0 	0
0.9537831219 	0 	0 	0 	2.144985883 	-0.02424545393 	4.449116113e-08 	0 	0 	0
0.955344645 	0 	0 	0 	2.130224058 	-0.02342082321 	6.366372568e-08 	0 	0 	0
0.9563619032 	0 	0 	0 	2.117977448 	-0.02275637301 	7.862970617e-08 	0 	0 	0
0.957360456 	0 	0 	0 	2.107026025 	-0.02217669606 	9.070448261e-08 	0 	0 	0
0.9583406462 	0 	0 	0 	2.095993726 	-0.02160629248 	1.020301623e-07 	0 	0 	0
0.9593028105 	0 	0 	0 	2.084880651 	-0.02104484253 	1.126824122e-07 	0 	0 	0
0.9602472794 	0 	0 	0 	2.073686673 	-0.0204923112 	1.22549788e-07 	0 	0 	0
0.9611743772 	0 	0 	0 	2.062411643 	-0.01994859284 	1.315436213e-07 	0 	0 	0
0.9620844225 	0 	0 	0 	2.05105539 	-0.01941360969 	1.395974169e-07 	0 	0 	0
0.962977728 	0 	0 	0 	2.039617749 	-0.0188872992 	1.466700708e-07 	0 	0 	0
0.9638546008 	0 	0 	0 	2.028098573 	-0.01836960551 	1.527450597e-07 	0 	0 	0
0.9647153423 	0 	0 	0 	2.016497742 	-0.01786047751 	1.578260006e-07 	0 	0 	0
0.9655602484 	0 	0 	0 	2.004815178 	-0.01735986674 	1.619321373e-07 	0 	0 	0
0.9663896097 	0 	0 	0 	1.993050844 	-0.01686772631 	1.650946841e-07 	0 	0 	0
0.9672037114 	0 	0 	0 	1.981204753 	-0.0163840102 	1.673538488e-07 	0 	0 	0
0.9680028336 	0 	0 	0 	1.969276959 	-0.0159086729 	1.687562258e-07 	0 	0 	0
0.9687872512 	0 	0 	0 	1.957267554 	-0.01544166917 	1.693525433e-07 	0 	0 	0
0.969557234 	0 	0 	0 	1.945176653 	-0.01498295391 	1.691957967e-07 	0 	0 	0
0.9703130471 	0 	0 	0 	1.933004377 	-0.01453248206 	1.683398066e-07 	0 	0 	0
0.9710549506 	0 	0 	0 	1.92075084 	-0.01409020847 	1.668381815e-07 	0 	0 	0
0.9717831999 	0 	0 	0 	1.908416125 	-0.01365608778 	1.647436381e-07 	0 	0 	0
0.9724980456 	0 	0 	0 	1.89600026 	-0.01323007419 	1.621075961e-07 	0 	0 	0
0.9731997339 	0 	0 	0 	1.883503196 	-0.01281212142 	1.589799245e-07 	0 	0 	0
0.9738885064 	0 	0 	0 	1.87092478 	-0.01240218244 	1.55408606e-07 	0 	0 	0
0.9745646003 	0 	0 	0 	1.858264728 	-0.01200020912 	1.514400607e-07 	0 	0 	0
0.9752282485 	0 	0 	0 	1.845522597 	-0.01160615214 	1.471190977e-07 	0 	0 	0
0.9758796795 	0 	0 	0 	1.832697758 	-0.01121996086 	1.424888068e-07 	0 	0 	0
0.9765191179 	0 	0 	0 	1.819789363 	-0.01084158306 	1.375905572e-07 	0 	0 	0
0.977146784 	0 	0 	0 	1.80679632 	-0.01047096478 	1.324639917e-07 	0 	0 	0
0.977762894 	0 	0 	0 	1.79371726 	-0.01010805026 	1.271470169e-07 	0 	0 	0
0.9783676604 	0 	0 	0 	1.7805505 	-0.009752781776 	1.216757913e-07 	0 	0 	0
0.9789612914 	0 	0 	0 	1.76729402 	-0.009405099626 	1.160847145e-07 	0 	0 	0
0.9795439919 	0 	0 	0 	1.753945418 	-0.009064942061 	1.104064182e-07 	0 	0 	0
0.9801159626 	0 	0 	0 	1.740501879 	-0.008732245288 	1.046717604e-07 	0 	0 	0
0.9806774008 	0 	0 	0 	1.726960137 	-0.00840694347 	9.89098256e-08 	0 	0 	0
0.9812285001 	0 	0 	0 	1.713316429 	-0.008088968768 	9.314792916e-08 	0 	0 	0
0.9817694505 	0 	0 	0 	1.699566456 	-0.00777825139 	8.74116282e-08 	0 	0 	0
0.9823004386 	0 	0 	0 	1.685705329 	-0.007474719666 	8.172473815e-08 	0 	0 	0
0.9828216476 	0 	0 	0 	1.671727521 	-0.007178300132 	7.610935487e-08 	0 	0 	0
0.9833332573 	0 	0 	0 	1.657626806 	-0.006888917636 	7.058588191e-08 	0 	0 	0
0.9838354441 	0 	0 	0 	1.643396194 	-0.006606495444 	6.517306257e-08 	0 	0 	0
0.9843283814 	0 	0 	0 	1.629027861 	-0.006330955367 	5.988801598e-08 	0 	0 	0
0.9848122392 	0 	0 	0 	1.614513066 	-0.006062217886 	5.474627703e-08 	0 	0 	0
0.9852871845 	0 	0 	0 	1.599842061 	-0.005800202294 	4.976183951e-08 	0 	0 	0
0.9857533812 	0 	0 	0 	1.585003985 	-0.005544826814 	4.494720178e-08 	0 	0 	0
0.9862109903 	0 	0 	0 	1.56998675 	-0.005296008785 	4.03134103e-08 	0 	0 	0
0.9866601697 	0 	0 	0 	1.554776905 	-0.005053664786 	3.587007311e-08 	0 	0 	0
0.9871010743 	0 	0 	0 	1.539359482 	-0.004817710733 	3.162549629e-08 	0 	0 	0
0.9875338566 	0 	0 	0 	1.523717817 	-0.004588062084 	2.758671277e-08 	0 	0 	0
0.9879586658 	0 	0 	0 	1.507833347 	-0.004364633963 	2.375952786e-08 	0 	0 	0
0.9883756487 	0 	0 	0 	1.491685374 	-0.004147341281 	2.014858033e-08 	0 	0 	0
0.9887849493 	0 	0 	0 	1.475250783 	-0.003936098866 	1.675740596e-08 	0 	0 	0
0.9891867089 	0 	0 	0 	1.458503723 	-0.003730821608 	1.358850316e-08 	0 	0 	0
0.9895810663 	0 	0 	0 	1.441415224 	-0.003531424556 	1.064339883e-08 	0 	0 	0
0.9899681576 	0 	0 	0 	1.423952748 	-0.003337823086 	7.922713894e-09 	0 	0 	0
0.9903481166 	0 	0 	0 	1.40607965 	-0.003149934171 	5.426223621e-09 	0 	0 	0
0.9907210746 	0 	0 	0 	1.387754544 	-0.00296766933 	3.152903506e-09 	0 	0 	0
0.9910871604 	0 	0 	0 	1.368930523 	-0.002790944744 	1.101008848e-09 	0 	0 	0
0.9912986501 	0 	0 	0 	1.357526461 	-0.00269015591 	3.092620571e-06 	0 	0 	0
0.9914464996 	0 	0 	0 	1.349554274 	-0.002619695281 	8.137162843e-10 	0 	0 	0
0.9917992161 	0 	0 	0 	1.329565238 	-0.002453274489 	2.607234517e-09 	0 	0 	0
0.9921454333 	0 	0 	0 	1.308894072 	-0.002293305923 	4.161942743e-09 	0 	0 	0
0.9924852705 	0 	0 	0 	1.2893221 	-0.002151946023 	5.514752839e-09 	0 	0 	0
0.9927039924 	0 	0 	0 	1.272896226 	-0.002038637237 	6.222181477e-09 	0 	0 	0
0.9929227172 	0 	0 	0 	1.257853523 	-0.001940544669 	6.873563758e-09 	0 	0 	0
0.993141445 	0 	0 	0 	1.242177664 	-0.001844132751 	7.438417936e-09 	0 	0 	0
0.9933601758 	0 	0 	0 	1.225807615 	-0.001748498164 	7.914162184e-09 	0 	0 	0
0.9935789096 	0 	0 	0 	1.208673801 	-0.001653953426 	8.30055956e-09 	0 	0 	0
0.9937976463 	0 	0 	0 	1.190696508 	-0.001560525982 	8.597443592e-09 	0 	0 	0
0.9940163861 	0 	0 	0 	1.171783683 	-0.001468249916 	8.804964774e-09 	0 	0 	0
0.9942351288 	0 	0 	0 	1.151828618 	-0.00137716102 	8.923707167e-09 	0 	0 	0
0.9944538745 	0 	0 	0 	1.130707116 	-0.00128729235 	8.954724185e-09 	0 	0 	0
0.9946726231 	0 	0 	0 	1.10827407 	-0.001198678294 	8.899644351e-09 	0 	0 	0
0.9948913747 	0 	0 	0 	1.084359337 	-0.001111355061 	8.760798553e-09 	0 	0 	0
0.9951101294 	0 	0 	0 	1.058762817 	-0.00102536324 	8.541391161e-09 	0 	0 	0
0.995328887 	0 	0 	0 	1.031248651 	-0.0009407540262 	8.245744958e-09 	0 	0 	0
0.9955476475 	0 	0 	0 	1.001538532 	-0.0008576030949 	7.879660654e-09 	0 	0 	0
0.9957664111 	0 	0 	0 	0.9693042849 	-0.0007760399829 	7.450937913e-09 	0 	0 	0
0.9959851776 	0 	0 	0 	0.9341602113 	-0.0006963077167 	6.970055496e-09 	0 	0 	0
0.9962039471 	0 	0 	0 	0.895656377 	-0.000618877791 	6.450729869e-09 	0 	0 	0
0.9964227196 	0 	0 	0 	0.8532753886 	-0.0005446515212 	5.908829477e-09 	0 	0 	0
0.996641495 	0 	0 	0 	0.8064378444 	-0.0004752077984 	5.353683216e-09 	0 	0 	0
0.9968602735 	0 	0 	0 	0.754526641 	-0.0004126195787 	4.759385023e-09 	0 	0 	0
0.9970790549 	0 	0 	0 	0.6969489632 	-0.0003573472544 	4.027606461e-09 	0 	0 	0
0.9972978393 	0 	0 	0 	0.633265235 	-0.0003034457377 	3.061276154e-09 	0 	0 	0
0.9975166266 	0 	0 	0 	0.5634094739 	-0.0002382500168 	2.05203275e-09 	0 	0 	0
0.997735417 	0 	0 	0 	0.4879595868 	-0.0001583380487 	1.501397345e-09 	0 	0 	0
0.9979542103 	0 	0 	0 	0.4082653703 	-8.459123772e-05 	1.488427759e-09 	0 	0 	0
0.9981730066 	0 	0 	0 	0.3261796493 	-4.067837151e-05 	1.405567063e-09 	0 	0 	0
0.9983918059 	0 	0 	0 	0.2434472687 	-2.288649688e-05 	9.288381257e-10 	0 	0 	0
0.9986106081 	0 	0 	0 	0.1612182167 	-1.280501507e-05 	3.897231831e-10 	0 	0 	0
0.9988294134 	0 	0 	0 	0.0800161405 	-8.921604403e-06 	9.105807551e-11 	0 	0 	0
0.9990482216 	-0.001964107347 	7.416519095e-07 	-1.003663319e-11 	0.03324110472 	-8.496516307e-06 	1.204535358e-11 	59.07978181 	-0.01508654042 	1.789660962e-07
