0.4709558481 	4.144196458e-06 	-2.999242716e-08 	4.786348869e-13 	4.136311689e-06 	-4.721237192e-11 	7.884959708e-09
0.4711314108 	4.651858842e-05 	-1.312518605e-06 	2.090475927e-11 	4.643023823e-05 	-5.298635185e-10 	8.850893868e-08
0.4713069734 	0.0002587200056 	-1.688603912e-05 	2.66610329e-10 	0.0002582322397 	-2.941105435e-09 	4.922624207e-07
0.471482536 	0.0008535957633 	-0.0001010942818 	1.558829754e-09 	0.0008519869327 	-9.625672286e-09 	1.624123891e-06
0.4716580986 	0.002058652638 	-0.0003768393689 	5.550043129e-09 	0.002054619001 	-2.273905694e-08 	3.916674868e-06
0.4718336613 	0.004015165039 	-0.001003917396 	1.377532294e-08 	0.004006781142 	-4.266975947e-08 	7.638038483e-06
0.4720092239 	0.006688892259 	-0.002076825707 	2.599074717e-08 	0.006674658649 	-6.716297222e-08 	1.272375451e-05
0.4721847865 	0.009866222634 	-0.003545718497 	3.994814742e-08 	0.009846312173 	-9.237318531e-08 	1.876980764e-05
0.4723603491 	0.01325310155 	-0.005247075046 	5.304693978e-08 	0.01322820119 	-1.149948691e-07 	2.521662806e-05
0.4725359118 	0.01659048508 	-0.006998665759 	6.377878564e-08 	0.01656004241 	-1.334601408e-07 	3.156804345e-05
0.4727114744 	0.01970970311 	-0.008665834304 	7.18221837e-08 	0.01967203449 	-1.476543985e-07 	3.75003653e-05
0.472887037 	0.02252908222 	-0.0101746858 	7.749905759e-08 	0.02248402919 	-1.583391299e-07 	4.286080874e-05
0.4730625996 	0.02502713716 	-0.01149949412 	8.144584728e-08 	0.02497765661 	-1.663225192e-07 	4.761435569e-05
0.4732381623 	0.02721740784 	-0.01261620622 	8.218559849e-08 	0.02716302923 	-1.71939951e-07 	5.178028329e-05
0.4734137249 	0.02913036024 	-0.0135312893 	8.216047216e-08 	0.02906753958 	-1.760977382e-07 	5.541080935e-05
0.4735892875 	0.03079965333 	-0.01430651974 	8.364821427e-08 	0.03073091395 	-1.794673754e-07 	5.858166321e-05
0.4737648501 	0.03225596129 	-0.0149828002 	8.468031563e-08 	0.03218516419 	-1.817139231e-07 	6.135386835e-05
0.4739404128 	0.03352716795 	-0.0155730973 	8.536231437e-08 	0.03345371949 	-1.830503511e-07 	6.377208733e-05
0.4741159754 	0.03463855347 	-0.0160891831 	8.577463961e-08 	0.0345616294 	-1.838833253e-07 	6.588407154e-05
0.474291538 	0.0356123825 	-0.01654129 	8.596692952e-08 	0.03553226124 	-1.842595313e-07 	6.773436561e-05
0.4744671006 	0.03646791534 	-0.01693835315 	8.598593842e-08 	0.03638484157 	-1.842641374e-07 	6.935962067e-05
0.4746426632 	0.0372216445 	-0.01728814451 	8.587068111e-08 	0.03713579147 	-1.839654189e-07 	7.07911399e-05
0.4748182259 	0.03788761578 	-0.01759717626 	8.563902923e-08 	0.03779910553 	-1.834189593e-07 	7.205560086e-05
0.4749937885 	0.0384777662 	-0.01787098524 	8.530870402e-08 	0.03838628564 	-1.827276412e-07 	7.317492934e-05
0.4751693511 	0.03900223887 	-0.01811428007 	8.489294793e-08 	0.03890816392 	-1.817098943e-07 	7.41697744e-05
0.4753449137 	0.03946967264 	-0.0183310735 	8.440100756e-08 	0.0393744915 	-1.80402152e-07 	7.505872438e-05
0.4755204764 	0.03988750921 	-0.01851460447 	8.553737302e-08 	0.03979035732 	-1.793605748e-07 	7.585148022e-05
0.475696039 	0.04026216568 	-0.01866513431 	8.649367974e-08 	0.04016171833 	-1.781181942e-07 	7.655939751e-05
0.4758716016 	0.04059897339 	-0.01879670474 	8.581389088e-08 	0.04049548683 	-1.763271469e-07 	7.719565304e-05
0.4760471642 	0.04090229242 	-0.01891467854 	8.532493716e-08 	0.04079577034 	-1.74650827e-07 	7.776807687e-05
0.4762227269 	0.04121170319 	-0.01904473354 	8.47530763e-08 	0.04110444874 	-1.727979657e-07 	7.835650369e-05
0.4764955107 	0.04155062926 	-0.01918448363 	8.397088897e-08 	0.04144230445 	-1.702320808e-07 	7.900055057e-05
0.4767734216 	0.04187401117 	-0.01930544581 	8.300320344e-08 	0.04176099071 	-1.67223084e-07 	7.960805517e-05
0.4770565557 	0.04215367002 	-0.01940817911 	8.196043746e-08 	0.04203684864 	-1.640142962e-07 	8.013391704e-05
0.4773450114 	0.04239451876 	-0.01949508131 	8.08505935e-08 	0.0422751963 	-1.606116166e-07 	8.058827394e-05
0.4776388886 	0.04260073763 	-0.01956849801 	7.96763806e-08 	0.04247829642 	-1.570122261e-07 	8.097543922e-05
0.4779382892 	0.0427758889 	-0.01963017971 	7.843698018e-08 	0.04265031943 	-1.532204804e-07 	8.130336287e-05
0.4782433171 	0.04292301505 	-0.01968135606 	7.712952543e-08 	0.04279428449 	-1.492380212e-07 	8.157780029e-05
0.4785540779 	0.04304472542 	-0.0197230892 	7.57508508e-08 	0.04291279658 	-1.45065514e-07 	8.180371728e-05
0.4788706795 	0.04314326599 	-0.01975628426 	7.429771754e-08 	0.04300810537 	-1.407028993e-07 	8.198540232e-05
0.4791932316 	0.04322057648 	-0.01978171618 	7.276685814e-08 	0.04308214509 	-1.361494423e-07 	8.212654261e-05
0.4795218461 	0.04327833712 	-0.01980005069 	7.115496571e-08 	0.04313659206 	-1.314038803e-07 	8.223033366e-05
0.4798566368 	0.04331800727 	-0.0198118603 	6.945866206e-08 	0.04317290205 	-1.264644988e-07 	8.22995506e-05
0.48019772 	0.04334085748 	-0.01981763838 	6.767446807e-08 	0.04319234224 	-1.213291899e-07 	8.233660901e-05
0.4805452138 	0.04334799617 	-0.01981781076 	6.579877211e-08 	0.0431960179 	-1.159954989e-07 	8.234361583e-05
0.4808992388 	0.04334039201 	-0.01981274524 	6.382779779e-08 	0.04318489466 	-1.104606612e-07 	8.232241185e-05
0.4812599177 	0.04331889275 	-0.01980275945 	6.175756608e-08 	0.04315981736 	-1.04721635e-07 	8.227460755e-05
0.4816273755 	0.04328424111 	-0.01978812725 	5.958384759e-08 	0.04312152589 	-9.877512623e-08 	8.220161336e-05
0.4820017397 	0.04323708831 	-0.01976908406 	5.730211166e-08 	0.04307066869 	-9.261761289e-08 	8.210466539e-05
0.48238314 	0.04317800557 	-0.01974583123 	5.490747075e-08 	0.04300781424 	-8.624536791e-08 	8.198484734e-05
0.4827717088 	0.04310749396 	-0.01971853962 	5.239461709e-08 	0.04293346094 	-7.96544817e-08 	8.184310929e-05
0.4831675807 	0.04302599289 	-0.01968735256 	4.975775601e-08 	0.04284804558 	-7.284088581e-08 	8.168028387e-05
0.4835708931 	0.04293388746 	-0.01965238824 	4.699053953e-08 	0.04275195065 	-6.580037969e-08 	8.149710023e-05
0.4839817856 	0.04283151479 	-0.01961374162 	4.408600671e-08 	0.04264551074 	-5.852866205e-08 	8.129419618e-05
0.4844004009 	0.04271916958 	-0.01957148595 	4.103654107e-08 	0.04252901809 	-5.102136897e-08 	8.107212881e-05
0.4848268841 	0.04259710897 	-0.01952567389 	3.783386013e-08 	0.04240272745 	-4.327411984e-08 	8.083138374e-05
0.485261383 	0.04246555686 	-0.01947633829 	3.446905599e-08 	0.04226686041 	-3.528257215e-08 	8.057238341e-05
0.4857040484 	0.04232470764 	-0.01942349271 	3.093270743e-08 	0.04212160923 	-2.704248603e-08 	8.029549428e-05
0.4861550336 	0.04217472967 	-0.01936713158 	2.721508098e-08 	0.04196714022 	-1.854979641e-08 	8.000103341e-05
0.4866144951 	0.04201576822 	-0.01930723005 	2.330641886e-08 	0.04180359684 	-9.800685854e-09 	7.968927428e-05
0.4870825921 	0.04184794832 	-0.01924374356 	1.919729931e-08 	0.04163110253 	-7.917138881e-10 	7.93604522e-05
0.487559487 	0.04167137722 	-0.01917660694 	1.48790133e-08 	0.04144976334 	8.480149128e-09 	7.901476929e-05
0.4880453452 	0.04148614671 	-0.01910573319 	1.034386994e-08 	0.04125967045 	1.801732663e-08 	7.865239942e-05
0.4885403351 	0.04129233535 	-0.01903101391 	5.587473773e-09 	0.04106090587 	2.781848159e-08 	7.827349888e-05
0.4890446283 	0.04109001048 	-0.01895232416 	6.126441737e-10 	0.04085353637 	3.789086364e-08 	7.787819498e-05
0.4895583997 	0.04087923024 	-0.01886954062 	-4.558308481e-09 	0.04063762569 	4.822996766e-08 	7.746660921e-05
0.4900818274 	0.04066004556 	-0.01878267629 	-9.768487335e-09 	0.04041333026 	5.873922425e-08 	7.703903977e-05
0.4906150929 	0.04043250176 	-0.01869185117 	-1.492328619e-08 	0.04017992981 	7.03379939e-08 	7.659411364e-05
0.4911583811 	0.04019663605 	-0.01859731233 	-1.988844194e-08 	0.03993811412 	8.143975484e-08 	7.613314574e-05
0.4917118805 	0.03995248239 	-0.01850183491 	-2.21138609e-08 	0.03968982413 	9.100206888e-08 	7.565983601e-05
0.4922757829 	0.03969988447 	-0.01839549853 	-3.527474612e-08 	0.03943221689 	1.04164567e-07 	7.516876501e-05
0.4928502838 	0.03943850154 	-0.01827398479 	-5.159620712e-08 	0.03916373332 	1.188442527e-07 	7.465696071e-05
0.4934355824 	0.03916798768 	-0.01814680182 	-5.77242475e-08 	0.03888718465 	1.307221736e-07 	7.412978207e-05
0.4940318817 	0.03888800303 	-0.01801520286 	-6.412960222e-08 	0.03860194912 	1.439439237e-07 	7.358604388e-05
0.4946393885 	0.03859823687 	-0.01787904484 	-7.080399859e-08 	0.03830643414 	1.58944479e-07 	7.30227102e-05
0.4952583133 	0.03829838989 	-0.01773819192 	-7.773795361e-08 	0.03800073689 	1.738988251e-07 	7.243996626e-05
0.4958888709 	0.03798816955 	-0.01759251018 	-8.493135357e-08 	0.03768466873 	1.893793504e-07 	7.183745252e-05
0.4965312797 	0.03766729152 	-0.01744186822 	-9.238567435e-08 	0.03735794325 	2.054427879e-07 	7.121462294e-05
0.4971857627 	0.03733547586 	-0.01728613654 	-1.00105738e-07 	0.03702027646 	2.221016524e-07 	7.057093619e-05
0.4978525466 	0.03699244386 	-0.01712518665 	-1.080986235e-07 	0.03667139425 	2.393603929e-07 	6.990586972e-05
0.4985318627 	0.03663791606 	-0.01695889029 	-1.163725765e-07 	0.03631102495 	2.572264927e-07 	6.921890569e-05
0.4992239466 	0.03627161111 	-0.01678711894 	-1.249364223e-07 	0.03593889723 	2.757076394e-07 	6.850952682e-05
0.4999290382 	0.035893245 	-0.01660974328 	-1.337996048e-07 	0.03555473887 	2.948153172e-07 	6.777721422e-05
0.5006473819 	0.03550252981 	-0.01642663253 	-1.429726289e-07 	0.03515827523 	3.145672957e-07 	6.702144433e-05
0.501379227 	0.03509917105 	-0.01623765333 	-1.524676076e-07 	0.03474922689 	3.34987989e-07 	6.62416845e-05
0.502124827 	0.03468286296 	-0.01604266775 	-1.622986671e-07 	0.03432730651 	3.561073122e-07 	6.543738699e-05
0.5028844406 	0.03425328032 	-0.01584153004 	-1.724821237e-07 	0.03389221324 	3.77959246e-07 	6.46079783e-05
0.5036583311 	0.03381006572 	-0.01563408139 	-1.830365173e-07 	0.03344361571 	4.005818362e-07 	6.375282672e-05
0.5044467669 	0.03335281124 	-0.01542014186 	-1.939826889e-07 	0.03298111222 	4.240200872e-07 	6.287116652e-05
0.5052500214 	0.03288103336 	-0.01519949994 	-2.05343956e-07 	0.03250429903 	4.483200659e-07 	6.196222805e-05
0.506068373 	0.03233108698 	-0.01494243049 	-2.186798693e-07 	0.03194914702 	4.768063671e-07 	6.090395403e-05
0.507324668 	0.03163446374 	-0.01461696179 	-2.357289164e-07 	0.03124664317 	5.131995516e-07 	5.956478644e-05
0.5085949819 	0.03085090605 	-0.01425106684 	-2.55119371e-07 	0.03045715562 	5.545771922e-07 	5.805980375e-05
0.5098794711 	0.03004295136 	-0.0138740091 	-2.753373366e-07 	0.02964403579 	5.976813502e-07 	5.650977135e-05
0.5111782938 	0.02920984807 	-0.01348547552 	-2.963293397e-07 	0.02880677102 	6.423742018e-07 	5.491371199e-05
0.5124916099 	0.02835105856 	-0.01308525442 	-3.178195393e-07 	0.02794494346 	6.881051465e-07 	5.327082913e-05
0.5138195812 	0.02746740407 	-0.01267376634 	-3.386995487e-07 	0.02705945574 	7.325093157e-07 	5.158284342e-05
0.5151623712 	0.02656357171 	-0.0122532212 	-3.567493445e-07 	0.02615510147 	7.707140511e-07 	4.985889284e-05
0.5165201452 	0.02564902991 	-0.01182803218 	-3.7004936e-07 	0.0252415101 	7.984760993e-07 	4.811733376e-05
0.5178930705 	0.02473545805 	-0.01140361177 	-3.77944328e-07 	0.02433043769 	8.144208696e-07 	4.638057654e-05
0.5192813161 	0.02383461105 	-0.01098537199 	-3.802645646e-07 	0.02343343656 	8.18492201e-07 	4.467064306e-05
0.520685053 	0.02295803072 	-0.01057855678 	-3.770589084e-07 	0.02255893002 	8.187396699e-07 	4.300359054e-05
0.522104454 	0.02211622655 	-0.01018798634 	-3.686768504e-07 	0.02171889125 	7.921528272e-07 	4.140224317e-05
0.523539694 	0.02131708143 	-0.0098173668 	-3.566634644e-07 	0.02093297752 	7.447104988e-07 	3.990407317e-05
0.5249909497 	0.0205617208 	-0.009413633313 	-5.067484846e-07 	0.02019216862 	7.47784949e-07 	3.849188551e-05
0.5264583998 	0.0198421144 	-0.008908157233 	-6.190431073e-07 	0.01947014845 	7.517193934e-07 	3.711551439e-05
0.527942225 	0.01915112701 	-0.008373942783 	-5.628697518e-07 	0.01877969776 	7.138736662e-07 	3.579932348e-05
0.5294426081 	0.01848851631 	-0.007878904442 	-5.436250363e-07 	0.01813202954 	7.014131908e-07 	3.456468783e-05
0.5309597337 	0.01785581199 	-0.007402453921 	-5.309665702e-07 	0.01751156904 	6.989505757e-07 	3.338191767e-05
0.5324937889 	0.0172543225 	-0.006942546637 	-5.22716539e-07 	0.01691808862 	6.810517936e-07 	3.225057905e-05
0.5340449624 	0.01668524781 	-0.006498282222 	-5.162568616e-07 	0.0163582657 	6.61759314e-07 	3.118340097e-05
0.5356134452 	0.01614973244 	-0.006070004059 	-5.085512047e-07 	0.01583233874 	6.393372012e-07 	3.018083801e-05
0.5371994306 	0.01564874499 	-0.005658715162 	-4.989769915e-07 	0.01534120071 	6.139379147e-07 	2.924459242e-05
0.5388031139 	0.01518301635 	-0.00526508051 	-4.874820208e-07 	0.0148854755 	5.858284128e-07 	2.837585351e-05
0.5404246925 	0.01475298987 	-0.00488942461 	-4.742703915e-07 	0.01446551942 	5.552803799e-07 	2.757530049e-05
0.5420643661 	0.01435878721 	-0.004531782647 	-4.596602498e-07 	0.0140814019 	5.226832583e-07 	2.684306575e-05
0.5437223366 	0.01400019645 	-0.004191950853 	-4.439912602e-07 	0.01373286238 	4.884644923e-07 	2.617865254e-05
0.5453988083 	0.01367668605 	-0.003869529032 	-4.275957938e-07 	0.01341932353 	4.530604422e-07 	2.558096035e-05
0.5470939875 	0.01338744646 	-0.003563963032 	-4.107587655e-07 	0.0131399373 	4.16900102e-07 	2.504837255e-05
0.5488080831 	0.01313145574 	-0.003274586608 	-3.937361455e-07 	0.0128936182 	3.803974072e-07 	2.457881988e-05
0.5505413061 	0.01290755927 	-0.003000681085 	-3.76558855e-07 	0.01267915452 	3.437955934e-07 	2.41699925e-05
0.5522938699 	0.01271458731 	-0.002741773883 	-3.590968911e-07 	0.01249541473 	3.070497894e-07 	2.381973339e-05
0.5540659904 	0.01255164351 	-0.002496839461 	-3.42835234e-07 	0.01234152014 	2.700849632e-07 	2.352636754e-05
0.5558578859 	0.01241772545 	-0.002263735627 	-3.287151313e-07 	0.01221642616 	2.337272404e-07 	2.328790364e-05
0.5576697768 	0.01231079084 	-0.002040925999 	-3.153055835e-07 	0.01211816943 	1.994761332e-07 	2.310059901e-05
0.5595018865 	0.01222796891 	-0.001827763095 	-3.022947058e-07 	0.0120440052 	1.681491987e-07 	2.295922138e-05
0.5613544406 	0.01216639813 	-0.001623384266 	-2.902446719e-07 	0.01199108235 	1.397945905e-07 	2.28583357e-05
0.563227667 	0.01212351108 	-0.001426787779 	-2.791529221e-07 	0.01195681762 	1.141824712e-07 	2.27930176e-05
0.5651217966 	0.01209702532 	-0.001237062602 	-2.689703936e-07 	0.01193895441 	9.107595822e-08 	2.275896537e-05
0.5670370626 	0.01208492326 	-0.001053384392 	-2.596360014e-07 	0.01193550304 	7.028140379e-08 	2.27523861e-05
0.5689737009 	0.01208542976 	-0.0008750144453 	-2.510832318e-07 	0.01194470968 	5.159640809e-08 	2.276993651e-05
0.5709319499 	0.01209698876 	-0.0007012940397 	-2.43245483e-07 	0.01196503781 	3.482600719e-08 	2.280868757e-05
0.5729120508 	0.01211824026 	-0.0005316377456 	-2.360581279e-07 	0.01199514524 	1.978624739e-08 	2.28660807e-05
0.5749142474 	0.01214799832 	-0.0003655266197 	-2.294601872e-07 	0.01203386173 	6.306794129e-09 	2.29398851e-05
0.5769387863 	0.01218523055 	-0.0002024992887 	-2.233951858e-07 	0.01208016963 	-5.768541651e-09 	2.302816082e-05
0.5789859169 	0.01222903933 	-4.216989776e-05 	-2.178130195e-07 	0.01213318311 	-1.658305879e-08 	2.312921925e-05
0.5810558911 	0.01227864477 	0.0001158206017 	-2.126662055e-07 	0.01219213161 	-2.626823669e-08 	2.324159148e-05
0.583148964 	0.01233336944 	0.0002718355613 	-2.079091745e-07 	0.01225634825 	-3.493832629e-08 	2.336400623e-05
0.5852653933 	0.01239262528 	0.0004261551528 	-2.035037827e-07 	0.01232525206 	-4.269328902e-08 	2.349535605e-05
0.5874054395 	0.01245590176 	0.0005790074339 	-1.994167172e-07 	0.0123983371 	-4.962814701e-08 	2.363467646e-05
0.5895693664 	0.0125227551 	0.0007306178235 	-1.956162949e-07 	0.01247516446 	-5.582840369e-08 	2.378113076e-05
0.5917574402 	0.01259279955 	0.000881185178 	-1.920726967e-07 	0.01255535133 	-6.136794695e-08 	2.393398921e-05
0.5939699306 	0.01266569952 	0.001030887032 	-1.887576376e-07 	0.01263856364 	-6.631166991e-08 	2.4092615e-05
0.5962071099 	0.01274116291 	0.001179882002 	-1.856444548e-07 	0.0127245093 	-7.071314208e-08 	2.425645132e-05
0.5984692536 	0.01281893517 	0.001328311983 	-1.827091393e-07 	0.01281293241 	-7.46143356e-08 	2.442501034e-05
0.6007566404 	0.01289879351 	0.001476304265 	-1.799275693e-07 	0.01290360883 	-7.804919306e-08 	2.459786481e-05
0.6030695519 	0.01298054127 	0.001623975891 	-1.772637545e-07 	0.01299634254 	-8.105182092e-08 	2.477464102e-05
0.6054082729 	0.01306400401 	0.001771431463 	-1.747194056e-07 	0.01309096104 	-8.36725219e-08 	2.495501018e-05
0.6077730914 	0.01314902814 	0.001918758797 	-1.722927799e-07 	0.01318730978 	-8.593724756e-08 	2.513867765e-05
0.6101642987 	0.01323547885 	0.002066035996 	-1.699440409e-07 	0.01328525068 	-8.790002335e-08 	2.532538023e-05
0.6125821893 	0.01332323874 	0.002213324921 	-1.676527234e-07 	0.01338466322 	-8.95773365e-08 	2.551488817e-05
0.6150270608 	0.01341220241 	0.002360684394 	-1.654428205e-07 	0.01348543502 	-9.093263154e-08 	2.570698723e-05
0.6174992144 	0.01350227298 	0.002508185998 	-1.633334684e-07 	0.01358746491 	-9.204354445e-08 	2.590148456e-05
0.6199989545 	0.01359336421 	0.002655886493 	-1.612944343e-07 	0.01369066854 	-9.293092742e-08 	2.609821936e-05
0.622526589 	0.01368539835 	0.00280382475 	-1.593053537e-07 	0.01379496397 	-9.356980539e-08 	2.629703545e-05
0.625082429 	0.01377830404 	0.00295203567 	-1.573596015e-07 	0.01390027355 	-9.399038328e-08 	2.649778477e-05
0.6276667894 	0.01387201553 	0.003100548972 	-1.554482574e-07 	0.01400652842 	-9.420318273e-08 	2.670033608e-05
0.6302799884 	0.01396647177 	0.00324938868 	-1.535621676e-07 	0.01411366353 	-9.421781193e-08 	2.690456539e-05
0.6329223478 	0.01406161563 	0.003398573145 	-1.516918562e-07 	0.01422161767 	-9.404244552e-08 	2.711035597e-05
0.6355941931 	0.01415739332 	0.003548114969 	-1.498278599e-07 	0.01433033267 	-9.368412612e-08 	2.731759697e-05
0.6382958531 	0.01425375369 	0.003698020966 	-1.479609001e-07 	0.01443975291 	-9.314882772e-08 	2.752618237e-05
0.6410276607 	0.01435064786 	0.00384829208 	-1.460818936e-07 	0.01454982479 	-9.244171378e-08 	2.773600997e-05
0.6437899523 	0.01444802867 	0.003998923215 	-1.441818555e-07 	0.01466049631 	-9.156734298e-08 	2.794698063e-05
0.646583068 	0.01454585046 	0.004149903011 	-1.422517428e-07 	0.01477171669 	-9.052981249e-08 	2.815899759e-05
0.6494073518 	0.01464406871 	0.004301213511 	-1.402822711e-07 	0.0148834361 	-8.933284708e-08 	2.837196585e-05
0.6522631514 	0.01474263984 	0.004452829753 	-1.382637245e-07 	0.01499560541 	-8.797985126e-08 	2.858579173e-05
0.6551508186 	0.01484152111 	0.004604719244 	-1.361857698e-07 	0.01510817594 	-8.64739388e-08 	2.880038244e-05
0.658070709 	0.0149406705 	0.004756841326 	-1.340372799e-07 	0.01522109934 	-8.481795065e-08 	2.901564582e-05
0.6610231822 	0.01504004667 	0.004909146404 	-1.31806165e-07 	0.01533432742 	-8.301446766e-08 	2.923149002e-05
0.6640086017 	0.01513960903 	0.005061575023 	-1.29479213e-07 	0.01544781212 	-8.106582155e-08 	2.94478234e-05
0.6670273351 	0.01523931778 	0.005214056758 	-1.270419385e-07 	0.01556150538 	-7.897410436e-08 	2.966455435e-05
0.6700797543 	0.01533913409 	0.005366508887 	-1.244784482e-07 	0.01567535917 	-7.67411805e-08 	2.988159132e-05
0.6731662352 	0.01543902029 	0.005518834754 	-1.217713378e-07 	0.01578932548 	-7.4368701e-08 	3.009884278e-05
0.6762871577 	0.01553894013 	0.005670921935 	-1.189016157e-07 	0.01590335638 	-7.185811961e-08 	3.031621737e-05
0.6794429063 	0.0156388591 	0.00582263997 	-1.158487162e-07 	0.01601740407 	-6.921072388e-08 	3.053362397e-05
0.6826338695 	0.01573874479 	0.005973837947 	-1.125906256e-07 	0.0161314211 	-6.642768503e-08 	3.075097212e-05
0.6858604404 	0.01583856728 	0.006124341354 	-1.091042249e-07 	0.01624536055 	-6.35101493e-08 	3.096817237e-05
0.6891230163 	0.01593829971 	0.006273948165 	-1.053659757e-07 	0.01635917615 	-6.045939983e-08 	3.118513654e-05
0.6924219988 	0.01603791872 	0.006422424693 	-1.013530847e-07 	0.01647282274 	-5.727712085e-08 	3.140177852e-05
0.6957577944 	0.01613740501 	0.006569500702 	-9.704549095e-08 	0.01658625672 	-5.396584642e-08 	3.161801523e-05
0.6991308138 	0.01623674384 	0.006714863804 	-9.24291558e-08 	0.01669943675 	-5.052970282e-08 	3.183376782e-05
0.7025414724 	0.01633592539 	0.006858153245 	-8.75013616e-08 	0.01681232464 	-4.697557563e-08 	3.204896352e-05
0.7059901901 	0.01643494493 	0.006998953293 	-8.227894115e-08 	0.01692488672 	-4.331483727e-08 	3.226353811e-05
0.7094773917 	0.01653380261 	0.00713678664 	-7.68103781e-08 	0.01703709568 	-3.956566824e-08 	3.247743958e-05
0.7130035066 	0.01663250266 	0.00727110856 	-7.119240401e-08 	0.01714893331 	-3.575570081e-08 	3.269063318e-05
0.7165689691 	0.01673105168 	0.007401303026 	-6.55916391e-08 	0.01726039414 	-3.192459149e-08 	3.290310851e-05
0.7201742182 	0.01682945573 	0.007526682656 	-6.02738023e-08 	0.01737149017 	-2.812452695e-08 	3.311488842e-05
0.7238196978 	0.01692771547 	0.007646495861 	-5.564965796e-08 	0.01748225808 	-2.44164853e-08 	3.332604285e-05
0.727505857 	0.0170258177 	0.00775994572 	-5.237090774e-08 	0.01759276705 	-2.087879538e-08 	3.353670365e-05
0.7312331497 	0.01712371874 	0.007866220468 	-5.150884662e-08 	0.01770313226 	-1.755470717e-08 	3.374709041e-05
0.7350020349 	0.01722105573 	0.007964291129 	-5.475019726e-08 	0.01781327751 	-1.449170409e-08 	3.395705788e-05
0.7387709215 	0.01731681511 	0.008052707096 	-6.451904308e-08 	0.01792266431 	-1.217731981e-08 	3.416557951e-05
0.7424982157 	0.01740988953 	0.008130181317 	-8.186138144e-08 	0.0180311062 	-9.243952187e-09 	3.43722999e-05
0.7461843763 	0.01749975167 	0.008196423146 	-1.016406806e-07 	0.01813980336 	-1.26382535e-08 	3.457950689e-05
0.7498298574 	0.01758657679 	0.008252013481 	-1.135262601e-07 	0.01824680497 	-4.188425791e-08 	3.47834817e-05
0.7534351078 	0.01767161494 	0.00830044309 	-5.113339414e-08 	0.01834916604 	-8.402603367e-08 	3.497861036e-05
0.7570005716 	0.01776065157 	0.008362217835 	1.056506716e-07 	0.01844541479 	-1.619222669e-07 	3.516208723e-05
0.7605266877 	0.01787191175 	0.008433656715 	1.169392464e-07 	0.01851888808 	-3.33430347e-07 	3.530214774e-05
0.7640138905 	0.01801905069 	0.008489614145 	3.865180185e-08 	0.01855595033 	-4.387040206e-07 	3.537279869e-05
0.7674626093 	0.01818355599 	0.008535824165 	3.941166181e-08 	0.01857998722 	-2.695402357e-07 	3.541861967e-05
0.770873269 	0.01832487335 	0.008581594223 	3.33790185e-08 	0.01863234128 	1.427464168e-07 	3.551842107e-05
0.7742462894 	0.01840721901 	0.008625881124 	1.742287343e-08 	0.01874393193 	6.492082456e-07 	3.573114386e-05
0.777582086 	0.01841776042 	0.008667221955 	-9.196598339e-09 	0.01892278222 	1.010425276e-06 	3.607208223e-05
0.7808810695 	0.01837874956 	0.008703587881 	-7.028489957e-08 	0.0191418648 	9.524324517e-07 	3.648971451e-05
0.7841436462 	0.01834536599 	0.008733137132 	-5.630529212e-08 	0.01934342656 	4.412131356e-07 	3.687394725e-05
0.787370218 	0.01837989627 	0.00876569198 	9.236691333e-08 	0.01947133316 	-3.205224624e-07 	3.711777278e-05
0.7905611821 	0.01851712104 	0.008813725224 	1.367912956e-07 	0.01950093291 	-1.038700441e-06 	3.717419813e-05
0.7937169314 	0.0187430881 	0.00886613908 	8.877300866e-08 	0.01944933278 	-1.31288958e-06 	3.707583394e-05
0.7968378547 	0.01899811204 	0.008913396099 	7.771058497e-08 	0.0193761192 	-9.333749391e-07 	3.69362685e-05
0.7999243362 	0.01920726184 	0.008958699615 	6.512843572e-08 	0.01935458752 	-6.778051113e-08 	3.689522315e-05
0.8029767561 	0.01931607861 	0.009001860255 	4.383043818e-08 	0.01943473142 	1.003036765e-06 	3.704799968e-05
0.8059954902 	0.01930896259 	0.009041999495 	-1.930391e-09 	0.01962501879 	1.810363409e-06 	3.741074031e-05
0.8089809102 	0.01921767887 	0.009071991364 	-2.774877126e-07 	0.01988910777 	1.840956886e-06 	3.79141673e-05
0.8119333839 	0.01911099375 	0.009102858746 	-2.780083229e-07 	0.02016029442 	1.169984823e-06 	3.843112444e-05
0.8148532749 	0.01907483538 	0.009140390381 	1.514942474e-08 	0.02035333717 	3.397554763e-08 	3.879911755e-05
0.8177409426 	0.01918187069 	0.009181317113 	9.720238649e-08 	0.02040550696 	-1.228809917e-06 	3.889856769e-05
0.8205967427 	0.01943953596 	0.009231339615 	1.267757522e-07 	0.02032511362 	-1.92091846e-06 	3.874531563e-05
0.8234210268 	0.0197738666 	0.009284022645 	1.07889014e-07 	0.02018629936 	-1.736165446e-06 	3.848069706e-05
0.8262141429 	0.02007576204 	0.009334505967 	9.265176715e-08 	0.02009003909 	-8.229880253e-07 	3.829719825e-05
0.8289764348 	0.02025473922 	0.009382835963 	8.667059948e-08 	0.02011958831 	4.9260295e-07 	3.835352728e-05
0.8317082427 	0.02026359416 	0.009428294438 	4.43226501e-08 	0.02031238297 	1.767078907e-06 	3.872104747e-05
0.8344099031 	0.020123996 	0.009463228362 	-1.596242175e-07 	0.02064086518 	2.325214325e-06 	3.934722586e-05
0.8370817486 	0.01994628469 	0.009445923753 	-8.886312827e-07 	0.02098752898 	1.612934734e-06 	4.000806342e-05
0.8397241082 	0.01985639988 	0.009356315905 	-8.369465392e-07 	0.0212174262 	5.132510736e-07 	4.044631142e-05
0.8423373074 	0.01989544243 	0.009337946582 	6.022669044e-07 	0.02131822462 	-2.342919356e-07 	4.063846121e-05
0.844921668 	0.02007166287 	0.009483521973 	1.000318236e-06 	0.02131302272 	-1.287731273e-06 	4.062854495e-05
0.8474775082 	0.02039982114 	0.00963478114 	3.537799556e-07 	0.02117074759 	-2.094902283e-06 	4.0357329e-05
0.8500051427 	0.02080173867 	0.009706450264 	1.24044657e-07 	0.02096261556 	-1.636712447e-06 	3.996057151e-05
0.8525048829 	0.02112864347 	0.009756500021 	1.244864766e-07 	0.02084792859 	-2.737757647e-07 	3.974194628e-05
0.8549770366 	0.02127619894 	0.009806875523 	1.251957927e-07 	0.02092108615 	1.317618004e-06 	3.988140492e-05
0.8574219081 	0.02121652275 	0.009855833384 	6.114326625e-08 	0.02119425534 	2.501723538e-06 	4.040214132e-05
0.8598397987 	0.0210122577 	0.009883898829 	-5.468827017e-07 	0.02159546084 	2.488302633e-06 	4.11669505e-05
0.862231006 	0.02081074743 	0.009823037515 	-1.513765901e-06 	0.02197201833 	1.365401215e-06 	4.188477375e-05
0.8645958245 	0.02073305411 	0.009672277752 	-1.327910333e-06 	0.02221398534 	2.973044409e-07 	4.234603012e-05
0.8669345455 	0.02077238435 	0.009576973984 	-1.771442618e-07 	0.02234152263 	-2.339818332e-07 	4.258915164e-05
0.8692474569 	0.02087548636 	0.009640606983 	1.253810348e-06 	0.02240806318 	-6.453037201e-07 	4.271599641e-05
0.8715348435 	0.02106566175 	0.009861263438 	1.735905302e-06 	0.02240401841 	-1.568884156e-06 	4.270828597e-05
0.8737969871 	0.02140923356 	0.01009140321 	7.57233665e-07 	0.02226955715 	-2.616957129e-06 	4.245196544e-05
0.8760341663 	0.02187077569 	0.01020473728 	1.603672334e-07 	0.02203407959 	-2.496056983e-06 	4.200307976e-05
0.8782466565 	0.02230548799 	0.01026453017 	1.665760975e-07 	0.02185480682 	-1.189076528e-06 	4.166133603e-05
0.8804347301 	0.02259034101 	0.01032725448 	2.089877332e-07 	0.02185526921 	5.023310213e-07 	4.166221748e-05
0.8825986568 	0.02266825922 	0.01039446128 	1.998529783e-07 	0.02206419462 	2.138243861e-06 	4.206048738e-05
0.8847387028 	0.02254494612 	0.01045788635 	9.168360652e-08 	0.02245285211 	3.195239409e-06 	4.280137657e-05
0.8868551318 	0.02231648932 	0.01049023803 	-8.012508222e-07 	0.02292198839 	2.829016791e-06 	4.369568072e-05
0.8889482045 	0.02214701998 	0.01041267743 	-1.816388145e-06 	0.02330262257 	1.373980424e-06 	4.442127524e-05
0.8910181784 	0.02213167525 	0.01026210138 	-1.008872047e-06 	0.02350662421 	4.403872608e-07 	4.481015908e-05
0.8930653087 	0.02223085321 	0.01025617487 	9.90418957e-07 	0.0236130236 	2.400393664e-07 	4.501298589e-05
0.8950898473 	0.02240764386 	0.01046822032 	1.673872172e-06 	0.02367769951 	-4.562189937e-07 	4.513627615e-05
0.8970920436 	0.02269922232 	0.01070617326 	7.766334183e-07 	0.02363912205 	-1.505537887e-06 	4.506273678e-05
0.8990721441 	0.02309730773 	0.01083183047 	1.902930036e-07 	0.02350213026 	-1.7101674e-06 	4.480159236e-05
0.9010303927 	0.0235064199 	0.01090445457 	2.056716475e-07 	0.02338906566 	-1.05391753e-06 	4.45860598e-05
0.9029670306 	0.02383852497 	0.01098018674 	2.329970463e-07 	0.02339109101 	-1.447742176e-07 	4.458992068e-05
0.9048822962 	0.02405218481 	0.01105968233 	2.450075817e-07 	0.02352538451 	7.755330479e-07 	4.484592142e-05
0.9067764254 	0.02413846219 	0.01113962562 	2.15048743e-07 	0.02377661633 	1.563778179e-06 	4.53248391e-05
0.9086496514 	0.02412796536 	0.01121486238 	1.516560704e-07 	0.02410549311 	1.958288349e-06 	4.595176963e-05
0.910502205 	0.02409458688 	0.01127267118 	-3.699582478e-07 	0.0244435395 	1.608905473e-06 	4.659618002e-05
0.9123343142 	0.02411984551 	0.0112761753 	-8.97192301e-07 	0.02470722775 	8.742864728e-07 	4.70988431e-05
0.9141462048 	0.02423030949 	0.01125873749 	-3.469535974e-07 	0.02487711222 	6.256075982e-07 	4.742269012e-05
0.9159380997 	0.02439411244 	0.01133999675 	4.718583986e-07 	0.0250219619 	7.298963976e-07 	4.769881388e-05
0.9177102197 	0.02458469025 	0.01151237187 	4.158983986e-07 	0.02517345288 	6.761516736e-07 	4.798759778e-05
0.9194627831 	0.02479936519 	0.01164655251 	1.377722136e-07 	0.02530546237 	7.219609558e-07 	4.823924457e-05
0.9211960055 	0.02502968919 	0.01173368319 	1.461413192e-07 	0.02543721882 	9.907811879e-07 	4.849040898e-05
0.9229101006 	0.02526278786 	0.0118271242 	1.533446694e-07 	0.02560372143 	1.169082349e-06 	4.880780923e-05
0.9246052793 	0.0254971019 	0.01192700496 	1.614953871e-07 	0.02579989916 	1.139088209e-06 	4.918177851e-05
0.9262817504 	0.02573957312 	0.01203305011 	1.727434958e-07 	0.02601198731 	9.236368444e-07 	4.958607748e-05
0.9279397204 	0.02599911506 	0.01214472688 	1.886499034e-07 	0.0262308551 	5.54460113e-07 	5.000330031e-05
0.9295793934 	0.02628235073 	0.01226147807 	2.086245415e-07 	0.02644849469 	1.185270688e-07 	5.041818185e-05
0.9312009714 	0.0265908182 	0.0123827857 	2.306424175e-07 	0.0266607511 	-2.830030448e-07 	5.082280157e-05
0.9328046541 	0.02692152693 	0.0125081851 	2.529469037e-07 	0.02686897173 	-5.826751568e-07 	5.121972796e-05
0.9343906389 	0.02726810987 	0.01263730292 	2.749594277e-07 	0.02707950601 	-7.209518373e-07 	5.162106482e-05
0.9359591211 	0.02762100261 	0.01276987404 	2.963893753e-07 	0.02730010524 	-6.375694985e-07 	5.204158826e-05