0.4690770581 	-0.00637199828 	7.309388172e-05 	2.530774906e-08 	0.04247200103 	-0.0004876087311 	-1.673132667e-07 	191.6686368 	-2.198492306 	-0.0007590124735
0.4692488673 	0 	0 	0 	0.117792983 	-0.001351132459 	-4.744522735e-07 	0 	0 	0
0.4694206768 	0 	0 	0 	0.2353859484 	-0.002703636557 	-9.656547705e-07 	0 	0 	0
0.4695924867 	0 	0 	0 	0.3525490084 	-0.004059572997 	-1.470554713e-06 	0 	0 	0
0.4697642971 	0 	0 	0 	0.4685655017 	-0.005397769 	-1.985919991e-06 	0 	0 	0
0.4699361078 	0 	0 	0 	0.5819861986 	-0.006680787624 	-2.50441204e-06 	0 	0 	0
0.4701079188 	0 	0 	0 	0.690788087 	-0.007887552791 	-3.01559859e-06 	0 	0 	0
0.4702797302 	0 	0 	0 	0.7929976042 	-0.00902370624 	-3.509088222e-06 	0 	0 	0
0.470451542 	0 	0 	0 	0.8873166685 	-0.01009210174 	-3.977659562e-06 	0 	0 	0
0.4706233541 	0 	0 	0 	0.973315648 	-0.01108005627 	-4.417852606e-06 	0 	0 	0
0.4707951664 	0 	0 	0 	1.051238878 	-0.01197640578 	-4.829083885e-06 	0 	0 	0
0.4709669791 	0 	0 	0 	1.121706067 	-0.01278055114 	-5.211108062e-06 	0 	0 	0
0.471138792 	0 	0 	0 	1.18548157 	-0.01349972196 	-5.56967016e-06 	0 	0 	0
0.4713106052 	0 	0 	0 	1.243348351 	-0.01415663992 	-5.907029749e-06 	0 	0 	0
0.4714824187 	0 	0 	0 	1.296058985 	-0.01475755575 	-6.220063695e-06 	0 	0 	0
0.4716542324 	0 	0 	0 	1.344282565 	-0.01529331323 	-6.515695078e-06 	0 	0 	0
0.4718260463 	0 	0 	0 	1.388568207 	-0.01578238549 	-6.797455073e-06 	0 	0 	0
0.4719978604 	0 	0 	0 	1.429377222 	-0.01623775649 	-7.064439859e-06 	0 	0 	0
0.4721696746 	0 	0 	0 	1.467114576 	-0.01665791746 	-7.319012192e-06 	0 	0 	0
0.4723414891 	0 	0 	0 	1.502133083 	-0.01704688537 	-7.562653231e-06 	0 	0 	0
0.4725133037 	0 	0 	0 	1.534737754 	-0.01740834347 	-7.796621708e-06 	0 	0 	0
0.4726851185 	0 	0 	0 	1.56519261 	-0.01774538454 	-8.022004176e-06 	0 	0 	0
0.4728569334 	0 	0 	0 	1.593726247 	-0.01806063945 	-8.239752822e-06 	0 	0 	0
0.4730287484 	0 	0 	0 	1.620536951 	-0.0183563958 	-8.450778715e-06 	0 	0 	0
0.4732005635 	0 	0 	0 	1.645797406 	-0.01863457147 	-8.65697086e-06 	0 	0 	0
0.4733723787 	0 	0 	0 	1.669658365 	-0.0188961517 	-8.856033914e-06 	0 	0 	0
0.473544194 	0 	0 	0 	1.692252953 	-0.01914428828 	-9.048060739e-06 	0 	0 	0
0.4737160093 	0 	0 	0 	1.71370413 	-0.01938090781 	-9.239574372e-06 	0 	0 	0
0.4738878247 	0 	0 	0 	1.734124509 	-0.01960465763 	-9.427928501e-06 	0 	0 	0
0.4740596401 	0 	0 	0 	1.753608636 	-0.01981621942 	-9.609879789e-06 	0 	0 	0
0.4742314555 	0 	0 	0 	1.774756326 	-0.02004574442 	-9.801707295e-06 	0 	0 	0
0.4744984171 	0 	0 	0 	1.799767171 	-0.02031941882 	-1.006320724e-05 	0 	0 	0
0.4747703961 	0 	0 	0 	1.825949889 	-0.0206046713 	-1.033537753e-05 	0 	0 	0
0.4750474869 	0 	0 	0 	1.851026865 	-0.02087553776 	-1.060674693e-05 	0 	0 	0
0.4753297854 	0 	0 	0 	1.875096602 	-0.0211356477 	-1.087782935e-05 	0 	0 	0
0.4756173894 	0 	0 	0 	1.898246327 	-0.02138519413 	-1.114901939e-05 	0 	0 	0
0.4759103986 	0 	0 	0 	1.920553623 	-0.02162506962 	-1.142067458e-05 	0 	0 	0
0.4762089144 	0 	0 	0 	1.942087152 	-0.02185605158 	-1.169310823e-05 	0 	0 	0
0.4765130403 	0 	0 	0 	1.962907956 	-0.02207882118 	-1.196659381e-05 	0 	0 	0
0.4768228817 	0 	0 	0 	1.983070491 	-0.02229399466 	-1.224136978e-05 	0 	0 	0
0.4771385457 	0 	0 	0 	2.002623503 	-0.02250212083 	-1.251763574e-05 	0 	0 	0
0.4774601418 	0 	0 	0 	2.021610757 	-0.02270369352 	-1.279557996e-05 	0 	0 	0
0.4777877812 	0 	0 	0 	2.040071671 	-0.0228991557 	-1.30753552e-05 	0 	0 	0
0.4781215775 	0 	0 	0 	2.058041839 	-0.02308890509 	-1.335707608e-05 	0 	0 	0
0.4784616462 	0 	0 	0 	2.075553489 	-0.02327330275 	-1.364085312e-05 	0 	0 	0
0.4788081049 	0 	0 	0 	2.092635869 	-0.02345267514 	-1.3926772e-05 	0 	0 	0
0.4791610737 	0 	0 	0 	2.109315589 	-0.02362732008 	-1.421489934e-05 	0 	0 	0
0.4795206747 	0 	0 	0 	2.125616911 	-0.02379749996 	-1.450528635e-05 	0 	0 	0
0.4798870323 	0 	0 	0 	2.141569885 	-0.02396353898 	-1.47980355e-05 	0 	0 	0
0.4802610131 	0 	0 	0 	2.157207126 	-0.02412580064 	-1.509460151e-05 	0 	0 	0
0.4806425564 	0 	0 	0 	2.172543287 	-0.02428444658 	-1.539511745e-05 	0 	0 	0
0.4810312696 	0 	0 	0 	2.18758181 	-0.02443951134 	-1.569874609e-05 	0 	0 	0
0.4814272873 	0 	0 	0 	2.202333264 	-0.02459111272 	-1.600554252e-05 	0 	0 	0
0.4818307469 	0 	0 	0 	2.216812336 	-0.02473941011 	-1.63155993e-05 	0 	0 	0
0.4822417881 	0 	0 	0 	2.231032575 	-0.02488454688 	-1.662900391e-05 	0 	0 	0
0.4826605535 	0 	0 	0 	2.245006497 	-0.02502665494 	-1.694584039e-05 	0 	0 	0
0.483087188 	0 	0 	0 	2.258745672 	-0.02516585496 	-1.726618908e-05 	0 	0 	0
0.4835218397 	0 	0 	0 	2.272260814 	-0.02530225735 	-1.759012661e-05 	0 	0 	0
0.4839646591 	0 	0 	0 	2.285561851 	-0.02543596309 	-1.791772592e-05 	0 	0 	0
0.4844157997 	0 	0 	0 	2.298657994 	-0.02556706456 	-1.824905615e-05 	0 	0 	0
0.4848754178 	0 	0 	0 	2.311557796 	-0.02569564616 	-1.858418264e-05 	0 	0 	0
0.4853436727 	0 	0 	0 	2.32426921 	-0.02582178503 	-1.892316682e-05 	0 	0 	0
0.4858207267 	0 	0 	0 	2.336799634 	-0.0259455516 	-1.926606617e-05 	0 	0 	0
0.486306745 	0 	0 	0 	2.349155961 	-0.02606701013 	-1.961293412e-05 	0 	0 	0
0.4868018963 	0 	0 	0 	2.361344618 	-0.02618621926 	-1.996381989e-05 	0 	0 	0
0.4873063519 	0 	0 	0 	2.373371605 	-0.02630323241 	-2.03187684e-05 	0 	0 	0
0.4878202868 	0 	0 	0 	2.385242528 	-0.02641809831 	-2.067781997e-05 	0 	0 	0
0.4883438791 	0 	0 	0 	2.396962634 	-0.02653086136 	-2.104101017e-05 	0 	0 	0
0.4888773101 	0 	0 	0 	2.408536841 	-0.026641562 	-2.140836959e-05 	0 	0 	0
0.4894207647 	0 	0 	0 	2.419969762 	-0.02675023768 	-2.177992387e-05 	0 	0 	0
0.4899744314 	0 	0 	0 	2.431265733 	-0.02685692048 	-2.215569526e-05 	0 	0 	0
0.4905385018 	0 	0 	0 	2.442431154 	-0.02696165656 	-2.253572719e-05 	0 	0 	0
0.4911136478 	0 	0 	0 	2.453478266 	-0.02706455933 	-2.292093452e-05 	0 	0 	0
0.4917009343 	0 	0 	0 	2.464413888 	-0.02716568941 	-2.331270338e-05 	0 	0 	0
0.4922992556 	0 	0 	0 	2.475232371 	-0.02726497688 	-2.370862725e-05 	0 	0 	0
0.4929088189 	0 	0 	0 	2.485930803 	-0.02736238224 	-2.410870346e-05 	0 	0 	0
0.4935298355 	0 	0 	0 	2.496512283 	-0.02745792934 	-2.45129808e-05 	0 	0 	0
0.4941625205 	0 	0 	0 	2.506979752 	-0.02755163954 	-2.492146129e-05 	0 	0 	0
0.4948070931 	0 	0 	0 	2.517336004 	-0.02764353509 	-2.533415225e-05 	0 	0 	0
0.4954637767 	0 	0 	0 	2.527583692 	-0.0277336378 	-2.575102828e-05 	0 	0 	0
0.4961327987 	0 	0 	0 	2.537725302 	-0.0278219669 	-2.617208216e-05 	0 	0 	0
0.4968143909 	0 	0 	0 	2.547763141 	-0.02790853912 	-2.65973873e-05 	0 	0 	0
0.4975087895 	0 	0 	0 	2.557699352 	-0.02799337131 	-2.702703267e-05 	0 	0 	0
0.498216235 	0 	0 	0 	2.567535915 	-0.02807648035 	-2.746112005e-05 	0 	0 	0
0.4989369726 	0 	0 	0 	2.57727464 	-0.02815788153 	-2.789981715e-05 	0 	0 	0
0.4996712519 	0 	0 	0 	2.586917176 	-0.02823759102 	-2.83433686e-05 	0 	0 	0
0.5004193273 	0 	0 	0 	2.596465011 	-0.02831562187 	-2.879211801e-05 	0 	0 	0
0.501181458 	0 	0 	0 	2.605920579 	-0.02839198888 	-2.924656431e-05 	0 	0 	0
0.5019582576 	0 	0 	0 	2.615291949 	-0.02846685385 	-2.970805548e-05 	0 	0 	0
0.5027515405 	0 	0 	0 	2.624585059 	-0.02853988225 	-3.017960655e-05 	0 	0 	0
0.5035597266 	0 	0 	0 	2.63496502 	-0.02862009727 	-3.066479218e-05 	0 	0 	0
0.5048004038 	0 	0 	0 	2.647454683 	-0.02871497221 	-3.139345774e-05 	0 	0 	0
0.5060549104 	0 	0 	0 	2.660719336 	-0.02881366007 	-3.213601687e-05 	0 	0 	0
0.5073234007 	0 	0 	0 	2.673608768 	-0.02890687982 	-3.288551069e-05 	0 	0 	0
0.5086060307 	0 	0 	0 	2.686141448 	-0.02899518364 	-3.364050333e-05 	0 	0 	0
0.509902958 	0 	0 	0 	2.698334036 	-0.02907862477 	-3.440004304e-05 	0 	0 	0
0.5112143421 	0 	0 	0 	2.710201937 	-0.02915736642 	-3.516337914e-05 	0 	0 	0
0.5125403441 	0 	0 	0 	2.721766134 	-0.02923158264 	-3.592979895e-05 	0 	0 	0
0.5138842543 	0 	0 	0 	2.733046734 	-0.02930141086 	-3.670359432e-05 	0 	0 	0
0.5152434821 	0 	0 	0 	2.744049743 	-0.0293668828 	-3.747734393e-05 	0 	0 	0
0.5166178584 	0 	0 	0 	2.75478134 	-0.02942802261 	-3.825704151e-05 	0 	0 	0
0.5180075522 	0 	0 	0 	2.765256578 	-0.02948300734 	-3.907804844e-05 	0 	0 	0
0.5194127343 	0 	0 	0 	2.775499253 	-0.02953092978 	-3.986063917e-05 	0 	0 	0
0.5208335775 	0 	0 	0 	2.785566843 	-0.029574253 	-4.063430232e-05 	0 	0 	0
0.5222702564 	0 	0 	0 	2.795573503 	-0.02960714869 	-4.158112987e-05 	0 	0 	0
0.5237235394 	0 	0 	0 	2.805640549 	-0.02962006866 	-4.251784911e-05 	0 	0 	0
0.525195862 	0 	0 	0 	2.815788273 	-0.02961720481 	-4.320876767e-05 	0 	0 	0
0.5266845913 	0 	0 	0 	2.825890738 	-0.029611262 	-4.362173796e-05 	0 	0 	0
0.5281899102 	0 	0 	0 	2.835738453 	-0.02961523722 	-4.37847627e-05 	0 	0 	0
0.5297120038 	0 	0 	0 	2.845136677 	-0.02964202606 	-4.372976028e-05 	0 	0 	0
0.5312510593 	0 	0 	0 	2.853994379 	-0.02969903928 	-4.366599747e-05 	0 	0 	0
0.5328072659 	0 	0 	0 	2.862360016 	-0.02977873568 	-4.373365699e-05 	0 	0 	0
0.5343811168 	0 	0 	0 	2.870361057 	-0.02986642433 	-4.304474345e-05 	0 	0 	0
0.5359755695 	0 	0 	0 	2.878101728 	-0.02995566954 	-4.237749424e-05 	0 	0 	0
0.5375877878 	0 	0 	0 	2.885629308 	-0.03004428581 	-4.181493437e-05 	0 	0 	0
0.5392179698 	0 	0 	0 	2.892993784 	-0.03012806622 	-4.134697379e-05 	0 	0 	0
0.5408663162 	0 	0 	0 	2.90031499 	-0.03019604033 	-4.118316649e-05 	0 	0 	0
0.5425330294 	0 	0 	0 	2.907777186 	-0.03022853583 	-4.155203212e-05 	0 	0 	0
0.5442183146 	0 	0 	0 	2.915526769 	-0.03020753639 	-4.22088721e-05 	0 	0 	0
0.5459241813 	0 	0 	0 	2.923530885 	-0.03013038536 	-4.263479421e-05 	0 	0 	0
0.5476505163 	0 	0 	0 	2.931528748 	-0.03001309916 	-4.247619786e-05 	0 	0 	0
0.5493960848 	0 	0 	0 	2.939147446 	-0.02987794875 	-4.171855552e-05 	0 	0 	0
0.5511611015 	0 	0 	0 	2.946099129 	-0.02975414023 	-4.036418473e-05 	0 	0 	0
0.5529457835 	0 	0 	0 	2.952331062 	-0.02965753583 	-3.891387688e-05 	0 	0 	0
0.5547503504 	0 	0 	0 	2.958008288 	-0.02956664007 	-3.784881163e-05 	0 	0 	0
0.5565765385 	0 	0 	0 	2.963316955 	-0.02947103984 	-3.677562274e-05 	0 	0 	0
0.5584246957 	0 	0 	0 	2.968339932 	-0.02938205663 	-3.568187584e-05 	0 	0 	0
0.5602934424 	0 	0 	0 	2.973103045 	-0.0292967013 	-3.477379049e-05 	0 	0 	0
0.5621830086 	0 	0 	0 	2.977622668 	-0.02920912773 	-3.393274256e-05 	0 	0 	0
0.5640936267 	0 	0 	0 	2.98191085 	-0.0291195647 	-3.313258361e-05 	0 	0 	0
0.5660255319 	0 	0 	0 	2.985978184 	-0.029027817 	-3.236763737e-05 	0 	0 	0
0.5679814071 	0 	0 	0 	2.989834919 	-0.02893367876 	-3.162893331e-05 	0 	0 	0
0.5699596162 	0 	0 	0 	2.993488446 	-0.02883699923 	-3.091501579e-05 	0 	0 	0
0.5719598632 	0 	0 	0 	2.996945722 	-0.02873765811 	-3.022277222e-05 	0 	0 	0
0.5739823943 	0 	0 	0 	3.000214697 	-0.02863555755 	-2.954917803e-05 	0 	0 	0
0.5760274583 	0 	0 	0 	3.003303795 	-0.02853060842 	-2.889184769e-05 	0 	0 	0
0.5780967341 	0 	0 	0 	3.006221544 	-0.02842273452 	-2.824765863e-05 	0 	0 	0
0.5801904633 	0 	0 	0 	3.008975052 	-0.02831190765 	-2.761629816e-05 	0 	0 	0
0.5823075169 	0 	0 	0 	3.01157036 	-0.0281981505 	-2.699829211e-05 	0 	0 	0
0.5844481555 	0 	0 	0 	3.014013928 	-0.02808148353 	-2.63928057e-05 	0 	0 	0
0.5866126428 	0 	0 	0 	3.016312785 	-0.02796190423 	-2.57991403e-05 	0 	0 	0
0.5888025789 	0 	0 	0 	3.018473974 	-0.02783939987 	-2.521569327e-05 	0 	0 	0
0.5910182321 	0 	0 	0 	3.020503544 	-0.02771399276 	-2.464320162e-05 	0 	0 	0
0.5932585681 	0 	0 	0 	3.022406784 	-0.02758574671 	-2.408277488e-05 	0 	0 	0
0.5955238631 	0 	0 	0 	3.024189187 	-0.02745471229 	-2.353417566e-05 	0 	0 	0
0.5978143961 	0 	0 	0 	3.025856646 	-0.02732090274 	-2.299715789e-05 	0 	0 	0
0.6001323685 	0 	0 	0 	3.027414835 	-0.02718432135 	-2.247039267e-05 	0 	0 	0
0.6024767174 	0 	0 	0 	3.028868469 	-0.02704502167 	-2.195595849e-05 	0 	0 	0
0.6048471841 	0 	0 	0 	3.03022195 	-0.02690307376 	-2.145424959e-05 	0 	0 	0
0.6072440607 	0 	0 	0 	3.031479865 	-0.02675851747 	-2.096512726e-05 	0 	0 	0
0.6096683188 	0 	0 	0 	3.032646799 	-0.02661135871 	-2.04879741e-05 	0 	0 	0
0.6121211985 	0 	0 	0 	3.033726854 	-0.02646161639 	-2.002311767e-05 	0 	0 	0
0.6146014058 	0 	0 	0 	3.034723522 	-0.02630935652 	-1.957205941e-05 	0 	0 	0
0.6171092466 	0 	0 	0 	3.035640196 	-0.0261546331 	-1.913464672e-05 	0 	0 	0
0.6196451072 	0 	0 	0 	3.036480345 	-0.02599745046 	-1.871059943e-05 	0 	0 	0
0.6222112488 	0 	0 	0 	3.037247125 	-0.0258378053 	-1.829929328e-05 	0 	0 	0
0.6248059814 	0 	0 	0 	3.037943113 	-0.02567575369 	-1.790270724e-05 	0 	0 	0
0.6274296252 	0 	0 	0 	3.038570716 	-0.02551134755 	-1.752060761e-05 	0 	0 	0
0.6300825038 	0 	0 	0 	3.03913235 	-0.02534458726 	-1.715267538e-05 	0 	0 	0
0.6327668179 	0 	0 	0 	3.039630166 	-0.02517546094 	-1.679828792e-05 	0 	0 	0
0.6354810871 	0 	0 	0 	3.040065893 	-0.02500401244 	-1.645918693e-05 	0 	0 	0
0.6382256018 	0 	0 	0 	3.040441102 	-0.02483028305 	-1.613504828e-05 	0 	0 	0
0.6410008697 	0 	0 	0 	3.040757287 	-0.02465426673 	-1.582536001e-05 	0 	0 	0
0.6438086365 	0 	0 	0 	3.041015713 	-0.02447594981 	-1.553001135e-05 	0 	0 	0
0.6466476918 	0 	0 	0 	3.041217378 	-0.02429536714 	-1.525019325e-05 	0 	0 	0
0.6495183863 	0 	0 	0 	3.041363154 	-0.024112544 	-1.498543339e-05 	0 	0 	0
0.6524216739 	0 	0 	0 	3.04145378 	-0.0239274675 	-1.473503645e-05 	0 	0 	0
0.6553582862 	0 	0 	0 	3.041489809 	-0.02374013308 	-1.449968906e-05 	0 	0 	0
0.6583276269 	0 	0 	0 	3.041471647 	-0.02355056969 	-1.427967425e-05 	0 	0 	0
0.6613300628 	0 	0 	0 	3.041399573 	-0.02335878479 	-1.407437909e-05 	0 	0 	0
0.6643671144 	0 	0 	0 	3.041273721 	-0.02316476088 	-1.388330183e-05 	0 	0 	0
0.667438269 	0 	0 	0 	3.04109412 	-0.02296851285 	-1.370744894e-05 	0 	0 	0
0.6705436562 	0 	0 	0 	3.040860697 	-0.02277006261 	-1.354627001e-05 	0 	0 	0
0.6736841531 	0 	0 	0 	3.04057324 	-0.02256940456 	-1.339897681e-05 	0 	0 	0
0.6768604108 	0 	0 	0 	3.040231441 	-0.02236653612 	-1.326617486e-05 	0 	0 	0
0.6800720757 	0 	0 	0 	3.039834939 	-0.02216148429 	-1.314772977e-05 	0 	0 	0
0.6833196559 	0 	0 	0 	3.039383248 	-0.02195425789 	-1.304276563e-05 	0 	0 	0
0.6866044312 	0 	0 	0 	3.038875763 	-0.02174485132 	-1.295128933e-05 	0 	0 	0
0.689925827 	0 	0 	0 	3.038311881 	-0.02153329483 	-1.287356014e-05 	0 	0 	0
0.6932842545 	0 	0 	0 	3.037690883 	-0.02131960988 	-1.280862682e-05 	0 	0 	0
0.6966810183 	0 	0 	0 	3.037011917 	-0.02110379901 	-1.275608587e-05 	0 	0 	0
0.7001157291 	0 	0 	0 	3.03627415 	-0.02088589419 	-1.271632956e-05 	0 	0 	0
0.7035887392 	0 	0 	0 	3.035476646 	-0.02066592703 	-1.26883149e-05 	0 	0 	0
0.7071011956 	0 	0 	0 	3.034618334 	-0.02044391287 	-1.26714714e-05 	0 	0 	0
0.7106529404 	0 	0 	0 	3.033698155 	-0.0202198886 	-1.266607854e-05 	0 	0 	0
0.7142442945 	0 	0 	0 	3.032714951 	-0.01999389373 	-1.267097723e-05 	0 	0 	0
0.7178763468 	0 	0 	0 	3.031667422 	-0.0197659544 	-1.268555433e-05 	0 	0 	0
0.7215489841 	0 	0 	0 	3.030554281 	-0.01953611557 	-1.270984922e-05 	0 	0 	0
0.7252625989 	0 	0 	0 	3.029374117 	-0.01930442095 	-1.27425106e-05 	0 	0 	0
0.7290182397 	0 	0 	0 	3.028125375 	-0.01907089462 	-1.278303612e-05 	0 	0 	0
0.7328157714 	0 	0 	0 	3.026810092 	-0.01883621776 	-1.283141513e-05 	0 	0 	0
0.7366134126 	0 	0 	0 	3.025438894 	-0.01860243099 	-1.28850491e-05 	0 	0 	0
0.7403695195 	0 	0 	0 	3.024024062 	-0.01837148877 	-1.294235003e-05 	0 	0 	0
0.7440841637 	0 	0 	0 	3.022570815 	-0.01814396114 	-1.300254809e-05 	0 	0 	0
0.7477579729 	0 	0 	0 	3.021080587 	-0.01791979479 	-1.306405678e-05 	0 	0 	0
0.7513914685 	0 	0 	0 	3.019554657 	-0.01769890992 	-1.312653238e-05 	0 	0 	0
0.7549848602 	0 	0 	0 	3.017994185 	-0.01748122362 	-1.318881301e-05 	0 	0 	0
0.7585387501 	0 	0 	0 	3.016400144 	-0.01726663903 	-1.32496897e-05 	0 	0 	0
0.7620535769 	0 	0 	0 	3.014773371 	-0.01705504754 	-1.330897779e-05 	0 	0 	0
0.7655296137 	0 	0 	0 	3.013114591 	-0.01684634171 	-1.336568728e-05 	0 	0 	0
0.768967409 	0 	0 	0 	3.011424356 	-0.01664040595 	-1.341885772e-05 	0 	0 	0
0.7723673936 	0 	0 	0 	3.009703105 	-0.01643711893 	-1.346841051e-05 	0 	0 	0
0.775729859 	0 	0 	0 	3.00795119 	-0.01623636587 	-1.351358423e-05 	0 	0 	0
0.7790552892 	0 	0 	0 	3.006168825 	-0.01603803212 	-1.355359339e-05 	0 	0 	0
0.7823441444 	0 	0 	0 	3.004356146 	-0.01584200497 	-1.358843994e-05 	0 	0 	0
0.7855967093 	0 	0 	0 	3.00251325 	-0.01564818765 	-1.361765448e-05 	0 	0 	0
0.7888134047 	0 	0 	0 	3.000640166 	-0.01545649737 	-1.364065676e-05 	0 	0 	0
0.7919947311 	0 	0 	0 	2.998736882 	-0.01526686809 	-1.365752508e-05 	0 	0 	0
0.7951409556 	0 	0 	0 	2.99680342 	-0.01507926721 	-1.366827712e-05 	0 	0 	0
0.7982524668 	0 	0 	0 	2.994839784 	-0.01489370055 	-1.367279062e-05 	0 	0 	0
0.8013297317 	0 	0 	0 	2.99284596 	-0.01471021476 	-1.367143027e-05 	0 	0 	0
0.8043730674 	0 	0 	0 	2.990821953 	-0.01452891051 	-1.366516157e-05 	0 	0 	0
0.8073828264 	0 	0 	0 	2.988767712 	-0.01434995782 	-1.365502159e-05 	0 	0 	0
0.8103594037 	0 	0 	0 	2.986683056 	-0.0141734313 	-1.36406265e-05 	0 	0 	0
0.8133031956 	0 	0 	0 	2.984567651 	-0.01399942653 	-1.362694461e-05 	0 	0 	0
0.8162145099 	0 	0 	0 	2.982419795 	-0.01382838335 	-1.361491523e-05 	0 	0 	0
0.8190937056 	0 	0 	0 	2.98023374 	-0.01365977433 	-1.359662164e-05 	0 	0 	0
0.8219411765 	0 	0 	0 	2.978000868 	-0.01349229634 	-1.3572922e-05 	0 	0 	0
0.8247572507 	0 	0 	0 	2.975713577 	-0.01332562074 	-1.354230219e-05 	0 	0 	0
0.8275422578 	0 	0 	0 	2.973366252 	-0.01315942511 	-1.349963079e-05 	0 	0 	0
0.8302965409 	0 	0 	0 	2.970955329 	-0.01299312862 	-1.344699532e-05 	0 	0 	0
0.8330204758 	0 	0 	0 	2.968480197 	-0.01282670087 	-1.339019157e-05 	0 	0 	0
0.8357143636 	0 	0 	0 	2.96594375 	-0.01266057415 	-1.333934973e-05 	0 	0 	0
0.838378533 	0 	0 	0 	2.963351903 	-0.01249563792 	-1.330634918e-05 	0 	0 	0
0.8410133121 	0 	0 	0 	2.960712183 	-0.01233310952 	-1.33013602e-05 	0 	0 	0
0.8436190526 	0 	0 	0 	2.958031646 	-0.01217426678 	-1.332929954e-05 	0 	0 	0
0.8461960476 	0 	0 	0 	2.955314672 	-0.01202011866 	-1.338747892e-05 	0 	0 	0
0.8487446143 	0 	0 	0 	2.952561403 	-0.01187110175 	-1.346590661e-05 	0 	0 	0
0.8512650663 	0 	0 	0 	2.949767402 	-0.01172693744 	-1.355012408e-05 	0 	0 	0
0.8537577304 	0 	0 	0 	2.946924683 	-0.01158670078 	-1.362527692e-05 	0 	0 	0
0.8562228989 	0 	0 	0 	2.944023803 	-0.01144905276 	-1.368041681e-05 	0 	0 	0
0.8586608727 	0 	0 	0 	2.941056318 	-0.01131258091 	-1.371131924e-05 	0 	0 	0
0.8610719522 	0 	0 	0 	2.938016828 	-0.01117614971 	-1.372178976e-05 	0 	0 	0
0.8634564411 	0 	0 	0 	2.934903974 	-0.01103915915 	-1.372267076e-05 	0 	0 	0
0.8658146308 	0 	0 	0 	2.931720009 	-0.01090159645 	-1.372863767e-05 	0 	0 	0
0.8681468062 	0 	0 	0 	2.928469505 	-0.01076350532 	-1.374850593e-05 	0 	0 	0
0.8704532543 	0 	0 	0 	2.925157016 	-0.01062604728 	-1.379828009e-05 	0 	0 	0
0.8727342594 	0 	0 	0 	2.921782354 	-0.01049073751 	-1.387771478e-05 	0 	0 	0
0.8749901093 	0 	0 	0 	2.918338994 	-0.01035676204 	-1.397298859e-05 	0 	0 	0
0.8772210738 	0 	0 	0 	2.914821214 	-0.010223806 	-1.409956144e-05 	0 	0 	0
0.8794274275 	0 	0 	0 	2.911227925 	-0.01009180035 	-1.417994423e-05 	0 	0 	0
0.8816094419 	0 	0 	0 	2.907556673 	-0.009958705496 	-1.404059608e-05 	0 	0 	0
0.8837673868 	0 	0 	0 	2.903792717 	-0.009820387269 	-1.358519321e-05 	0 	0 	0
0.8859015299 	0 	0 	0 	2.899891168 	-0.009663225061 	-1.252861375e-05 	0 	0 	0
0.8880121301 	0 	0 	0 	2.89575 	-0.009468448602 	-1.047303699e-05 	0 	0 	0
0.8900994471 	0 	0 	0 	2.891182143 	-0.009213545284 	-7.13083125e-06 	0 	0 	0
0.8921637379 	0 	0 	0 	2.88590238 	-0.0088612733 	-2.395404376e-06 	0 	0 	0
0.894205257 	0 	0 	0 	2.879593884 	-0.008382479763 	2.855761928e-06 	0 	0 	0
0.8962242572 	0 	0 	0 	2.872080155 	-0.007783894281 	6.804329091e-06 	0 	0 	0
0.8982209844 	0 	0 	0 	2.863498212 	-0.00711898985 	7.612858527e-06 	0 	0 	0
0.9001956845 	0 	0 	0 	2.854381164 	-0.006487540848 	4.244210642e-06 	0 	0 	0
0.9021486004 	0 	0 	0 	2.845524149 	-0.006003075835 	-2.266764728e-06 	0 	0 	0
0.9040799724 	0 	0 	0 	2.837595022 	-0.005739787941 	-9.488299312e-06 	0 	0 	0
0.9059900395 	0 	0 	0 	2.830778432 	-0.005699105977 	-1.497975425e-05 	0 	0 	0
0.9078790355 	0 	0 	0 	2.82477822 	-0.005815380611 	-1.776204273e-05 	0 	0 	0
0.9097471924 	0 	0 	0 	2.819130671 	-0.006005288438 	-1.850116925e-05 	0 	0 	0
0.9115947402 	0 	0 	0 	2.81349292 	-0.006217760932 	-1.825456977e-05 	0 	0 	0
0.9134219063 	0 	0 	0 	2.807675995 	-0.006423888584 	-1.754861651e-05 	0 	0 	0
0.9152289156 	0 	0 	0 	2.80151739 	-0.006600075505 	-1.632637143e-05 	0 	0 	0
0.9170159908 	0 	0 	0 	2.794788935 	-0.006721915113 	-1.426297917e-05 	0 	0 	0
0.9187833512 	0 	0 	0 	2.787184658 	-0.006748932179 	-1.114617793e-05 	0 	0 	0
0.9205312141 	0 	0 	0 	2.778405169 	-0.006643829529 	-7.37856463e-06 	0 	0 	0
0.9222597947 	0 	0 	0 	2.768273983 	-0.006390461661 	-3.428257432e-06 	0 	0 	0
0.9239693056 	0 	0 	0 	2.756863691 	-0.0060012523 	5.775787789e-08 	0 	0 	0
0.9256599573 	0 	0 	0 	2.744632406 	-0.005531318436 	1.928837931e-06 	0 	0 	0
0.9273319579 	0 	0 	0 	2.732383963 	-0.005071539875 	1.434581362e-06 	0 	0 	0
0.9289855128 	0 	0 	0 	2.720935723 	-0.004710278533 	-9.457826161e-07 	0 	0 	0
0.9306208255 	0 	0 	0 	2.71068988 	-0.004493054891 	-4.031352875e-06 	0 	0 	0
0.9322380971 	0 	0 	0 	2.701501095 	-0.004409538231 	-6.665513918e-06 	0 	0 	0
0.9338375268 	0 	0 	0 	2.692902952 	-0.00440769225 	-8.075306586e-06 	0 	0 	0
0.9354193112 	0 	0 	0 	2.684440264 	-0.004437231816 	-8.559577539e-06 	0 	0 	0
0.936983645 	0 	0 	0 	2.675840916 	-0.004473677763 	-8.776182424e-06 	0 	0 	0
0.9385307208 	0 	0 	0 	2.666969563 	-0.004504512801 	-8.727032139e-06 	0 	0 	0
0.9400607287 	0 	0 	0 	2.657742486 	-0.004515120911 	-8.281576035e-06 	0 	0 	0
0.941573857 	0 	0 	0 	2.648113551 	-0.004492311788 	-7.504718308e-06 	0 	0 	0
0.9430702919 	0 	0 	0 	2.638105247 	-0.004435424293 	-6.532408758e-06 	0 	0 	0
0.9445502175 	0 	0 	0 	2.627808234 	-0.004350756214 	-5.606842508e-06 	0 	0 	0
0.9460138159 	0 	0 	0 	2.617341635 	-0.004246404242 	-4.848411763e-06 	0 	0 	0
0.9474612672 	0 	0 	0 	2.606802286 	-0.004135248312 	-4.312888231e-06 	0 	0 	0
0.9488927496 	0 	0 	0 	2.596218633 	-0.004029345429 	-3.959716999e-06 	0 	0 	0
0.950308439 	0 	0 	0 	2.58554155 	-0.003927753832 	-3.650077139e-06 	0 	0 	0
0.9517085097 	0 	0 	0 	2.574700021 	-0.003824517001 	-3.420105375e-06 	0 	0 	0
0.953093134 	0 	0 	0 	2.563652714 	-0.003723798454 	-3.25626107e-06 	0 	0 	0
0.9544624823 	0 	0 	0 	2.552378962 	-0.003626354187 	-3.10510157e-06 	0 	0 	0
0.955816723 	0 	0 	0 	2.540860783 	-0.003529193125 	-2.980268529e-06 	0 	0 	0
0.9571560227 	0 	0 	0 	2.529080976 	-0.003432377568 	-2.87462897e-06 	0 	0 	0
0.9584805463 	0 	0 	0 	2.517022349 	-0.003335803135 	-2.783207849e-06 	0 	0 	0
0.9597904568 	0 	0 	0 	2.504666478 	-0.003239491751 	-2.701569493e-06 	0 	0 	0
0.9610859153 	0 	0 	0 	2.491993495 	-0.003143421069 	-2.625530153e-06 	0 	0 	0
0.9623670812 	0 	0 	0 	2.478981569 	-0.003048212984 	-2.549635412e-06 	0 	0 	0
0.9636341121 	0 	0 	0 	2.46675297 	-0.002961550316 	-2.474820085e-06 	0 	0 	0
0.96445946 	0 	0 	0 	2.456603899 	-0.002891300483 	-2.41482092e-06 	0 	0 	0
0.965269583 	0 	0 	0 	2.447518344 	-0.002830431276 	-2.359489809e-06 	0 	0 	0
0.9660647622 	0 	0 	0 	2.438349096 	-0.00277075442 	-2.303935435e-06 	0 	0 	0
0.9668452732 	0 	0 	0 	2.4290925 	-0.002711834488 	-2.247390072e-06 	0 	0 	0
0.9676113864 	0 	0 	0 	2.419745548 	-0.002653738237 	-2.190447281e-06 	0 	0 	0
0.9683633675 	0 	0 	0 	2.410305513 	-0.002596437194 	-2.13355896e-06 	0 	0 	0
0.9691014771 	0 	0 	0 	2.400769718 	-0.002539905429 	-2.077010196e-06 	0 	0 	0
0.969825971 	0 	0 	0 	2.391135509 	-0.002484120365 	-2.021001246e-06 	0 	0 	0
0.9705371005 	0 	0 	0 	2.381400244 	-0.00242906092 	-1.965666937e-06 	0 	0 	0
0.971235112 	0 	0 	0 	2.371561292 	-0.002374709521 	-1.911075368e-06 	0 	0 	0
0.9719202475 	0 	0 	0 	2.361616016 	-0.002321048691 	-1.857354321e-06 	0 	0 	0
0.9725927445 	0 	0 	0 	2.351561761 	-0.002268063144 	-1.804583262e-06 	0 	0 	0
0.9732528361 	0 	0 	0 	2.341395817 	-0.002215743494 	-1.752732757e-06 	0 	0 	0
0.9739007511 	0 	0 	0 	2.331115466 	-0.002164081554 	-1.701909925e-06 	0 	0 	0
0.9745367142 	0 	0 	0 	2.320718012 	-0.002113073978 	-1.652041093e-06 	0 	0 	0
0.9751609457 	0 	0 	0 	2.310200744 	-0.002062716753 	-1.603032801e-06 	0 	0 	0
0.9757736621 	0 	0 	0 	2.299560917 	-0.002012994971 	-1.555124448e-06 	0 	0 	0
0.9763750758 	0 	0 	0 	2.288795688 	-0.001963894846 	-1.508364145e-06 	0 	0 	0
0.9769653953 	0 	0 	0 	2.277902071 	-0.001915407534 	-1.462587316e-06 	0 	0 	0
0.9775448252 	0 	0 	0 	2.266876926 	-0.001867522722 	-1.417737739e-06 	0 	0 	0
0.9781135664 	0 	0 	0 	2.255716951 	-0.001820230261 	-1.373800398e-06 	0 	0 	0
0.978671816 	0 	0 	0 	2.24441866 	-0.001773521415 	-1.330746128e-06 	0 	0 	0
0.9792197676 	0 	0 	0 	2.232978367 	-0.00172738836 	-1.288548991e-06 	0 	0 	0
0.979757611 	0 	0 	0 	2.221392158 	-0.001681824051 	-1.247187691e-06 	0 	0 	0
0.9802855329 	0 	0 	0 	2.209655868 	-0.00163682225 	-1.206649027e-06 	0 	0 	0
0.9808037161 	0 	0 	0 	2.197765052 	-0.001592377389 	-1.166926497e-06 	0 	0 	0
0.9813123404 	0 	0 	0 	2.185714951 	-0.001548484102 	-1.128012157e-06 	0 	0 	0
0.981811582 	0 	0 	0 	2.173500463 	-0.001505137274 	-1.089896078e-06 	0 	0 	0
0.982301614 	0 	0 	0 	2.161116111 	-0.001462332419 	-1.052570467e-06 	0 	0 	0
0.9827826063 	0 	0 	0 	2.148556007 	-0.001420065541 	-1.016027983e-06 	0 	0 	0
0.9832547256 	0 	0 	0 	2.135813809 	-0.001378333036 	-9.802564145e-07 	0 	0 	0
0.9837181357 	0 	0 	0 	2.122882675 	-0.001337131648 	-9.452384796e-07 	0 	0 	0
0.9841729971 	0 	0 	0 	2.109755214 	-0.001296458136 	-9.109564494e-07 	0 	0 	0
0.9846194676 	0 	0 	0 	2.096423437 	-0.001256309371 	-8.773947271e-07 	0 	0 	0
0.985057702 	0 	0 	0 	2.082878704 	-0.001216682989 	-8.445438633e-07 	0 	0 	0
0.9854878521 	0 	0 	0 	2.069111663 	-0.001177577413 	-8.123967624e-07 	0 	0 	0
0.9859100671 	0 	0 	0 	2.05511218 	-0.001138991196 	-7.809415329e-07 	0 	0 	0
0.9863244933 	0 	0 	0 	2.040869254 	-0.001100923007 	-7.501668077e-07 	0 	0 	0
0.9867312745 	0 	0 	0 	2.026370936 	-0.001063371852 	-7.200639713e-07 	0 	0 	0
0.9871305517 	0 	0 	0 	2.011604223 	-0.001026336976 	-6.906237421e-07 	0 	0 	0
0.9875224632 	0 	0 	0 	1.996554952 	-0.0009898178122 	-6.618364329e-07 	0 	0 	0
0.987907145 	0 	0 	0 	1.981207673 	-0.0009538139835 	-6.336925644e-07 	0 	0 	0
0.9882847305 	0 	0 	0 	1.965545509 	-0.0009183253182 	-6.061828221e-07 	0 	0 	0
0.9886553504 	0 	0 	0 	1.949549996 	-0.0008833518614 	-5.792982368e-07 	0 	0 	0
0.9890191334 	0 	0 	0 	1.933200901 	-0.0008488938704 	-5.530305246e-07 	0 	0 	0
0.9893762055 	0 	0 	0 	1.916476011 	-0.0008149518153 	-5.273722531e-07 	0 	0 	0
0.9897266905 	0 	0 	0 	1.899350898 	-0.0007815263843 	-5.023169565e-07 	0 	0 	0
0.9900707099 	0 	0 	0 	1.881798642 	-0.0007486184835 	-4.778592452e-07 	0 	0 	0
0.9904083831 	0 	0 	0 	1.863789512 	-0.0007162292333 	-4.539948672e-07 	0 	0 	0
0.990739827 	0 	0 	0 	1.845290603 	-0.0006843599647 	-4.307206996e-07 	0 	0 	0
0.9910651566 	0 	0 	0 	1.826265403 	-0.0006530122454 	-4.080346297e-07 	0 	0 	0
0.9913844847 	0 	0 	0 	1.806673296 	-0.0006221878416 	-3.859352308e-07 	0 	0 	0
0.9916979219 	0 	0 	0 	1.786468969 	-0.0005918888302 	-3.644212631e-07 	0 	0 	0
0.992005577 	0 	0 	0 	1.765601722 	-0.0005621187876 	-3.434909433e-07 	0 	0 	0
0.9923075566 	0 	0 	0 	1.74401464 	-0.0005328725624 	-3.231412551e-07 	0 	0 	0
0.9926039654 	0 	0 	0 	1.72164361 	-0.0005041539687 	-3.033670326e-07 	0 	0 	0
0.9928949062 	0 	0 	0 	1.698416077 	-0.0004759820024 	-2.841644622e-07 	0 	0 	0
0.9931804798 	0 	0 	0 	1.674250317 	-0.0004476213611 	-2.655341437e-07 	0 	0 	0
0.9934607853 	0 	0 	0 	1.649053734 	-0.0004214506143 	-2.473265597e-07 	0 	0 	0
0.9937359198 	0 	0 	0 	1.625016111 	-0.0003985304451 	-2.309559824e-07 	0 	0 	0
0.9939129954 	0 	0 	0 	1.604713538 	-0.0003779547009 	-2.180470425e-07 	0 	0 	0
0.9940900712 	0 	0 	0 	1.586024923 	-0.0003604409707 	-2.067718204e-07 	0 	0 	0
0.994267147 	0 	0 	0 	1.566457378 	-0.0003439006285 	-1.956170271e-07 	0 	0 	0
0.9944442229 	0 	0 	0 	1.545929615 	-0.0003270752071 	-1.845585454e-07 	0 	0 	0
0.9946212988 	0 	0 	0 	1.524349593 	-0.0003100674207 	-1.735306119e-07 	0 	0 	0
0.9947983749 	0 	0 	0 	1.50161284 	-0.0002925926011 	-1.628215241e-07 	0 	0 	0
0.994975451 	0 	0 	0 	1.477598251 	-0.0002763138067 	-1.523033026e-07 	0 	0 	0
0.9951525272 	0 	0 	0 	1.45216126 	-0.0002611094893 	-1.415146629e-07 	0 	0 	0
0.9953296034 	0 	0 	0 	1.425133087 	-0.0002443705104 	-1.310523985e-07 	0 	0 	0
0.9955066797 	0 	0 	0 	1.396326085 	-0.0002272578901 	-1.210244874e-07 	0 	0 	0
0.9956837561 	0 	0 	0 	1.365530374 	-0.0002110940194 	-1.110941453e-07 	0 	0 	0
0.9958608326 	0 	0 	0 	1.332504893 	-0.0001951787729 	-1.013792926e-07 	0 	0 	0
0.9960379092 	0 	0 	0 	1.296972349 	-0.0001780678703 	-9.13879813e-08 	0 	0 	0
0.9962149858 	0 	0 	0 	1.258615377 	-0.0001590676719 	-8.269042299e-08 	0 	0 	0
0.9963920625 	0 	0 	0 	1.217064902 	-0.0001442807026 	-7.494163952e-08 	0 	0 	0
0.9965691392 	0 	0 	0 	1.171877585 	-0.0001335215041 	-6.543193424e-08 	0 	0 	0
0.9967462161 	0 	0 	0 	1.122530492 	-0.0001189985709 	-5.68069696e-08 	0 	0 	0
0.996923293 	0 	0 	0 	1.068441711 	-0.0001048458421 	-4.964261167e-08 	0 	0 	0
0.99710037 	0 	0 	0 	1.008984054 	-9.592206716e-05 	-4.224149736e-08 	0 	0 	0
0.997277447 	0 	0 	0 	0.9435077412 	-9.126528906e-05 	-3.529056334e-08 	0 	0 	0
0.9974545241 	0 	0 	0 	0.8714104897 	-8.995003523e-05 	-2.879900728e-08 	0 	0 	0
0.9976316013 	0 	0 	0 	0.7922706714 	-8.517305347e-05 	-2.276555098e-08 	0 	0 	0
0.9978086786 	0 	0 	0 	0.7060554875 	-6.580965989e-05 	-1.725229111e-08 	0 	0 	0
0.997985756 	0 	0 	0 	0.6133553184 	-3.028461395e-05 	-1.247711197e-08 	0 	0 	0
0.9981628334 	0 	0 	0 	0.5154738721 	3.110212486e-06 	-8.632279319e-09 	0 	0 	0
0.9983399109 	0 	0 	0 	0.414171488 	1.493367222e-05 	-5.602068342e-09 	0 	0 	0
0.9985169884 	0 	0 	0 	0.3111174656 	8.810590626e-06 	-3.16979472e-09 	0 	0 	0
0.9986940661 	0 	0 	0 	0.2074411913 	1.258220215e-06 	-1.360583349e-09 	0 	0 	0
0.9988711438 	0 	0 	0 	0.1036783788 	-8.704083868e-07 	-5.932759548e-10 	0 	0 	0
0.9990482216 	-0.003166953927 	8.072109278e-08 	5.079233981e-11 	0.04337653591 	-6.266289365e-07 	-4.624033949e-10 	95.26105915 	-0.001374859866 	-1.007314999e-06
