0.3675691744 	5.943046137e-06 	-5.278098104e-08 	8.932097695e-12 	5.901277361e-06 	-7.441869298e-10 	1.124947483e-08
0.3677500057 	7.325814228e-05 	-2.526961059e-06 	6.752205582e-10 	7.16625446e-05 	-1.401050263e-08 	1.366087276e-07
0.3679308446 	0.0004152969835 	-3.24786015e-05 	9.476660941e-09 	0.0003957909684 	-8.296938474e-08 	7.544875902e-07
0.3681116904 	0.001391918667 	-0.0001904363165 	5.545211364e-08 	0.00127947789 	-2.671677396e-07 	2.439040471e-06
0.3682925426 	0.00338169913 	-0.0006810858415 	1.86559934e-07 	0.002982216613 	-5.890316444e-07 	5.684933728e-06
0.3684734006 	0.006559438171 	-0.001712635045 	4.215189605e-07 	0.005558458955 	-9.9624323e-07 	1.059596766e-05
0.3686542637 	0.01073361256 	-0.003318240723 	7.104241429e-07 	0.008800160223 	-1.387666575e-06 	1.677555126e-05
0.3688351313 	0.01543033766 	-0.005311266069 	9.714091307e-07 	0.01234312106 	-1.679566868e-06 	2.352941934e-05
0.3690160028 	0.02014762115 	-0.007419083269 	1.153358683e-06 	0.01584145675 	-1.848524935e-06 	3.019821947e-05
0.3691968776 	0.02453582026 	-0.009425321396 	1.251864896e-06 	0.01907240952 	-1.911400885e-06 	3.635731345e-05
0.3693777551 	0.02841232005 	-0.01116390713 	1.200898666e-06 	0.02194631807 	-1.916031621e-06 	4.183578191e-05
0.3695586347 	0.03172560949 	-0.01254508084 	1.110149185e-06 	0.02445537669 	-1.880229783e-06 	4.6618745e-05
0.3697395158 	0.03452742024 	-0.01365449638 	1.078687282e-06 	0.02661165624 	-1.802340922e-06 	5.072921312e-05
0.3699203977 	0.03688849985 	-0.0145942144 	1.034422671e-06 	0.02843567521 	-1.692707614e-06 	5.420630024e-05
0.3701012798 	0.03886053531 	-0.01538633304 	9.846922251e-07 	0.02995691631 	-1.560268361e-06 	5.710620858e-05
0.3702821617 	0.04049611164 	-0.01605295588 	9.143842142e-07 	0.03121194795 	-1.425606674e-06 	5.94986477e-05
0.3704630425 	0.04183644834 	-0.01658671264 	8.322886845e-07 	0.03224907306 	-1.291891404e-06 	6.147569641e-05
0.3706439218 	0.04292562871 	-0.01700392188 	7.577433542e-07 	0.03310287617 	-1.157198332e-06 	6.310328245e-05
0.370824799 	0.04380820677 	-0.01734406718 	6.838071923e-07 	0.0337949668 	-1.024098435e-06 	6.442259955e-05
0.3710056733 	0.04451358921 	-0.0176170087 	6.111848877e-07 	0.03434887933 	-8.939676461e-07 	6.547851078e-05
0.3711865443 	0.04506648345 	-0.01783146368 	5.403855092e-07 	0.0347842085 	-7.677554626e-07 	6.630836917e-05
0.3713674113 	0.04548772001 	-0.0179950252 	4.71781749e-07 	0.03511735078 	-6.461332381e-07 	6.694343094e-05
0.3715482738 	0.04579481816 	-0.01811421634 	4.056615546e-07 	0.03536200169 	-5.29603757e-07 	6.740980359e-05
0.371729131 	0.04600249529 	-0.01819459857 	3.422679326e-07 	0.03552961582 	-4.185802652e-07 	6.772932269e-05
0.3719099825 	0.04612313625 	-0.01824090199 	2.818280092e-07 	0.0356298033 	-3.134463452e-07 	6.792030788e-05
0.3720908276 	0.0461672167 	-0.01825715928 	2.24571648e-07 	0.03567067665 	-2.14595185e-07 	6.799822385e-05
0.3722716657 	0.04614367442 	-0.01824683206 	1.707397415e-07 	0.03565914836 	-1.224459354e-07 	6.797624772e-05
0.3724524963 	0.04606022381 	-0.01821291892 	1.205841789e-07 	0.0356011512 	-3.744599479e-08 	6.786568902e-05
0.3726333187 	0.04592360969 	-0.01815803952 	7.436134806e-08 	0.03550176939 	3.993851017e-08 	6.767623965e-05
0.3728141323 	0.04573974198 	-0.0180845304 	3.225570837e-08 	0.03536570419 	1.093741829e-07 	6.741686157e-05
0.3729949365 	0.04547934602 	-0.01798073016 	-1.059095442e-08 	0.03517149277 	1.801621216e-07 	6.704664063e-05
0.3732758447 	0.04508484438 	-0.01782371987 	-5.619193223e-08 	0.03487513274 	2.499760184e-07 	6.648169604e-05
0.3735620054 	0.04456663924 	-0.01761757582 	-9.60714427e-08 	0.03448322153 	3.084568258e-07 	6.573460434e-05
0.3738535141 	0.04396408334 	-0.01737801174 	-1.242835707e-07 	0.03402576827 	3.443013309e-07 	6.486257129e-05
0.3741504675 	0.04328283507 	-0.01710730211 	-1.395367973e-07 	0.03350734781 	3.550878758e-07 	6.387431782e-05
0.374452964 	0.04252737227 	-0.01680719861 	-1.40489312e-07 	0.03293119579 	3.382800144e-07 	6.277601192e-05
0.3747611033 	0.04170113465 	-0.0164790623 	-1.257180746e-07 	0.03229988821 	2.91173129e-07 	6.157256422e-05
0.3750749871 	0.04080661919 	-0.01612388724 	-9.368738454e-08 	0.03161530375 	2.108290971e-07 	6.026755597e-05
0.3753947182 	0.0398454347 	-0.01574231975 	-4.270587581e-08 	0.03087864323 	9.398893341e-08 	5.886327627e-05
0.3755993181 	0.03920007107 	-0.01548618748 	6.860032993e-06 	0.03038342661 	-1.327644272e-05 	5.791925575e-05
0.3757202004 	0.03881818594 	-0.01533461799 	-2.696577489e-08 	0.03009037722 	5.89620006e-08 	5.736062217e-05
0.3760513922 	0.03772466819 	-0.01490072614 	-1.151527185e-07 	0.02925033374 	2.478196182e-07 	5.575926581e-05
0.376388741 	0.03656577044 	-0.01444103986 	-2.266508897e-07 	0.0283591983 	4.815452922e-07 	5.406051399e-05
0.3767323563 	0.03534789834 	-0.01395821857 	-3.599545212e-07 	0.02742235311 	7.568100858e-07 	5.227462667e-05
0.3770823489 	0.03408281308 	-0.01345709652 	-5.115298857e-07 	0.02644970724 	1.066128872e-06 	5.042049331e-05
0.3774388313 	0.03278050819 	-0.01294176266 	-6.793840774e-07 	0.02544962661 	1.405282077e-06 	4.851406168e-05
0.3778019175 	0.03144889615 	-0.0124154328 	-8.615465124e-07 	0.02442867508 	1.77009985e-06 	4.656784431e-05
0.3781717233 	0.03009652548 	-0.01188156405 	-1.054616052e-06 	0.02339396905 	2.153399723e-06 	4.459540703e-05
0.3785483659 	0.02873274639 	-0.01134392281 	-1.25415018e-06 	0.02235329854 	2.545829753e-06 	4.261159979e-05
0.3789319641 	0.02736843488 	-0.01080688444 	-1.453661937e-06 	0.0213157687 	2.933694114e-06 	4.063377955e-05
0.3793226385 	0.02601673739 	-0.01027573445 	-1.644031717e-06 	0.02029241717 	3.298040686e-06 	3.868298712e-05
0.3797205109 	0.02469338955 	-0.00975661548 	-1.815090556e-06 	0.01929501776 	3.626158846e-06 	3.678166663e-05
0.3801257049 	0.02341607439 	-0.00925644127 	-1.95207117e-06 	0.0183368169 	3.872368898e-06 	3.495506946e-05
0.3805383456 	0.02220228307 	-0.008783327155 	-2.04190988e-06 	0.01744234191 	3.977101971e-06 	3.324995152e-05
0.3809585596 	0.02105600559 	-0.008316356837 	-2.414867561e-06 	0.01662378139 	4.021175874e-06 	3.168954767e-05
0.381386475 	0.01994637807 	-0.007759644545 	-3.223355751e-06 	0.01586675513 	4.099356131e-06 	3.024644522e-05
0.3818233582 	0.01886511064 	-0.007141433207 	-3.62216022e-06 	0.01515503426 	4.16374087e-06 	2.888970742e-05
0.3822794906 	0.0178338253 	-0.00656072345 	-3.602837879e-06 	0.01448767083 	4.184360681e-06 	2.761752725e-05
0.3827440409 	0.01686378966 	-0.006017376235 	-3.672396014e-06 	0.01386508344 	4.199748626e-06 	2.643070263e-05
0.3832171622 	0.01596412648 	-0.00550903398 	-3.719219235e-06 	0.01328933929 	4.14197729e-06 	2.533317427e-05
0.3836990102 	0.01513785845 	-0.00503558664 	-3.732522477e-06 	0.01276964416 	3.959598267e-06 	2.43424909e-05
0.3841897433 	0.01438685067 	-0.004596448834 	-3.713492863e-06 	0.01230914619 	3.696315118e-06 	2.346465379e-05
0.384689523 	0.01371171253 	-0.004191288874 	-3.659787585e-06 	0.01190880617 	3.353743909e-06 	2.270149444e-05
0.3851985134 	0.01311143889 	-0.003819366069 	-3.576960728e-06 	0.01156843087 	2.940617554e-06 	2.205264452e-05
0.3857168816 	0.01258339674 	-0.003479359841 	-3.471319787e-06 	0.0112866096 	2.467979003e-06 	2.151541485e-05
0.3862447977 	0.01212349953 	-0.003169508188 	-3.34868048e-06 	0.01106096422 	1.946519973e-06 	2.108527203e-05
0.3867824347 	0.0117265339 	-0.002887822263 	-3.213085746e-06 	0.01088857007 	1.383043838e-06 	2.075664088e-05
0.3873299689 	0.01138664772 	-0.002632289339 	-3.066290526e-06 	0.01076661417 	7.749679961e-07 	2.052415903e-05
0.3878875794 	0.01109808085 	-0.002401509656 	-2.893795029e-06 	0.01069302398 	1.117360861e-07 	2.038387567e-05
0.3884554486 	0.01085608277 	-0.002194590593 	-2.559696731e-06 	0.01066623452 	-5.719529576e-07 	2.033280752e-05
0.3890337624 	0.01065676453 	-0.002008468868 	-2.211851453e-06 	0.01068313284 	-1.145314846e-06 	2.036502042e-05
0.3896227096 	0.01049571017 	-0.001838414797 	-1.932412793e-06 	0.01073734725 	-1.567718375e-06 	2.046836816e-05
0.3902224824 	0.01036746399 	-0.001681772599 	-1.681375812e-06 	0.01082124263 	-1.856723398e-06 	2.062829606e-05
0.3908332767 	0.01026632462 	-0.001537251063 	-1.459898475e-06 	0.01092858294 	-2.045230346e-06 	2.083291654e-05
0.3914552915 	0.01018719627 	-0.001403159346 	-1.269611575e-06 	0.01105475439 	-2.15563524e-06 	2.107343437e-05
0.3920887296 	0.01012588845 	-0.001277858831 	-1.10468773e-06 	0.01119623753 	-2.203168245e-06 	2.134314057e-05
0.3927337972 	0.01007900171 	-0.001159983841 	-9.607561612e-07 	0.01135022575 	-2.198373857e-06 	2.163668491e-05
0.3933907042 	0.01004376324 	-0.00104837818 	-8.341459585e-07 	0.01151441109 	-2.149870404e-06 	2.19496678e-05
0.3940596643 	0.01001790411 	-0.0009420844127 	-7.218374424e-07 	0.01168700641 	-2.06477384e-06 	2.227868246e-05
0.3947408949 	0.009999540335 	-0.0008402249338 	-6.213762748e-07 	0.01186635193 	-1.948752233e-06 	2.262056486e-05
0.3954346172 	0.009987106695 	-0.0007418750087 	-5.307052858e-07 	0.01205169807 	-1.80655989e-06 	2.297388612e-05
0.3961494788 	0.009979335442 	-0.0006459655702 	-4.472310231e-07 	0.01224362564 	-1.638877941e-06 	2.333975341e-05
0.3968878893 	0.009975184659 	-0.000551789376 	-3.695549105e-07 	0.01244121598 	-1.447305542e-06 	2.371641551e-05
0.3976397877 	0.009973794756 	-0.0004595445124 	-2.977273093e-07 	0.01264235837 	-1.237677178e-06 	2.409984882e-05
0.3984054155 	0.009974387718 	-0.0003692794205 	-2.307725953e-07 	0.01284589744 	-1.011936875e-06 	2.448785086e-05
0.3991850187 	0.009976248589 	-0.0002805699978 	-1.678162642e-07 	0.01305127925 	-7.718385146e-07 	2.487936566e-05
0.3999788474 	0.00997878166 	-0.0001930976398 	-1.081084435e-07 	0.01325813478 	-5.188556391e-07 	2.527368981e-05
0.4007871563 	0.009981474419 	-0.0001065655534 	-5.100056062e-08 	0.0134661241 	-2.542180202e-07 	2.567017525e-05
0.4015479658 	0.009983703287 	-2.720488884e-05 	2.878407436e-07 	0.01365920046 	6.180405127e-07 	2.603823245e-05
0.4016101199 	0.009983886354 	-2.071082742e-05 	-4.164598822e-09 	0.0136750015 	-2.055798449e-08 	2.606835363e-05
0.4024470408 	0.009985631926 	6.468519835e-05 	-5.876799344e-08 	0.01388464908 	-2.994728647e-07 	2.646800018e-05
0.4032992213 	0.009986363741 	0.0001499026371 	-1.121534868e-07 	0.01409481884 	-5.87654195e-07 	2.686864217e-05
0.4041669344 	0.009985600499 	0.0002456277736 	-1.646642092e-07 	0.01433251176 	-8.853747912e-07 	2.732175093e-05
0.4054980656 	0.009982237893 	0.0003627414425 	-2.43715274e-07 	0.01461954802 	-1.343947341e-06 	2.786892183e-05
0.4068429052 	0.009975517335 	0.0004901437197 	-3.215353035e-07 	0.01492507488 	-1.81103026e-06 	2.845134092e-05
0.4082015963 	0.009965308794 	0.0006170789907 	-3.998572916e-07 	0.01522148247 	-2.283684606e-06 	2.901637618e-05
0.4095742835 	0.009951459433 	0.0007443509974 	-4.798781692e-07 	0.01551113728 	-2.760351972e-06 	2.956853875e-05
0.4109925526 	0.009933708345 	0.0008732709738 	-5.648520755e-07 	0.01579617229 	-3.254239432e-06 	3.011189471e-05
0.4124285917 	0.009911993903 	0.001003878602 	-6.531861128e-07 	0.01607441802 	-3.754421678e-06 	3.064230839e-05
0.4138792945 	0.009886620383 	0.001135145177 	-7.458222537e-07 	0.01634441308 	-4.243506867e-06 	3.115699402e-05
0.4153448143 	0.009857251357 	0.001268744724 	-8.827276603e-07 	0.01660566873 	-4.73889028e-06 	3.165501991e-05
0.4168253059 	0.009829981602 	0.001402475941 	-7.772287584e-07 	0.0168327611 	-3.793586212e-06 	3.208792107e-05
0.4183209264 	0.009820029514 	0.001524726108 	-4.921372308e-07 	0.01696955421 	-2.125131912e-06 	3.234868677e-05
0.4198318349 	0.009826147626 	0.00163448744 	-3.563983059e-07 	0.01702875401 	-1.451084802e-06 	3.246153804e-05
0.4213581924 	0.00983496099 	0.00173984557 	-2.666990775e-07 	0.01706885769 	-1.231540322e-06 	3.253798679e-05
0.4229001622 	0.009843996043 	0.001840209639 	-1.736370649e-07 	0.01710549764 	-1.026817826e-06 	3.260783273e-05
0.4244819438 	0.009853511095 	0.001935107128 	-9.866947425e-08 	0.01713992414 	-8.227123912e-07 	3.267345921e-05
0.4260925758 	0.009863210152 	0.002024830405 	-4.319048833e-08 	0.01717176989 	-6.205768914e-07 	3.273416605e-05
0.4277195391 	0.009873002601 	0.00210856371 	-7.674756336e-09 	0.01720123946 	-4.237916159e-07 	3.279034325e-05
0.4293630066 	0.00988282996 	0.002186190553 	7.864683283e-09 	0.01722866227 	-2.324765432e-07 	3.284261875e-05
0.4310231538 	0.009892644096 	0.002257977237 	3.965087282e-09 	0.01725435381 	-4.640774805e-08 	3.289159395e-05
0.431448537 	0.009895119486 	0.002274714099 	6.294827436e-07 	0.01726053048 	-4.273509701e-07 	3.290336841e-05
0.4326988195 	0.009902410809 	0.002324023664 	1.397812873e-08 	0.01727869724 	-1.339803129e-07 	3.29379993e-05
0.4343910777 	0.009912083566 	0.002384885675 	4.791925661e-08 	0.01730181212 	-3.097049722e-07 	3.298206269e-05
0.436100568 	0.00992169219 	0.002440969887 	9.778731421e-08 	0.01732407106 	-4.811869493e-07 	3.302449442e-05
0.4378450104 	0.009931404251 	0.00249265289 	1.623470451e-07 	0.01734619901 	-6.505798079e-07 	3.306667644e-05
0.4396278893 	0.009941156721 	0.002540724786 	2.400444585e-07 	0.01736803698 	-8.181108318e-07 	3.310830567e-05
0.4414287725 	0.009950884707 	0.002585274496 	3.280345328e-07 	0.01738957271 	-9.813154332e-07 	3.314935877e-05
0.4432478542 	0.009960638797 	0.002626351551 	4.240261365e-07 	0.01741112977 	-1.140252984e-06 	3.319045252e-05
0.445085332 	0.009970444014 	0.00266449653 	5.260507928e-07 	0.01743278037 	-1.295112278e-06 	3.323172457e-05
0.4469414059 	0.009980380603 	0.002700040521 	6.323000025e-07 	0.01745478241 	-1.445975313e-06 	3.327366657e-05
0.4488162792 	0.009990360148 	0.00273367526 	7.047354765e-07 	0.01747678558 	-1.514527026e-06 	3.331561074e-05
0.4507145584 	0.01000061009 	0.00276531937 	6.547709372e-07 	0.01749962897 	-1.334850997e-06 	3.33591566e-05
0.4526669111 	0.01001124307 	0.002795661417 	5.932199555e-07 	0.01752338102 	-1.155663995e-06 	3.34044346e-05
0.4546388831 	0.01002210234 	0.002825221442 	5.236851533e-07 	0.01754743176 	-9.813718588e-07 	3.345028199e-05
0.4566306909 	0.01003326183 	0.00285357884 	4.476636346e-07 	0.01757223115 	-8.115270171e-07 	3.349755652e-05
0.4586425543 	0.01004476453 	0.002881076047 	3.666550552e-07 	0.01759777561 	-6.459822944e-07 	3.354625136e-05
0.4606746966 	0.01005661494 	0.002907999844 	2.818645525e-07 	0.01762398444 	-4.845076872e-07 	3.359621268e-05
0.4627273447 	0.01006884035 	0.002934468492 	1.942618908e-07 	0.01765096382 	-3.268561725e-07 	3.364764288e-05
0.4648189542 	0.01008162734 	0.002960513161 	1.035921183e-07 	0.01767924091 	-1.710385863e-07 	3.370154687e-05
0.466953052 	0.0100949688 	0.002986621548 	1.038594748e-08 	0.01770851997 	-1.686210973e-08 	3.37573609e-05
0.4671922495 	0.01009649876 	0.002989518613 	4.930033655e-08 	0.01771185789 	-2.334508579e-07 	3.376372389e-05
0.469107006 	0.0101087646 	0.003012713924 	8.285492846e-08 	0.01773854892 	-1.339490331e-07 	3.381460441e-05
0.4712824151 	0.01012306622 	0.003038571833 	1.765529622e-07 	0.01776962585 	-2.814407552e-07 	3.387384569e-05
0.4734797172 	0.01013786861 	0.003064419252 	2.704957239e-07 	0.01780161996 	-4.258112485e-07 	3.393483536e-05
0.4756991628 	0.01015317317 	0.003090310183 	3.644475467e-07 	0.01783456702 	-5.672744523e-07 	3.39976416e-05
0.4779561872 	0.01016914795 	0.003116154583 	4.590233241e-07 	0.01786899525 	-7.071255139e-07 	3.406327137e-05
0.4802602884 	0.01018581373 	0.003142339141 	5.545100322e-07 	0.01790468057 	-8.460287145e-07 	3.413129751e-05
0.4825874655 	0.01020303996 	0.003168848619 	6.494869151e-07 	0.01794129586 	-9.822323655e-07 	3.420109643e-05
0.4849379871 	0.01022086054 	0.003195293591 	7.438510745e-07 	0.01797917268 	-1.115738488e-06 	3.427330017e-05
0.4873121266 	0.01023919295 	0.003222021307 	8.376027015e-07 	0.01801788437 	-1.246842736e-06 	3.434709541e-05
0.4897101617 	0.01025814498 	0.003248755119 	8.2674562e-07 	0.01805797797 	-1.221989438e-06 	3.442352496e-05
0.492163323 	0.01027788754 	0.003275697027 	7.336319926e-07 	0.01809971405 	-1.076897871e-06 	3.450308553e-05
0.4946490888 	0.01029828303 	0.003303221997 	6.407400623e-07 	0.01814245322 	-9.344820861e-07 	3.458455827e-05
0.4971597453 	0.01031928684 	0.003330835643 	5.485078467e-07 	0.01818644519 	-7.950717703e-07 	3.46684192e-05
0.4996955911 	0.01034083797 	0.003358704543 	4.569817438e-07 	0.01823141637 	-6.585850161e-07 	3.475414676e-05
0.5022569303 	0.01036300086 	0.003386697161 	3.661688791e-07 	0.01827769401 	-5.248443403e-07 	3.484236481e-05
0.5048675072 	0.01038594276 	0.00341490708 	2.750336109e-07 	0.01832561289 	-3.921226158e-07 	3.493371151e-05
0.507518827 	0.01040959615 	0.003443686095 	1.841907285e-07 	0.01837469554 	-2.612801633e-07 	3.502727668e-05
0.5101966917 	0.01043387999 	0.003472698983 	9.435635186e-08 	0.01842500255 	-1.332072821e-07 	3.512317582e-05
0.5129014286 	0.01045870118 	0.003502031465 	5.540068002e-09 	0.01847625088 	-7.786033453e-09 	3.522086939e-05
0.5130736398 	0.01046030531 	0.003503888421 	2.419631089e-08 	0.01847957112 	-1.181004255e-07 	3.522719868e-05
0.5156320481 	0.01048415509 	0.003531465812 	8.155167158e-08 	0.018528877 	-1.150020572e-07 	3.53211894e-05
0.518419256 	0.01051043103 	0.003561235445 	1.687325273e-07 	0.01858314779 	-2.369635645e-07 	3.542464461e-05
0.5212419599 	0.01053741191 	0.003591640483 	2.549491026e-07 	0.01863848768 	-3.566872392e-07 	3.553013781e-05
0.5240930218 	0.01056498617 	0.003622318851 	3.398683845e-07 	0.01869495888 	-4.738053418e-07 	3.563778762e-05
0.5269728009 	0.01059313251 	0.003653315178 	4.234900402e-07 	0.0187524975 	-5.884550093e-07 	3.574747223e-05
0.5298914659 	0.01062201152 	0.00368455314 	5.061692464e-07 	0.01881158232 	-7.011930074e-07 	3.586010432e-05
0.532864735 	0.01065169874 	0.003716360968 	5.883472687e-07 	0.01887203383 	-8.126562672e-07 	3.597534169e-05
0.5358678962 	0.01068205889 	0.00374870056 	6.689523303e-07 	0.01893353552 	-9.216077329e-07 	3.6092581e-05
0.538901337 	0.01071295952 	0.003781446505 	7.480036661e-07 	0.01899592981 	-1.028144551e-06 	3.621152186e-05
0.5419666093 	0.01074454189 	0.003814438411 	8.254986205e-07 	0.01905975629 	-1.132389622e-06 	3.633319287e-05
0.5450948104 	0.01077699728 	0.003847984412 	8.027523025e-07 	0.01912507357 	-1.099066864e-06 	3.645770577e-05
0.5482545274 	0.01081016549 	0.003882250757 	7.241782018e-07 	0.01919129138 	-9.899939394e-07 	3.658393531e-05
0.5514461789 	0.01084388008 	0.003916962945 	6.472263491e-07 	0.01925835168 	-8.837146261e-07 	3.671177089e-05
0.5546709803 	0.01087828431 	0.003952005494 	5.718201335e-07 	0.01932673621 	-7.800614014e-07 	3.684213081e-05
0.5579586754 	0.01091358486 	0.003987661123 	4.971121998e-07 	0.01939652253 	-6.776292832e-07 	3.697516293e-05
0.5612796104 	0.01094960047 	0.00402414006 	4.242275465e-07 	0.01946703021 	-5.781039315e-07 	3.710957016e-05
0.564634237 	0.01098620159 	0.004061076019 	3.531885922e-07 	0.01953841408 	-4.813013606e-07 	3.724564766e-05
0.5680294603 	0.01102355683 	0.004098491486 	2.837677729e-07 	0.0196110012 	-3.868324791e-07 	3.738401889e-05
0.5714814891 	0.01106179667 	0.004136639445 	2.156600918e-07 	0.01968470583 	-2.941629431e-07 	3.752452039e-05
0.5749685919 	0.01110072679 	0.004175624386 	1.496238981e-07 	0.01975896116 	-2.043056291e-07 	3.76660717e-05
0.5784912566 	0.01114031189 	0.004215090751 	8.565060093e-08 	0.01983413604 	-1.17118633e-07 	3.78093759e-05
0.5820660421 	0.01118076092 	0.004255220582 	2.332260116e-08 	0.01991037144 	-3.194670819e-08 	3.795470176e-05
0.583462122 	0.0111966731 	0.004271037978 	2.216156753e-07 	0.01994000807 	-7.590346092e-07 	3.801119741e-05
0.5856870712 	0.01122204136 	0.004296237894 	3.662893966e-08 	0.01998723204 	-5.068863852e-08 	3.810121944e-05
0.5893448323 	0.01126399472 	0.004337975416 	9.40695081e-08 	0.02006460325 	-1.305151988e-07 	3.824871046e-05
0.593044075 	0.01130672776 	0.00438032667 	1.493502106e-07 	0.02014282293 	-2.078360225e-07 	3.839781891e-05
0.5968014921 	0.01135039845 	0.004423543502 	2.026964987e-07 	0.02022178909 	-2.830162155e-07 	3.854835036e-05
0.6005975097 	0.01139482571 	0.004467728348 	2.535281577e-07 	0.02030094989 	-3.553628997e-07 	3.869925286e-05
0.6044326823 	0.01143999304 	0.004512539747 	3.019013661e-07 	0.02038072034 	-4.249894723e-07 	3.88513175e-05
0.6083262453 	0.01148612974 	0.004558215052 	3.481384518e-07 	0.02046110564 	-4.923722137e-07 	3.900455422e-05
0.6122629626 	0.01153310768 	0.004604956281 	3.917127306e-07 	0.02054150439 	-5.569023286e-07 	3.915781658e-05
0.6162404639 	0.01158085177 	0.004652417552 	4.326493464e-07 	0.02062223482 	-6.186077123e-07 	3.931171122e-05
0.6202729019 	0.01162957242 	0.004700764216 	4.711716625e-07 	0.02070332253 	-6.778199286e-07 	3.946628694e-05
0.6243530268 	0.0116791983 	0.004750209739 	5.06919795e-07 	0.02078424173 	-7.341231964e-07 	3.962054141e-05
0.6284756376 	0.01172964678 	0.004800466522 	5.398880118e-07 	0.02086521531 	-7.874853241e-07 	3.977489957e-05
0.6326526999 	0.01178110282 	0.004851651208 	5.702561544e-07 	0.02094625453 	-8.381484614e-07 	3.992938284e-05
0.6368792419 	0.01183351373 	0.004903962594 	5.97729024e-07 	0.02102686403 	-8.857504485e-07 	4.008304696e-05
0.6411500483 	0.01188680879 	0.004957132537 	6.223430237e-07 	0.02110726062 	-9.302848592e-07 	4.02363052e-05
0.6454768345 	0.01194116608 	0.005011288905 	6.442505859e-07 	0.02118738749 	-9.719209409e-07 	4.038904929e-05
0.6498531354 	0.01199652011 	0.005066580982 	6.63185007e-07 	0.02126677559 	-1.010299311e-06 	4.054038507e-05
0.65427556 	0.01205283019 	0.00512274727 	6.792684484e-07 	0.02134568022 	-1.045488997e-06 	4.069079922e-05
0.6587567266 	0.01211026562 	0.005179975417 	6.811838641e-07 	0.02142390343 	-1.059781636e-06 	4.08399144e-05
0.6632864859 	0.01216874404 	0.005238291804 	6.500901214e-07 	0.02150112467 	-1.022927954e-06 	4.098711955e-05
0.6678663167 	0.01222828655 	0.00529750871 	6.210011319e-07 	0.021577543 	-9.887717427e-07 	4.113279412e-05
0.6725042632 	0.0122888312 	0.005357673984 	5.938669371e-07 	0.02165260639 	-9.571828831e-07 	4.127588581e-05
0.6771398434 	0.01234974976 	0.00541812694 	5.690218079e-07 	0.02172566665 	-9.287131572e-07 	4.141515897e-05
0.6817269438 	0.01241059996 	0.00547829263 	5.464494902e-07 	0.02179622286 	-9.033167577e-07 	4.154965871e-05
0.6862659936 	0.01247122615 	0.005538139732 	5.260616516e-07 	0.02186383913 	-8.808807312e-07 	4.167855411e-05
0.6907531043 	0.01253155493 	0.005597474111 	5.077186999e-07 	0.02192877474 	-8.612199079e-07 	4.180233943e-05
0.6951949272 	0.0125917056 	0.005656378633 	4.911701001e-07 	0.02199100722 	-8.439836143e-07 	4.192097185e-05
0.6995877647 	0.01265160768 	0.005714886408 	4.763558653e-07 	0.02205038178 	-8.291663587e-07 	4.203415625e-05
0.7039307073 	0.01271122341 	0.005772815338 	4.631226857e-07 	0.0221072168 	-8.165243744e-07 	4.214249961e-05
0.7082302496 	0.01277067532 	0.005830291213 	4.51283968e-07 	0.02216142576 	-8.057977809e-07 	4.224583694e-05
0.7124812566 	0.01282987321 	0.005887282965 	4.407907067e-07 	0.02221297241 	-7.969677363e-07 	4.234409918e-05
0.7166846618 	0.01288882136 	0.005943669852 	4.314964942e-07 	0.02226212662 	-7.897808647e-07 	4.243780078e-05
0.7208449964 	0.01294762394 	0.005999580224 	4.232734151e-07 	0.02230877911 	-7.84060907e-07 	4.252673339e-05
0.7249584804 	0.0130061937 	0.006054956838 	4.160730476e-07 	0.0223529796 	-7.797460602e-07 	4.26109918e-05
0.729026125 	0.01306456453 	0.006109728117 	4.097725585e-07 	0.02239495116 	-7.766113821e-07 	4.269100126e-05
0.7330514326 	0.01312283564 	0.00616401178 	4.042775661e-07 	0.02243459924 	-7.74513066e-07 	4.276658153e-05
0.7370316237 	0.01318093061 	0.006217763411 	3.995500189e-07 	0.02247198197 	-7.733785624e-07 	4.28378434e-05
0.7409673456 	0.01323888279 	0.006270921437 	3.954989773e-07 	0.02250732197 	-7.730170831e-07 	4.290521126e-05
0.744861872 	0.01329681025 	0.00632359734 	3.920435341e-07 	0.02254055488 	-7.732837377e-07 	4.296856242e-05
0.7487129188 	0.01335465546 	0.006375783136 	3.891600841e-07 	0.02257169544 	-7.741181147e-07 	4.302792498e-05
0.7525210598 	0.01341242557 	0.006427403205 	3.867920529e-07 	0.02260099103 	-7.753598199e-07 	4.308377053e-05
0.7562885687 	0.0134702623 	0.006478559149 	3.848627227e-07 	0.02262841549 	-7.768585121e-07 	4.313604916e-05
0.7600145333 	0.01352814119 	0.006529286723 	3.833607309e-07 	0.02265393024 	-7.785628016e-07 	4.318468738e-05
0.7636991078 	0.0135860343 	0.006579499671 	3.822602677e-07 	0.02267779308 	-7.803464098e-07 	4.323017658e-05
0.7673436288 	0.01364408849 	0.006629276457 	3.814921691e-07 	0.02270003019 	-7.820595475e-07 	4.327256668e-05
0.7709484819 	0.0137023299 	0.006678685457 	3.810489683e-07 	0.02272057966 	-7.836500223e-07 	4.331173969e-05
0.7745133872 	0.01376070807 	0.006727661457 	3.809254415e-07 	0.02273964042 	-7.850251033e-07 	4.33480748e-05
0.7780389421 	0.01381932624 	0.006776231374 	3.810768915e-07 	0.02275732586 	-7.860598442e-07 	4.338178817e-05
0.7815265585 	0.01387827841 	0.006824478365 	3.814813123e-07 	0.02277359905 	-7.866726642e-07 	4.341280939e-05
0.784975603 	0.01393753188 	0.006872398538 	3.821430801e-07 	0.0227885251 	-7.868089711e-07 	4.344126258e-05
0.7883865467 	0.01399710016 	0.006919953388 	3.68870289e-07 	0.02280230937 	-7.572637484e-07 	4.346753923e-05
0.7917602851 	0.01405711564 	0.006967215022 	3.558798213e-07 	0.0228149694 	-7.274517025e-07 	4.349167277e-05
0.7950971832 	0.0141176102 	0.007014233957 	3.432065792e-07 	0.02282648716 	-6.975201619e-07 	4.351362881e-05
0.7983972724 	0.01417854449 	0.007060972684 	3.30880618e-07 	0.02283702047 	-6.675852823e-07 	4.353370823e-05
0.8016609923 	0.0142399866 	0.007107438814 	3.189151769e-07 	0.02284670197 	-6.377628739e-07 	4.355216387e-05
0.8048892448 	0.0143020434 	0.007153700846 	3.072837359e-07 	0.02285552256 	-6.080987057e-07 	4.356897835e-05
0.8080820428 	0.01436471547 	0.007199780106 	2.959586669e-07 	0.02286350796 	-5.786202955e-07 	4.358420075e-05
0.8112396897 	0.01442797585 	0.00724564169 	2.849583375e-07 	0.02287082312 	-5.494378794e-07 	4.359814549e-05
0.8143625974 	0.01449190131 	0.007291307134 	2.742783555e-07 	0.02287755997 	-5.206428358e-07 	4.361098779e-05
0.8174515457 	0.01455657152 	0.007336830967 	2.638881461e-07 	0.02288370785 	-4.922715186e-07 	4.362270736e-05
0.8205065383 	0.0146219699 	0.007382216237 	2.537707241e-07 	0.02288932093 	-4.643754617e-07 	4.363340744e-05
0.8235279445 	0.01468807109 	0.00742743457 	2.439413993e-07 	0.02289454189 	-4.37064224e-07 	4.364336005e-05
0.8265161521 	0.01475493219 	0.007472500564 	2.344013988e-07 	0.0228994512 	-4.104341731e-07 	4.365271855e-05
0.8294717838 	0.0148226172 	0.007517456598 	2.251303844e-07 	0.02290403836 	-3.845376535e-07 	4.366146296e-05
0.8323949679 	0.01489110591 	0.007562302382 	2.161067871e-07 	0.02290834947 	-3.594162946e-07 	4.366968113e-05
0.8352860472 	0.01496035851 	0.0076070097 	2.073187607e-07 	0.02291250177 	-3.351205918e-07 	4.367759658e-05
0.8381453877 	0.01503038824 	0.007651571523 	1.987249771e-07 	0.02291658838 	-3.116441327e-07 	4.368538678e-05
0.8409734693 	0.01510121702 	0.007696000692 	1.902504241e-07 	0.0229206357 	-2.889059518e-07 	4.369310211e-05
0.8437705646 	0.0151727728 	0.007740271225 	1.818032039e-07 	0.02292471926 	-2.667784213e-07 	4.37008865e-05
0.8465369613 	0.01524491649 	0.007784310578 	1.73324653e-07 	0.02292902081 	-2.451791812e-07 	4.370908645e-05
0.8492730063 	0.01531754073 	0.007828059056 	1.647884935e-07 	0.02293371064 	-2.240901365e-07 	4.371802657e-05
0.851979068 	0.01539059439 	0.007871495918 	1.562268584e-07 	0.022938866 	-2.036168021e-07 	4.372785413e-05
0.8546555343 	0.01546406638 	0.007914639346 	1.477413737e-07 	0.02294444671 	-1.840260676e-07 	4.373849251e-05
0.8573026396 	0.01553801723 	0.007957538208 	1.395238133e-07 	0.02295034005 	-1.657840223e-07 	4.374972686e-05
0.859920713 	0.01561269493 	0.008000328293 	1.318077471e-07 	0.02295623274 	-1.494622295e-07 	4.376095995e-05
0.862510079 	0.01568853449 	0.008043223461 	1.247960702e-07 	0.02296162327 	-1.355790514e-07 	4.377123581e-05
0.8650710966 	0.01576606406 	0.008086469503 	1.185765427e-07 	0.02296589971 	-1.243986927e-07 	4.377938789e-05
0.8676040616 	0.01584565247 	0.008130222371 	1.130444516e-07 	0.02296860692 	-1.157353585e-07 	4.378454858e-05
0.8701092526 	0.01592727153 	0.008174423657 	1.078831235e-07 	0.02296977826 	-1.088507087e-07 	4.378678149e-05
0.8725869784 	0.01601032096 	0.00821874703 	1.025692774e-07 	0.02297007585 	-1.024420837e-07 	4.378734878e-05
0.8750375438 	0.01609349326 	0.008262564608 	9.646939379e-08 	0.02297091029 	-9.484428726e-08 	4.378893945e-05
0.8774612751 	0.01617487728 	0.008305031202 	8.90010406e-08 	0.02297426293 	-8.443236896e-08 	4.379533051e-05
0.8798584493 	0.01625229313 	0.008345256728 	7.98343006e-08 	0.02298227324 	-7.018258315e-08 	4.38106004e-05
0.8822293439 	0.01632396745 	0.008382583483 	6.910184064e-08 	0.02299655626 	-5.227311946e-08 	4.38378278e-05
0.8845742495 	0.01638939191 	0.008416932214 	5.750984259e-08 	0.02301726421 	-3.245698829e-08 	4.38773029e-05
0.886893453 	0.01645004623 	0.00844905919 	4.631527387e-08 	0.02304238203 	-1.399454497e-08 	4.392518444e-05
0.8891872474 	0.01650977428 	0.008480663564 	3.707038912e-08 	0.02306741963 	-9.105338157e-10 	4.397291308e-05
0.8914559102 	0.01657441534 	0.008514180283 	3.109166094e-08 	0.02308590869 	3.424881968e-09 	4.400815836e-05
0.8936997032 	0.01665055214 	0.008552175947 	2.878334793e-08 	0.023090902 	-1.99829759e-09 	4.4017677e-05
0.8959189001 	0.0167433991 	0.008596416851 	2.915424723e-08 	0.02307724078 	-1.466218312e-08 	4.399163491e-05
0.8981137716 	0.01685418475 	0.008646847033 	3.001417366e-08 	0.02304419607 	-2.885691621e-08 	4.392864252e-05
0.9002845849 	0.01697803577 	0.008700999322 	2.8976279e-08 	0.02299743215 	-3.788112855e-08 	4.383949749e-05
0.9024316135 	0.01710350424 	0.008754268512 	2.471884358e-08 	0.02294911803 	-3.726759905e-08 	4.374739735e-05
0.9045551051 	0.01721451256 	0.008801020767 	1.765443658e-08 	0.02291563657 	-2.726056523e-08 	4.368357238e-05
0.9066553167 	0.01729467129 	0.008836127357 	9.643493582e-09 	0.02291302596 	-1.300250941e-08 	4.367859582e-05