0.2743793766 	-0.01124213684 	-0.002778039073 	1.870261294e-06 	0.06187642361 	0.01529167073 	-1.012523673e-05 	338.1872264 	83.50166373 	-0.05622474541
0.2746002666 	0 	0 	0 	0.1956002205 	0.04819784088 	-3.530647962e-05 	0 	0 	0
0.2748211659 	0 	0 	0 	0.389417997 	0.09580944947 	-7.202521505e-05 	0 	0 	0
0.2750420732 	0 	0 	0 	0.580040474 	0.1426520247 	-0.0001098495907 	0 	0 	0
0.2752629871 	0 	0 	0 	0.764000341 	0.1879337731 	-0.0001478170022 	0 	0 	0
0.2754839061 	0 	0 	0 	0.936454081 	0.2304016602 	-0.0001845912544 	0 	0 	0
0.2757048289 	0 	0 	0 	1.093600016 	0.2690151175 	-0.0002194268503 	0 	0 	0
0.2759257541 	0 	0 	0 	1.234264377 	0.303412275 	-0.0002519712245 	0 	0 	0
0.2761466802 	0 	0 	0 	1.359487445 	0.3339000927 	-0.000282725513 	0 	0 	0
0.276367606 	0 	0 	0 	1.471197189 	0.3611479546 	-0.0003125663001 	0 	0 	0
0.2765885301 	0 	0 	0 	1.571260248 	0.3855874046 	-0.000341092941 	0 	0 	0
0.276809451 	0 	0 	0 	1.661235701 	0.4075028789 	-0.0003682479299 	0 	0 	0
0.2770303673 	0 	0 	0 	1.742419712 	0.4272346418 	-0.0003944101067 	0 	0 	0
0.2772512778 	0 	0 	0 	1.8159171 	0.4450676326 	-0.0004195580164 	0 	0 	0
0.277472181 	0 	0 	0 	1.882820532 	0.4612711041 	-0.0004438142948 	0 	0 	0
0.2776930756 	0 	0 	0 	1.944258169 	0.4761226658 	-0.0004673978914 	0 	0 	0
0.2779139602 	0 	0 	0 	2.00113501 	0.4898451557 	-0.0004862497743 	0 	0 	0
0.2781348334 	0 	0 	0 	2.054057931 	0.5025884073 	-0.0004885082099 	0 	0 	0
0.2783556938 	0 	0 	0 	2.10347537 	0.5144634426 	-0.000489406178 	0 	0 	0
0.2785765402 	0 	0 	0 	2.149755001 	0.5255611681 	-0.0004890497433 	0 	0 	0
0.2787973711 	0 	0 	0 	2.19320696 	0.535958131 	-0.0004875298693 	0 	0 	0
0.2790181852 	0 	0 	0 	2.23409497 	0.5457192806 	-0.0004849234295 	0 	0 	0
0.2792389811 	0 	0 	0 	2.27264282 	0.5548996313 	-0.0004812896474 	0 	0 	0
0.2794597575 	0 	0 	0 	2.309035925 	0.5635447858 	-0.000476649865 	0 	0 	0
0.279680513 	0 	0 	0 	2.343419092 	0.571690172 	-0.0004709741509 	0 	0 	0
0.2799012463 	0 	0 	0 	2.375897554 	0.5793609728 	-0.0004642273469 	0 	0 	0
0.280121956 	0 	0 	0 	2.406546316 	0.5865746783 	-0.0004564230062 	0 	0 	0
0.2803426408 	0 	0 	0 	2.435422492 	0.5933445025 	-0.0004476146247 	0 	0 	0
0.2805632993 	0 	0 	0 	2.462572885 	0.5996811132 	-0.0004378652198 	0 	0 	0
0.2807839302 	0 	0 	0 	2.488036072 	0.6055924501 	-0.0004272336713 	0 	0 	0
0.2810045322 	0 	0 	0 	2.515029688 	0.6118239033 	-0.0004157534695 	0 	0 	0
0.2813472362 	0 	0 	0 	2.545734572 	0.6188335794 	-0.0003965024843 	0 	0 	0
0.281696301 	0 	0 	0 	2.576089842 	0.6256812811 	-0.000375489798 	0 	0 	0
0.2820518376 	0 	0 	0 	2.60297425 	0.6316329524 	-0.0003527338946 	0 	0 	0
0.2824139586 	0 	0 	0 	2.62644593 	0.6366705506 	-0.0003292244109 	0 	0 	0
0.2827827779 	0 	0 	0 	2.646814354 	0.6408840639 	-0.0003066158243 	0 	0 	0
0.283158411 	0 	0 	0 	2.664508062 	0.6444243353 	-0.0002843688166 	0 	0 	0
0.2835409748 	0 	0 	0 	2.679876951 	0.6473588091 	-0.0002618944545 	0 	0 	0
0.2839305874 	0 	0 	0 	2.693166723 	0.6497242934 	-0.0002396420264 	0 	0 	0
0.2843273686 	0 	0 	0 	2.704590685 	0.6515854312 	-0.0002176921573 	0 	0 	0
0.2847314394 	0 	0 	0 	2.714361519 	0.6530002215 	-0.0001960134982 	0 	0 	0
0.285142922 	0 	0 	0 	2.722683841 	0.6540199648 	-0.0001746090719 	0 	0 	0
0.2855619401 	0 	0 	0 	2.729746799 	0.6546926508 	-0.0001534454337 	0 	0 	0
0.2859886185 	0 	0 	0 	2.735718117 	0.6550609101 	-0.0001324888397 	0 	0 	0
0.2864230833 	0 	0 	0 	2.740746965 	0.6551629619 	-0.0001117269917 	0 	0 	0
0.2868654618 	0 	0 	0 	2.744977119 	0.6550363839 	-9.113348716e-05 	0 	0 	0
0.2873158822 	0 	0 	0 	2.74855135 	0.6547185707 	-7.064603807e-05 	0 	0 	0
0.287774474 	0 	0 	0 	2.751598376 	0.654242709 	-5.019551166e-05 	0 	0 	0
0.2882413675 	0 	0 	0 	2.754221563 	0.6536354711 	-2.972780578e-05 	0 	0 	0
0.2887166941 	0 	0 	0 	2.756500269 	0.6529176165 	-9.205153329e-06 	0 	0 	0
0.2889322335 	0 	0 	0 	2.757387814 	0.6525552078 	-2.789277882e-05 	0 	0 	0
0.2891994944 	0 	0 	0 	2.758489041 	0.6521093804 	-1.110334805e-05 	0 	0 	0
0.2896900884 	0 	0 	0 	2.760237421 	0.6512224464 	-3.125910053e-05 	0 	0 	0
0.2901894873 	0 	0 	0 	2.76178775 	0.6502629511 	-5.15081112e-05 	0 	0 	0
0.2906978253 	0 	0 	0 	2.76316903 	0.6492383945 	-7.185595439e-05 	0 	0 	0
0.2912152375 	0 	0 	0 	2.764405311 	0.6481538576 	-9.230322991e-05 	0 	0 	0
0.2917434627 	0 	0 	0 	2.765523355 	0.647004909 	-0.0001129085271 	0 	0 	0
0.2922969899 	0 	0 	0 	2.766542601 	0.6457848706 	-0.0001342627776 	0 	0 	0
0.2928605311 	0 	0 	0 	2.767463375 	0.6445069611 	-0.0001557452177 	0 	0 	0
0.2934342614 	0 	0 	0 	2.768289932 	0.6431818379 	-0.0001773571285 	0 	0 	0
0.294018359 	0 	0 	0 	2.769031772 	0.641811819 	-0.0001990949851 	0 	0 	0
0.2946130049 	0 	0 	0 	2.76969685 	0.6403988035 	-0.0002209543916 	0 	0 	0
0.2952183831 	0 	0 	0 	2.770291865 	0.6389443579 	-0.0002429302121 	0 	0 	0
0.2958346806 	0 	0 	0 	2.770822495 	0.6374497809 	-0.0002650166605 	0 	0 	0
0.2964620875 	0 	0 	0 	2.771293574 	0.6359161502 	-0.0002872073581 	0 	0 	0
0.2971007972 	0 	0 	0 	2.77170923 	0.6343443596 	-0.0003094953696 	0 	0 	0
0.2977510059 	0 	0 	0 	2.772072998 	0.632735148 	-0.0003318732186 	0 	0 	0
0.2984129134 	0 	0 	0 	2.772387909 	0.6310891238 	-0.0003543329203 	0 	0 	0
0.2990867225 	0 	0 	0 	2.772656558 	0.6294067868 	-0.0003768661127 	0 	0 	0
0.2997726395 	0 	0 	0 	2.772881166 	0.627688534 	-0.0003994636562 	0 	0 	0
0.3004708739 	0 	0 	0 	2.773063638 	0.6259346387 	-0.000408688035 	0 	0 	0
0.3011816387 	0 	0 	0 	2.773205579 	0.6241453737 	-0.0003813349683 	0 	0 	0
0.3019051506 	0 	0 	0 	2.773308247 	0.6223208869 	-0.0003538795443 	0 	0 	0
0.3026416294 	0 	0 	0 	2.773372393 	0.6204613691 	-0.0003263218327 	0 	0 	0
0.3033912988 	0 	0 	0 	2.773398067 	0.6185667352 	-0.0002986542674 	0 	0 	0
0.3041543861 	0 	0 	0 	2.773384712 	0.6166361162 	-0.0002708962059 	0 	0 	0
0.3049311222 	0 	0 	0 	2.773331829 	0.6146691432 	-0.0002430795385 	0 	0 	0
0.3057217419 	0 	0 	0 	2.773239586 	0.6126661354 	-0.0002152140172 	0 	0 	0
0.3065264837 	0 	0 	0 	2.773108712 	0.6106271915 	-0.0001873066354 	0 	0 	0
0.30734559 	0 	0 	0 	2.772940183 	0.608552314 	-0.0001593714218 	0 	0 	0
0.3081793073 	0 	0 	0 	2.772733935 	0.6064345896 	-0.0001314174488 	0 	0 	0
0.3090396834 	0 	0 	0 	2.77248935 	0.6042568314 	-0.0001030620843 	0 	0 	0
0.3099300024 	0 	0 	0 	2.772206682 	0.602016956 	-7.424182294e-05 	0 	0 	0
0.3108360934 	0 	0 	0 	2.771887811 	0.5997327122 	-4.54620509e-05 	0 	0 	0
0.3117582235 	0 	0 	0 	2.771535762 	0.59741315 	-1.673688509e-05 	0 	0 	0
0.3123043765 	0 	0 	0 	2.771312239 	0.5960421712 	-6.362598568e-05 	0 	0 	0
0.3126953167 	0 	0 	0 	2.771145927 	0.5950620214 	-1.166497352e-05 	0 	0 	0
0.3136470823 	0 	0 	0 	2.770717434 	0.5926809086 	-3.963705214e-05 	0 	0 	0
0.3146156796 	0 	0 	0 	2.770260424 	0.5902654819 	-6.753336174e-05 	0 	0 	0
0.3156013933 	0 	0 	0 	2.769776355 	0.5878161353 	-9.534321128e-05 	0 	0 	0
0.3166045131 	0 	0 	0 	2.769266625 	0.5853333004 	-0.0001230557765 	0 	0 	0
0.317625333 	0 	0 	0 	2.76873247 	0.5828176938 	-0.0001506602435 	0 	0 	0
0.3186641519 	0 	0 	0 	2.768087955 	0.5799578443 	-0.0001779738993 	0 	0 	0
0.3202565896 	0 	0 	0 	2.767298084 	0.5763884598 	-0.0002191158574 	0 	0 	0
0.3218639873 	0 	0 	0 	2.766389668 	0.5724991477 	-0.0002590815772 	0 	0 	0
0.3234864874 	0 	0 	0 	2.765453854 	0.5686055628 	-0.0002980459344 	0 	0 	0
0.3251242338 	0 	0 	0 	2.764485888 	0.5646843128 	-0.0003148779771 	0 	0 	0
0.3268210344 	0 	0 	0 	2.763483912 	0.5607048577 	-0.0002683667612 	0 	0 	0
0.3285380987 	0 	0 	0 	2.762451957 	0.5566952994 	-0.0002228293292 	0 	0 	0
0.3302710469 	0 	0 	0 	2.761399204 	0.5526841736 	-0.000178412984 	0 	0 	0
0.3320200309 	0 	0 	0 	2.760327361 	0.5486746159 	-0.0001351169775 	0 	0 	0
0.3337852045 	0 	0 	0 	2.759237058 	0.544667111 	-9.293946074e-05 	0 	0 	0
0.3355667239 	0 	0 	0 	2.758128697 	0.5406621063 	-5.18792146e-05 	0 	0 	0
0.3373647476 	0 	0 	0 	2.757002502 	0.5366599841 	-1.193531104e-05 	0 	0 	0
0.3379166306 	0 	0 	0 	2.756654925 	0.5354423022 	-7.954037326e-05 	0 	0 	0
0.3391758841 	0 	0 	0 	2.755844863 	0.5326652483 	-2.646284961e-05 	0 	0 	0
0.3410023172 	0 	0 	0 	2.754657511 	0.5286580076 	-6.359912543e-05 	0 	0 	0
0.3428788787 	0 	0 	0 	2.753440002 	0.5246077051 	-0.0001003467232 	0 	0 	0
0.3447903039 	0 	0 	0 	2.75219348 	0.5205250418 	-0.0001363070368 	0 	0 	0
0.3467192621 	0 	0 	0 	2.750925492 	0.5164385652 	-0.0001711065098 	0 	0 	0
0.3486659273 	0 	0 	0 	2.749639123 	0.5123575588 	-0.0002047522146 	0 	0 	0
0.3506304766 	0 	0 	0 	2.748334181 	0.5082822243 	-0.0002372484959 	0 	0 	0
0.3526130898 	0 	0 	0 	2.747010452 	0.5042127837 	-0.0002376605891 	0 	0 	0
0.35461395 	0 	0 	0 	2.745667747 	0.5001493696 	-0.0001994249068 	0 	0 	0
0.3566332432 	0 	0 	0 	2.744301182 	0.4960808353 	-0.0001623335408 	0 	0 	0
0.3586952308 	0 	0 	0 	2.742902509 	0.4919809089 	-0.0001259521591 	0 	0 	0
0.3608045228 	0 	0 	0 	2.741470877 	0.487848262 	-9.026882698e-05 	0 	0 	0
0.3629329609 	0 	0 	0 	2.740013417 	0.4837110462 	-5.581452543e-05 	0 	0 	0
0.3650807436 	0 	0 	0 	2.738535342 	0.4795829508 	-2.258669203e-05 	0 	0 	0
0.3666015274 	0 	0 	0 	2.737484022 	0.4766913495 	-8.072165758e-05 	0 	0 	0
0.3672465724 	0 	0 	0 	2.737031267 	0.475464192 	-9.335820309e-06 	0 	0 	0
0.3694286528 	0 	0 	0 	2.735494247 	0.4713544349 	-3.987498739e-05 	0 	0 	0
0.3716307393 	0 	0 	0 	2.733935115 	0.467250609 	-6.926558955e-05 	0 	0 	0
0.3738590475 	0 	0 	0 	2.732343425 	0.4631294405 	-9.759246939e-05 	0 	0 	0
0.3761552495 	0 	0 	0 	2.730713977 	0.4589704831 	-0.0001253906604 	0 	0 	0
0.3784722171 	0 	0 	0 	2.729053204 	0.4548018112 	-0.000151971195 	0 	0 	0
0.3808101762 	0 	0 	0 	2.727370289 	0.4506446057 	-0.0001773576305 	0 	0 	0
0.3831693575 	0 	0 	0 	2.725665029 	0.4464989449 	-0.0001826682966 	0 	0 	0
0.385549996 	0 	0 	0 	2.723937275 	0.4423648348 	-0.0001521335098 	0 	0 	0
0.3879523317 	0 	0 	0 	2.722181839 	0.4382324837 	-0.0001227809221 	0 	0 	0
0.3904013496 	0 	0 	0 	2.720389492 	0.4340789779 	-9.430108789e-05 	0 	0 	0
0.3929016437 	0 	0 	0 	2.71855941 	0.4299032589 	-6.669154725e-05 	0 	0 	0
0.3954244461 	0 	0 	0 	2.716700032 	0.4257299643 	-4.030740358e-05 	0 	0 	0
0.3979700162 	0 	0 	0 	2.71481708 	0.4215710356 	-1.513327975e-05 	0 	0 	0
0.399577005 	0 	0 	0 	2.713624915 	0.4189765707 	-0.0001026064005 	0 	0 	0
0.4005368821 	0 	0 	0 	2.712905426 	0.4174247218 	-8.846140798e-06 	0 	0 	0
0.4031241969 	0 	0 	0 	2.710957734 	0.4132818358 	-3.167352952e-05 	0 	0 	0
0.4057556628 	0 	0 	0 	2.708972775 	0.4091240821 	-5.357348129e-05 	0 	0 	0
0.4084439197 	0 	0 	0 	2.706948663 	0.4049468888 	-7.462407509e-05 	0 	0 	0
0.4111564165 	0 	0 	0 	2.704894047 	0.4007733447 	-9.45233063e-05 	0 	0 	0
0.4138934475 	0 	0 	0 	2.702815562 	0.3966160121 	-0.0001132996317 	0 	0 	0
0.4166553136 	0 	0 	0 	2.700713178 	0.3924747156 	-0.0001309785725 	0 	0 	0
0.4194423223 	0 	0 	0 	2.698578154 	0.3883352004 	-0.0001308401741 	0 	0 	0
0.4222964217 	0 	0 	0 	2.696402106 	0.3841770944 	-0.0001082875239 	0 	0 	0
0.4251870746 	0 	0 	0 	2.694189394 	0.3800139631 	-8.679279736e-05 	0 	0 	0
0.4281038175 	0 	0 	0 	2.691950097 	0.3758653977 	-6.643045093e-05 	0 	0 	0
0.4310469859 	0 	0 	0 	2.689686403 	0.3717349867 	-4.717314298e-05 	0 	0 	0
0.4340169233 	0 	0 	0 	2.687391691 	0.3676125815 	-2.898959522e-05 	0 	0 	0
0.4370454133 	0 	0 	0 	2.685057064 	0.3634801465 	-1.166062469e-05 	0 	0 	0
0.4392173458 	0 	0 	0 	2.683381989 	0.3605573534 	-8.052052661e-05 	0 	0 	0
0.4401196787 	0 	0 	0 	2.682681493 	0.3593408353 	-4.769476405e-06 	0 	0 	0
0.4432190204 	0 	0 	0 	2.68027094 	0.3552097408 	-2.028899717e-05 	0 	0 	0
0.4463466103 	0 	0 	0 	2.677836069 	0.3510981048 	-3.481095728e-05 	0 	0 	0
0.4495028329 	0 	0 	0 	2.675368671 	0.3469941996 	-4.836414414e-05 	0 	0 	0
0.4527269537 	0 	0 	0 	2.672860316 	0.3428812005 	-6.115464383e-05 	0 	0 	0
0.4559904338 	0 	0 	0 	2.670315499 	0.338770249 	-7.302984677e-05 	0 	0 	0
0.4592836583 	0 	0 	0 	2.667743736 	0.3346772652 	-8.397683112e-05 	0 	0 	0
0.4626070486 	0 	0 	0 	2.665144234 	0.3306014022 	-9.402999823e-05 	0 	0 	0
0.4659741087 	0 	0 	0 	2.662507716 	0.3265287627 	-8.174879312e-05 	0 	0 	0
0.4694056061 	0 	0 	0 	2.659830585 	0.3224528097 	-6.764023398e-05 	0 	0 	0
0.4728684549 	0 	0 	0 	2.65712086 	0.3183892236 	-5.445685129e-05 	0 	0 	0
0.476363118 	0 	0 	0 	2.654384873 	0.3143471034 	-4.216640491e-05 	0 	0 	0
0.4798916088 	0 	0 	0 	2.651613358 	0.3103146162 	-3.072390537e-05 	0 	0 	0
0.4834951505 	0 	0 	0 	2.648799026 	0.306278803 	-1.997300187e-05 	0 	0 	0
0.4871317792 	0 	0 	0 	2.645949069 	0.3022541174 	-1.005270858e-05 	0 	0 	0
0.4908020032 	0 	0 	0 	2.643071565 	0.298251746 	-9.265493468e-07 	0 	0 	0
0.4911993413 	0 	0 	0 	2.642759414 	0.2978235458 	-2.83104956e-05 	0 	0 	0
0.4945047648 	0 	0 	0 	2.640154021 	0.294254562 	-7.668070573e-06 	0 	0 	0
0.4982817689 	0 	0 	0 	2.6371928 	0.2902565283 	-1.566511771e-05 	0 	0 	0
0.5020938467 	0 	0 	0 	2.634195151 	0.2862712587 	-2.294184143e-05 	0 	0 	0
0.5059415539 	0 	0 	0 	2.63116688 	0.2823069552 	-2.953667378e-05 	0 	0 	0
0.5098339861 	0 	0 	0 	2.628099853 	0.2783539626 	-3.550185869e-05 	0 	0 	0
0.5137924172 	0 	0 	0 	2.624989534 	0.2744062493 	-4.089268025e-05 	0 	0 	0
0.5177879724 	0 	0 	0 	2.621842282 	0.2704745942 	-4.567320014e-05 	0 	0 	0
0.5218212604 	0 	0 	0 	2.618658928 	0.2665612724 	-4.988113017e-05 	0 	0 	0
0.5259140893 	0 	0 	0 	2.615431878 	0.2626570915 	-5.357841169e-05 	0 	0 	0
0.5300592025 	0 	0 	0 	2.612161559 	0.2587641974 	-4.78914807e-05 	0 	0 	0
0.5342436715 	0 	0 	0 	2.60885274 	0.254890185 	-4.115101324e-05 	0 	0 	0
0.5384732893 	0 	0 	0 	2.605500727 	0.2510308892 	-3.495897431e-05 	0 	0 	0
0.5427699166 	0 	0 	0 	2.602100127 	0.2471804451 	-2.926357924e-05 	0 	0 	0
0.5471076191 	0 	0 	0 	2.598655796 	0.2433469567 	-2.408518611e-05 	0 	0 	0
0.5514871072 	0 	0 	0 	2.595166747 	0.2395310869 	-1.938918876e-05 	0 	0 	0
0.5559336223 	0 	0 	0 	2.591625811 	0.2357254216 	-1.511970175e-05 	0 	0 	0
0.5604269332 	0 	0 	0 	2.588035501 	0.2319350643 	-1.128623418e-05 	0 	0 	0
0.5649639002 	0 	0 	0 	2.584396282 	0.2281626238 	-7.861159744e-06 	0 	0 	0
0.569563076 	0 	0 	0 	2.580701897 	0.2244025865 	-4.800615625e-06 	0 	0 	0
0.5742147526 	0 	0 	0 	2.576952427 	0.2206571502 	-2.099292988e-06 	0 	0 	0
0.5783626515 	0 	0 	0 	2.573593181 	0.2173649096 	-2.775970627e-05 	0 	0 	0
0.5789119037 	0 	0 	0 	2.573147978 	0.2169284312 	-2.836716621e-07 	0 	0 	0
0.5836691853 	0 	0 	0 	2.56928314 	0.2132095063 	-2.498304047e-06 	0 	0 	0
0.5884811719 	0 	0 	0 	2.565357257 	0.2095054037 	-4.413473735e-06 	0 	0 	0
0.5933409967 	0 	0 	0 	2.561369572 	0.2058180912 	-6.050361649e-06 	0 	0 	0
0.5982639677 	0 	0 	0 	2.557314684 	0.202144161 	-7.439570296e-06 	0 	0 	0
0.603241457 	0 	0 	0 	2.55319174 	0.1984853099 	-8.589461381e-06 	0 	0 	0
0.6082690093 	0 	0 	0 	2.548998762 	0.1948425308 	-9.521865268e-06 	0 	0 	0
0.6133630769 	0 	0 	0 	2.544729762 	0.1912123724 	-1.026121349e-05 	0 	0 	0
0.6185102439 	0 	0 	0 	2.540384089 	0.1875971552 	-1.081580873e-05 	0 	0 	0
0.6237124478 	0 	0 	0 	2.535958776 	0.1839969807 	-1.120811658e-05 	0 	0 	0
0.6289800964 	0 	0 	0 	2.531460298 	0.1804185268 	-1.145464216e-05 	0 	0 	0
0.6342429514 	0 	0 	0 	2.526926155 	0.1768933238 	-1.156595102e-05 	0 	0 	0
0.6394496929 	0 	0 	0 	2.522392603 	0.1734484365 	-1.156434741e-05 	0 	0 	0
0.6446008478 	0 	0 	0 	2.517870402 	0.1700890903 	-1.146609568e-05 	0 	0 	0
0.6496914023 	0 	0 	0 	2.513359529 	0.1668129011 	-1.128940799e-05 	0 	0 	0
0.6547300818 	0 	0 	0 	2.508857718 	0.1636153537 	-1.105060576e-05 	0 	0 	0
0.6597120185 	0 	0 	0 	2.504365298 	0.1604942899 	-1.075883315e-05 	0 	0 	0
0.6646360827 	0 	0 	0 	2.499881925 	0.1574472431 	-1.042726017e-05 	0 	0 	0
0.6695107443 	0 	0 	0 	2.495405212 	0.1544700131 	-1.006510133e-05 	0 	0 	0
0.6743292695 	0 	0 	0 	2.490936175 	0.1515612246 	-9.678514705e-06 	0 	0 	0
0.6790929143 	0 	0 	0 	2.486474505 	0.1487185954 	-9.276378533e-06 	0 	0 	0
0.6838075543 	0 	0 	0 	2.482018237 	0.145938639 	-8.863539312e-06 	0 	0 	0
0.6884682294 	0 	0 	0 	2.477568257 	0.1432201085 	-8.444203612e-06 	0 	0 	0
0.6930762757 	0 	0 	0 	2.473124207 	0.1405609332 	-8.023989477e-06 	0 	0 	0
0.697636213 	0 	0 	0 	2.468684483 	0.1379582401 	-7.605426062e-06 	0 	0 	0
0.7021443802 	0 	0 	0 	2.464249807 	0.1354108794 	-7.190982095e-06 	0 	0 	0
0.7066016221 	0 	0 	0 	2.459819845 	0.1329170736 	-6.784110662e-06 	0 	0 	0
0.7110121582 	0 	0 	0 	2.455393071 	0.1304743257 	-6.38617002e-06 	0 	0 	0
0.71537296 	0 	0 	0 	2.450969958 	0.1280815317 	-5.998174005e-06 	0 	0 	0
0.7196847632 	0 	0 	0 	2.446550349 	0.1257372839 	-5.622170533e-06 	0 	0 	0
0.7239504894 	0 	0 	0 	2.442132939 	0.123439493 	-5.258983144e-06 	0 	0 	0
0.7281688828 	0 	0 	0 	2.437717655 	0.1211869282 	-4.908545771e-06 	0 	0 	0
0.7323401204 	0 	0 	0 	2.433304437 	0.1189784706 	-4.571943695e-06 	0 	0 	0
0.7364659089 	0 	0 	0 	2.428892298 	0.116812447 	-4.249727473e-06 	0 	0 	0
0.7405466757 	0 	0 	0 	2.424480637 	0.1146875179 	-3.941275608e-06 	0 	0 	0
0.7445820178 	0 	0 	0 	2.420069434 	0.1126027646 	-3.6469192e-06 	0 	0 	0
0.7485726794 	0 	0 	0 	2.415657993 	0.1105568922 	-3.366944984e-06 	0 	0 	0
0.7525204338 	0 	0 	0 	2.411245283 	0.1085485104 	-3.100781349e-06 	0 	0 	0
0.7564243968 	0 	0 	0 	2.406831113 	0.1065767512 	-2.848036423e-06 	0 	0 	0
0.7602851428 	0 	0 	0 	2.402415109 	0.1046406922 	-2.608723949e-06 	0 	0 	0
0.7641037903 	0 	0 	0 	2.397996287 	0.1027391171 	-2.382601777e-06 	0 	0 	0
0.7678807403 	0 	0 	0 	2.393573926 	0.1008710316 	-2.168824186e-06 	0 	0 	0
0.7716159852 	0 	0 	0 	2.389147668 	0.09903567814 	-1.967127462e-06 	0 	0 	0
0.775310052 	0 	0 	0 	2.384716825 	0.09723214086 	-1.777271265e-06 	0 	0 	0
0.7789640569 	0 	0 	0 	2.380280406 	0.09545940515 	-1.598736525e-06 	0 	0 	0
0.7825779467 	0 	0 	0 	2.375837796 	0.09371669901 	-1.430788291e-06 	0 	0 	0
0.7861520682 	0 	0 	0 	2.371388527 	0.09200334668 	-1.273120556e-06 	0 	0 	0
0.7896869084 	0 	0 	0 	2.366931788 	0.09031852252 	-1.125395808e-06 	0 	0 	0
0.7931834198 	0 	0 	0 	2.362466608 	0.08866138046 	-9.870330739e-07 	0 	0 	0
0.796641542 	0 	0 	0 	2.357992327 	0.08703127375 	-8.574174951e-07 	0 	0 	0
0.8000617053 	0 	0 	0 	2.353508323 	0.08542759889 	-7.362171997e-07 	0 	0 	0
0.8034443628 	0 	0 	0 	2.349013675 	0.08384964903 	-6.230812425e-07 	0 	0 	0
0.8067902644 	0 	0 	0 	2.344507331 	0.08229670684 	-5.174977495e-07 	0 	0 	0
0.8100995122 	0 	0 	0 	2.339988479 	0.08076818972 	-4.1890256e-07 	0 	0 	0
0.8133725006 	0 	0 	0 	2.335456459 	0.07926355584 	-3.269635963e-07 	0 	0 	0
0.8166096537 	0 	0 	0 	2.33091057 	0.07778221763 	-2.413515959e-07 	0 	0 	0
0.8198115392 	0 	0 	0 	2.326350091 	0.07632357691 	-1.616810759e-07 	0 	0 	0
0.8229784471 	0 	0 	0 	2.321774409 	0.07488711712 	-8.744305808e-08 	0 	0 	0
0.826110699 	0 	0 	0 	2.317182958 	0.07347237726 	-1.832814126e-08 	0 	0 	0
0.8269714745 	0 	0 	0 	2.315902605 	0.07308517543 	-2.026642437e-05 	0 	0 	0
0.8292085347 	0 	0 	0 	2.312575604 	0.07207842006 	-2.672935773e-08 	0 	0 	0
0.8322724858 	0 	0 	0 	2.307951031 	0.07070503363 	-6.07166279e-08 	0 	0 	0
0.8353030574 	0 	0 	0 	2.303307938 	0.06935189883 	-9.153677689e-08 	0 	0 	0
0.8383004984 	0 	0 	0 	2.298645369 	0.06801858486 	-1.194940148e-07 	0 	0 	0
0.8412651854 	0 	0 	0 	2.293962498 	0.06670466474 	-1.448432307e-07 	0 	0 	0
0.8441974886 	0 	0 	0 	2.289258578 	0.06540971363 	-1.678281824e-07 	0 	0 	0
0.847097822 	0 	0 	0 	2.284532915 	0.06413330419 	-1.886958411e-07 	0 	0 	0
0.8499665109 	0 	0 	0 	2.279784867 	0.06287504383 	-2.077319061e-07 	0 	0 	0
0.8528038661 	0 	0 	0 	2.275013811 	0.06163457598 	-2.251543621e-07 	0 	0 	0
0.8556102384 	0 	0 	0 	2.270219013 	0.06041152964 	-2.411627835e-07 	0 	0 	0
0.858385974 	0 	0 	0 	2.265399528 	0.05920553363 	-2.559441871e-07 	0 	0 	0
0.8611314453 	0 	0 	0 	2.260554187 	0.05801620591 	-2.696815633e-07 	0 	0 	0
0.8638469571 	0 	0 	0 	2.2556817 	0.05684319058 	-2.825708897e-07 	0 	0 	0
0.8665328206 	0 	0 	0 	2.250780762 	0.05568616446 	-2.947468854e-07 	0 	0 	0
0.8691893645 	0 	0 	0 	2.245850092 	0.05454480681 	-3.063270117e-07 	0 	0 	0
0.8718169132 	0 	0 	0 	2.240888487 	0.05341881553 	-3.174250112e-07 	0 	0 	0
0.8744157988 	0 	0 	0 	2.235894908 	0.05230788335 	-3.281665189e-07 	0 	0 	0
0.8769863299 	0 	0 	0 	2.230868627 	0.05121170578 	-3.387265422e-07 	0 	0 	0
0.8795287986 	0 	0 	0 	2.225809323 	0.05012998244 	-3.49276877e-07 	0 	0 	0
0.8820435138 	0 	0 	0 	2.220716909 	0.04906238713 	-3.599966195e-07 	0 	0 	0
0.8845307806 	0 	0 	0 	2.215591056 	0.04800858346 	-3.710523417e-07 	0 	0 	0
0.8869909002 	0 	0 	0 	2.210430507 	0.0469682379 	-3.825543484e-07 	0 	0 	0
0.8894241803 	0 	0 	0 	2.205232443 	0.04594103658 	-3.945342203e-07 	0 	0 	0
0.8918308955 	0 	0 	0 	2.199992346 	0.04492672425 	-4.069313044e-07 	0 	0 	0
0.8942113348 	0 	0 	0 	2.194704682 	0.04392510536 	-4.196075592e-07 	0 	0 	0
0.8965657859 	0 	0 	0 	2.189364464 	0.04293602161 	-4.32457163e-07 	0 	0 	0
0.8988945327 	0 	0 	0 	2.183969353 	0.04195932949 	-4.455104579e-07 	0 	0 	0
0.9011978561 	0 	0 	0 	2.17852134 	0.0409948429 	-4.589940533e-07 	0 	0 	0
0.9034760374 	0 	0 	0 	2.173026818 	0.04004228836 	-4.732979908e-07 	0 	0 	0
0.9057293392 	0 	0 	0 	2.167494237 	0.03910130389 	-4.887882865e-07 	0 	0 	0
0.907958033 	0 	0 	0 	2.161929558 	0.03817146339 	-5.055812918e-07 	0 	0 	0
0.9101623871 	0 	0 	0 	2.156331209 	0.03725234115 	-5.234707018e-07 	0 	0 	0
0.9123426665 	0 	0 	0 	2.150687151 	0.03634359041 	-5.420655831e-07 	0 	0 	0
0.9144991334 	0 	0 	0 	2.144976328 	0.03544498321 	-5.61091236e-07 	0 	0 	0
0.916632048 	0 	0 	0 	2.139175121 	0.03455639584 	-5.807135421e-07 	0 	0 	0
0.9187416618 	0 	0 	0 	2.133267086 	0.03367775675 	-6.017336398e-07 	0 	0 	0
0.9208282271 	0 	0 	0 	2.127251846 	0.03280895004 	-6.254144976e-07 	0 	0 	0
0.9228919946 	0 	0 	0 	2.121147794 	0.03194973912 	-6.527553241e-07 	0 	0 	0
0.9249332121 	0 	0 	0 	2.114985009 	0.03109981318 	-6.833413679e-07 	0 	0 	0
0.9269521248 	0 	0 	0 	2.108789797 	0.03025894427 	-7.147027522e-07 	0 	0 	0
0.9289489749 	0 	0 	0 	2.10256822 	0.02942713855 	-7.430918605e-07 	0 	0 	0
0.9309240022 	0 	0 	0 	2.096298273 	0.02860463855 	-7.533777305e-07 	0 	0 	0
0.932877441 	0 	0 	0 	2.08993697 	0.02779174172 	-7.38807151e-07 	0 	0 	0
0.9348095256 	0 	0 	0 	2.083441371 	0.02698845822 	-7.224989826e-07 	0 	0 	0
0.9367204882 	0 	0 	0 	2.076794791 	0.02619414743 	-7.119510442e-07 	0 	0 	0
0.9386105581 	0 	0 	0 	2.070023121 	0.02540733219 	-7.138582261e-07 	0 	0 	0
0.9404799623 	0 	0 	0 	2.063186466 	0.02462698379 	-7.224600787e-07 	0 	0 	0
0.942328925 	0 	0 	0 	2.056341323 	0.0238499217 	-7.584686372e-07 	0 	0 	0
0.9441576682 	0 	0 	0 	2.049490006 	0.02307472223 	-7.864330926e-07 	0 	0 	0
0.9459664103 	0 	0 	0 	2.042576065 	0.02230606179 	-7.697868793e-07 	0 	0 	0
0.9477553682 	0 	0 	0 	2.035542562 	0.02154410878 	-7.738560097e-07 	0 	0 	0
0.9495247567 	0 	0 	0 	2.028975567 	0.02085048409 	-7.829845934e-07 	0 	0 	0
0.9506774317 	0 	0 	0 	2.023557678 	0.02029262703 	-7.770696003e-07 	0 	0 	0
0.9518089131 	0 	0 	0 	2.018728646 	0.01980651292 	-7.737505479e-07 	0 	0 	0
0.9529195895 	0 	0 	0 	2.013874038 	0.01932837206 	-7.703526511e-07 	0 	0 	0
0.9540098421 	0 	0 	0 	2.008989408 	0.01885812654 	-7.664683589e-07 	0 	0 	0
0.9550800455 	0 	0 	0 	2.004070326 	0.01839558236 	-7.621327259e-07 	0 	0 	0
0.9561305671 	0 	0 	0 	1.999112409 	0.01794060342 	-7.573174571e-07 	0 	0 	0
0.957161768 	0 	0 	0 	1.994111315 	0.01749305528 	-7.520422282e-07 	0 	0 	0
0.9581740022 	0 	0 	0 	1.989062747 	0.01705280735 	-7.463163245e-07 	0 	0 	0
0.9591676175 	0 	0 	0 	1.98396245 	0.01661973534 	-7.401478435e-07 	0 	0 	0
0.9601429554 	0 	0 	0 	1.978806208 	0.01619372005 	-7.335477745e-07 	0 	0 	0
0.9611003511 	0 	0 	0 	1.973589834 	0.01577464687 	-7.265297389e-07 	0 	0 	0
0.962040134 	0 	0 	0 	1.968309161 	0.01536240619 	-7.191102132e-07 	0 	0 	0
0.962962627 	0 	0 	0 	1.962960034 	0.01495689312 	-7.113081202e-07 	0 	0 	0
0.9638681475 	0 	0 	0 	1.957538299 	0.01455800726 	-7.031441982e-07 	0 	0 	0
0.9647570069 	0 	0 	0 	1.952039787 	0.01416565246 	-6.946402856e-07 	0 	0 	0
0.9656295111 	0 	0 	0 	1.946460299 	0.01377973659 	-6.858186211e-07 	0 	0 	0
0.9664859601 	0 	0 	0 	1.940795595 	0.01340017134 	-6.767012237e-07 	0 	0 	0
0.9673266487 	0 	0 	0 	1.935041371 	0.01302687196 	-6.673093909e-07 	0 	0 	0
0.9681518663 	0 	0 	0 	1.929193245 	0.01265975706 	-6.57663327e-07 	0 	0 	0
0.9689618968 	0 	0 	0 	1.923246736 	0.01229874841 	-6.477819045e-07 	0 	0 	0
0.9697570191 	0 	0 	0 	1.917197244 	0.01194377068 	-6.376825342e-07 	0 	0 	0
0.9705375069 	0 	0 	0 	1.911040028 	0.01159475153 	-6.273811136e-07 	0 	0 	0
0.971303629 	0 	0 	0 	1.904770184 	0.01125162102 	-6.168920387e-07 	0 	0 	0
0.9720556491 	0 	0 	0 	1.89838262 	0.01091431162 	-6.062277398e-07 	0 	0 	0
0.9727938264 	0 	0 	0 	1.891872031 	0.01058275851 	-5.9539991e-07 	0 	0 	0
0.9735184149 	0 	0 	0 	1.885232869 	0.01025689898 	-5.844193345e-07 	0 	0 	0
0.9742296644 	0 	0 	0 	1.878459316 	0.009936672386 	-5.73295849e-07 	0 	0 	0
0.9749278198 	0 	0 	0 	1.871545251 	0.009622020186 	-5.620384693e-07 	0 	0 	0
0.9756131219 	0 	0 	0 	1.864484218 	0.009312885847 	-5.506555114e-07 	0 	0 	0
0.9762858066 	0 	0 	0 	1.857269386 	0.00900921476 	-5.391547091e-07 	0 	0 	0
0.976946106 	0 	0 	0 	1.84989351 	0.008710954175 	-5.275433188e-07 	0 	0 	0
0.9775942475 	0 	0 	0 	1.842348892 	0.008418053151 	-5.158282127e-07 	0 	0 	0
0.9782304546 	0 	0 	0 	1.834627326 	0.008130462508 	-5.040159625e-07 	0 	0 	0
0.9788549467 	0 	0 	0 	1.826720055 	0.007848134777 	-4.921129162e-07 	0 	0 	0
0.9794679391 	0 	0 	0 	1.818617707 	0.007571024163 	-4.801252703e-07 	0 	0 	0
0.9800696431 	0 	0 	0 	1.810310243 	0.0072990865 	-4.680591405e-07 	0 	0 	0
0.9806602663 	0 	0 	0 	1.801786879 	0.00703227922 	-4.559206296e-07 	0 	0 	0
0.9812400124 	0 	0 	0 	1.793036017 	0.00677056131 	-4.437158951e-07 	0 	0 	0
0.9818090813 	0 	0 	0 	1.784045165 	0.006513893279 	-4.314512225e-07 	0 	0 	0
0.9823676694 	0 	0 	0 	1.774800839 	0.006262237115 	-4.191330986e-07 	0 	0 	0
0.9829159694 	0 	0 	0 	1.765288465 	0.006015556247 	-4.067682872e-07 	0 	0 	0
0.9834541705 	0 	0 	0 	1.755492265 	0.005773815503 	-3.943639087e-07 	0 	0 	0
0.9839824583 	0 	0 	0 	1.745395131 	0.005536981044 	-3.819275196e-07 	0 	0 	0
0.9845010152 	0 	0 	0 	1.734978479 	0.005305020352 	-3.694671933e-07 	0 	0 	0
0.9850100202 	0 	0 	0 	1.72422209 	0.005077902117 	-3.569915991e-07 	0 	0 	0
0.985509649 	0 	0 	0 	1.713103926 	0.004855596113 	-3.445099962e-07 	0 	0 	0
0.9860000739 	0 	0 	0 	1.701599925 	0.004638073264 	-3.320323558e-07 	0 	0 	0
0.9864814644 	0 	0 	0 	1.68968376 	0.004425305487 	-3.195695034e-07 	0 	0 	0
0.9869539866 	0 	0 	0 	1.677326575 	0.004217265494 	-3.071330074e-07 	0 	0 	0
0.9874178036 	0 	0 	0 	1.664496664 	0.004013926726 	-2.947354303e-07 	0 	0 	0
0.9878730756 	0 	0 	0 	1.651159119 	0.003815263171 	-2.823902303e-07 	0 	0 	0
0.9883199598 	0 	0 	0 	1.637275413 	0.00362124904 	-2.701127331e-07 	0 	0 	0
0.9887586106 	0 	0 	0 	1.62280291 	0.003431855848 	-2.579371761e-07 	0 	0 	0
0.9891891794 	0 	0 	0 	1.607694295 	0.003247056183 	-2.458542884e-07 	0 	0 	0
0.989611815 	0 	0 	0 	1.591896889 	0.003066819264 	-2.339393447e-07 	0 	0 	0
0.9900266634 	0 	0 	0 	1.575351642 	0.002891027758 	-2.227510651e-07 	0 	0 	0
0.9904338678 	0 	0 	0 	1.557992192 	0.002720349486 	-2.066998627e-07 	0 	0 	0
0.990833569 	0 	0 	0 	1.539743992 	0.002554607127 	-1.971744873e-07 	0 	0 	0
0.991225905 	0 	0 	0 	1.52051881 	0.002391324784 	-1.932620576e-07 	0 	0 	0
0.9916110115 	0 	0 	0 	1.501989106 	0.002245558094 	-1.778421157e-07 	0 	0 	0
0.9918588689 	0 	0 	0 	1.486193396 	0.002131721494 	-1.658192674e-07 	0 	0 	0
0.9921067298 	0 	0 	0 	1.471533204 	0.002032615989 	-1.601196748e-07 	0 	0 	0
0.9923545941 	0 	0 	0 	1.456060734 	0.001933784473 	-1.525957387e-07 	0 	0 	0
0.9926024619 	0 	0 	0 	1.439699965 	0.001835823636 	-1.449253137e-07 	0 	0 	0
0.992850333 	0 	0 	0 	1.422366404 	0.001738803975 	-1.373034208e-07 	0 	0 	0
0.9930982076 	0 	0 	0 	1.403964794 	0.00164275241 	-1.29737014e-07 	0 	0 	0
0.9933460855 	0 	0 	0 	1.384386578 	0.001547711287 	-1.222154807e-07 	0 	0 	0
0.9935939669 	0 	0 	0 	1.363507283 	0.001453734684 	-1.147518854e-07 	0 	0 	0
0.9938418517 	0 	0 	0 	1.341183597 	0.001360881652 	-1.073602171e-07 	0 	0 	0
0.9940897399 	0 	0 	0 	1.317249954 	0.001269217236 	-1.000530327e-07 	0 	0 	0
0.9943376316 	0 	0 	0 	1.291514392 	0.001178813441 	-9.28428585e-08 	0 	0 	0
0.9945855266 	0 	0 	0 	1.263753186 	0.001089751702 	-8.574306179e-08 	0 	0 	0
0.9948334251 	0 	0 	0 	1.233705074 	0.001002129474 	-7.876656386e-08 	0 	0 	0
0.995081327 	0 	0 	0 	1.201065966 	0.0009160195272 	-7.193219672e-08 	0 	0 	0
0.9953292323 	0 	0 	0 	1.165482232 	0.0008313527768 	-6.526929103e-08 	0 	0 	0
0.995577141 	0 	0 	0 	1.126542225 	0.0007481132317 	-5.878278447e-08 	0 	0 	0
0.9958250531 	0 	0 	0 	1.083770116 	0.0006710152621 	-5.196003629e-08 	0 	0 	0
0.9960729686 	0 	0 	0 	1.036625644 	0.0006021878272 	-4.577611698e-08 	0 	0 	0
0.9963208876 	0 	0 	0 	0.9844896012 	0.0005193093246 	-4.120368839e-08 	0 	0 	0
0.99656881 	0 	0 	0 	0.9266217696 	0.0004223701675 	-3.613957985e-08 	0 	0 	0
0.9968167358 	0 	0 	0 	0.8621835767 	0.0003406229537 	-3.020518812e-08 	0 	0 	0
0.997064665 	0 	0 	0 	0.7903869017 	0.0002647017842 	-2.408193965e-08 	0 	0 	0
0.9973125976 	0 	0 	0 	0.710685908 	0.00019443553 	-1.750321797e-08 	0 	0 	0
0.9975605336 	0 	0 	0 	0.6230417135 	0.0001553945267 	-1.2057309e-08 	0 	0 	0
0.9978084731 	0 	0 	0 	0.5282241775 	0.0001406913093 	-9.290255844e-09 	0 	0 	0
0.9980564159 	0 	0 	0 	0.4278154348 	0.0001177268742 	-7.735440156e-09 	0 	0 	0
0.9983043622 	0 	0 	0 	0.3236851249 	7.367763718e-05 	-5.215084433e-09 	0 	0 	0
0.9985523119 	0 	0 	0 	0.2172743809 	3.051977344e-05 	-2.306372777e-09 	0 	0 	0
0.998800265 	0 	0 	0 	0.1093050134 	7.524492018e-07 	-5.93449577e-10 	0 	0 	0
0.9990482216 	-0.002503606567 	6.291369197e-07 	3.810956022e-11 	0.04564124223 	-9.680934647e-06 	-1.371884446e-10 	75.30776294 	-0.01595828841 	-7.61297e-07
