0.4709558481 	-0.006480629871 	-6.348572951e-08 	1.631281187e-12 	0.04555881708 	2.724303388e-07 	-4.418297907e-12 	194.9354752 	0.001164555962 	-1.888686552e-08
0.4711314108 	0 	0 	0 	0.12527351 	-7.416299374e-07 	6.118758417e-12 	0 	0 	0
0.4713069734 	0 	0 	0 	0.2503589944 	-9.437460179e-06 	1.19220506e-10 	0 	0 	0
0.471482536 	0 	0 	0 	0.3749587862 	-2.844988646e-05 	2.772562464e-10 	0 	0 	0
0.4716580986 	0 	0 	0 	0.4981567777 	-3.871615895e-05 	4.839174965e-11 	0 	0 	0
0.4718336613 	0 	0 	0 	0.6181544377 	-1.544814884e-05 	-7.470867128e-10 	0 	0 	0
0.4720092239 	0 	0 	0 	0.7325640466 	3.047138724e-05 	-1.500616657e-09 	0 	0 	0
0.4721847865 	0 	0 	0 	0.8392292041 	6.119792093e-05 	-1.682600593e-09 	0 	0 	0
0.4723603491 	0 	0 	0 	0.9369111867 	6.228662979e-05 	-1.566303898e-09 	0 	0 	0
0.4725359118 	0 	0 	0 	1.025383385 	4.935985916e-05 	-1.595025735e-09 	0 	0 	0
0.4727114744 	0 	0 	0 	1.105117332 	3.864184293e-05 	-1.842011148e-09 	0 	0 	0
0.472887037 	0 	0 	0 	1.176922936 	3.889569534e-05 	-2.498908211e-09 	0 	0 	0
0.4730625996 	0 	0 	0 	1.241706977 	4.214947721e-05 	-2.646158598e-09 	0 	0 	0
0.4732381623 	0 	0 	0 	1.300363935 	3.849888196e-05 	-2.56558173e-09 	0 	0 	0
0.4734137249 	0 	0 	0 	1.353718766 	4.167777824e-05 	-3.499724932e-09 	0 	0 	0
0.4735892875 	0 	0 	0 	1.40247227 	5.401404842e-05 	-4.116928692e-09 	0 	0 	0
0.4737648501 	0 	0 	0 	1.447200652 	6.309258855e-05 	-4.263125478e-09 	0 	0 	0
0.4739404128 	0 	0 	0 	1.488394453 	6.911772828e-05 	-4.672407275e-09 	0 	0 	0
0.4741159754 	0 	0 	0 	1.526479326 	7.537416746e-05 	-5.094695999e-09 	0 	0 	0
0.474291538 	0 	0 	0 	1.561821958 	8.179481449e-05 	-5.517121231e-09 	0 	0 	0
0.4744671006 	0 	0 	0 	1.594737331 	8.826382733e-05 	-5.942447409e-09 	0 	0 	0
0.4746426632 	0 	0 	0 	1.625496306 	9.475611787e-05 	-6.37420514e-09 	0 	0 	0
0.4748182259 	0 	0 	0 	1.654332252 	0.0001012672838 	-6.812981392e-09 	0 	0 	0
0.4749937885 	0 	0 	0 	1.681446982 	0.0001078222474 	-7.252767399e-09 	0 	0 	0
0.4751693511 	0 	0 	0 	1.707015507 	0.0001150040978 	-7.600834554e-09 	0 	0 	0
0.4753449137 	0 	0 	0 	1.73119075 	0.0001218182421 	-8.146162264e-09 	0 	0 	0
0.4755204764 	0 	0 	0 	1.754110597 	0.0001274287236 	-8.765878822e-09 	0 	0 	0
0.475696039 	0 	0 	0 	1.775899954 	0.0001339335607 	-9.039106594e-09 	0 	0 	0
0.4758716016 	0 	0 	0 	1.796666128 	0.0001409577645 	-9.441599101e-09 	0 	0 	0
0.4760471642 	0 	0 	0 	1.816499339 	0.000148517288 	-1.00018576e-08 	0 	0 	0
0.4762227269 	0 	0 	0 	1.838048394 	0.0001575635322 	-1.053049384e-08 	0 	0 	0
0.4764955107 	0 	0 	0 	1.863567494 	0.0001660034582 	-1.120673384e-08 	0 	0 	0
0.4767734216 	0 	0 	0 	1.890323494 	0.0001762144965 	-1.197286308e-08 	0 	0 	0
0.4770565557 	0 	0 	0 	1.915992575 	0.0001884892032 	-1.276729471e-08 	0 	0 	0
0.4773450114 	0 	0 	0 	1.940673585 	0.0002002848507 	-1.358648523e-08 	0 	0 	0
0.4776388886 	0 	0 	0 	1.964454066 	0.0002124173449 	-1.443185529e-08 	0 	0 	0
0.4779382892 	0 	0 	0 	1.987411925 	0.0002248844128 	-1.530428838e-08 	0 	0 	0
0.4782433171 	0 	0 	0 	2.009616142 	0.000237695434 	-1.620455054e-08 	0 	0 	0
0.4785540779 	0 	0 	0 	2.031128074 	0.0002508690951 	-1.713346298e-08 	0 	0 	0
0.4788706795 	0 	0 	0 	2.052002502 	0.0002644135693 	-1.809184544e-08 	0 	0 	0
0.4791932316 	0 	0 	0 	2.072288503 	0.0002783386712 	-1.908055767e-08 	0 	0 	0
0.4795218461 	0 	0 	0 	2.092030189 	0.0002926546663 	-2.010050275e-08 	0 	0 	0
0.4798566368 	0 	0 	0 	2.11126733 	0.0003073721807 	-2.115262582e-08 	0 	0 	0
0.48019772 	0 	0 	0 	2.130035881 	0.000322502274 	-2.223791336e-08 	0 	0 	0
0.4805452138 	0 	0 	0 	2.148368434 	0.0003380564234 	-2.335739228e-08 	0 	0 	0
0.4808992388 	0 	0 	0 	2.16629461 	0.000354046548 	-2.451212975e-08 	0 	0 	0
0.4812599177 	0 	0 	0 	2.183841387 	0.0003704850327 	-2.570323276e-08 	0 	0 	0
0.4816273755 	0 	0 	0 	2.201033395 	0.0003873847492 	-2.693184814e-08 	0 	0 	0
0.4820017397 	0 	0 	0 	2.217893164 	0.0004047590775 	-2.819916372e-08 	0 	0 	0
0.48238314 	0 	0 	0 	2.234441342 	0.0004226219257 	-2.950640915e-08 	0 	0 	0
0.4827717088 	0 	0 	0 	2.250696887 	0.00044098775 	-3.08548568e-08 	0 	0 	0
0.4831675807 	0 	0 	0 	2.266677238 	0.0004598715734 	-3.224582276e-08 	0 	0 	0
0.4835708931 	0 	0 	0 	2.282398456 	0.000479289004 	-3.368066718e-08 	0 	0 	0
0.4839817856 	0 	0 	0 	2.297875361 	0.0004992562531 	-3.516079345e-08 	0 	0 	0
0.4844004009 	0 	0 	0 	2.313121643 	0.0005197901527 	-3.66876451e-08 	0 	0 	0
0.4848268841 	0 	0 	0 	2.328149965 	0.0005409081729 	-3.826269879e-08 	0 	0 	0
0.485261383 	0 	0 	0 	2.342972056 	0.0005626284377 	-3.988745197e-08 	0 	0 	0
0.4857040484 	0 	0 	0 	2.357598792 	0.0005849697416 	-4.156340329e-08 	0 	0 	0
0.4861550336 	0 	0 	0 	2.372040267 	0.0006079515658 	-4.329202304e-08 	0 	0 	0
0.4866144951 	0 	0 	0 	2.386305858 	0.0006315940946 	-4.507471285e-08 	0 	0 	0
0.4870825921 	0 	0 	0 	2.400404286 	0.0006559182349 	-4.691275526e-08 	0 	0 	0
0.487559487 	0 	0 	0 	2.414343668 	0.0006809455936 	-4.880720872e-08 	0 	0 	0
0.4880453452 	0 	0 	0 	2.42813156 	0.0007066984651 	-5.075885894e-08 	0 	0 	0
0.4885403351 	0 	0 	0 	2.441775003 	0.0007331996525 	-5.276798743e-08 	0 	0 	0
0.4890446283 	0 	0 	0 	2.45528056 	0.0007604700174 	-5.483205555e-08 	0 	0 	0
0.4895583997 	0 	0 	0 	2.468654357 	0.0007885341827 	-5.695438652e-08 	0 	0 	0
0.4900818274 	0 	0 	0 	2.481902144 	0.0008174106335 	-5.912698888e-08 	0 	0 	0
0.4906150929 	0 	0 	0 	2.49502951 	0.0008470512113 	-6.128233869e-08 	0 	0 	0
0.4911583811 	0 	0 	0 	2.508041892 	0.0008780161411 	-6.406225291e-08 	0 	0 	0
0.4917118805 	0 	0 	0 	2.520944811 	0.0009097868877 	-6.626175594e-08 	0 	0 	0
0.4922757829 	0 	0 	0 	2.533747202 	0.0009416020067 	-6.780686017e-08 	0 	0 	0
0.4928502838 	0 	0 	0 	2.546462401 	0.0009749240326 	-7.105062014e-08 	0 	0 	0
0.4934355824 	0 	0 	0 	2.559102262 	0.001009840749 	-7.423916458e-08 	0 	0 	0
0.4940318817 	0 	0 	0 	2.571674252 	0.001045566131 	-7.667749207e-08 	0 	0 	0
0.4946393885 	0 	0 	0 	2.584183595 	0.00108239974 	-7.958489114e-08 	0 	0 	0
0.4952583133 	0 	0 	0 	2.596634405 	0.00112043827 	-8.257184332e-08 	0 	0 	0
0.4958888709 	0 	0 	0 	2.609029908 	0.001159711175 	-8.561439926e-08 	0 	0 	0
0.4965312797 	0 	0 	0 	2.621372782 	0.001200247766 	-8.87215772e-08 	0 	0 	0
0.4971857627 	0 	0 	0 	2.633665396 	0.001242083493 	-9.190956239e-08 	0 	0 	0
0.4978525466 	0 	0 	0 	2.645909937 	0.001285256036 	-9.519069595e-08 	0 	0 	0
0.4985318627 	0 	0 	0 	2.658108478 	0.001329804607 	-9.857454571e-08 	0 	0 	0
0.4992239466 	0 	0 	0 	2.670262994 	0.00137576988 	-1.020666431e-07 	0 	0 	0
0.4999290382 	0 	0 	0 	2.682375385 	0.00142319388 	-1.056688349e-07 	0 	0 	0
0.5006473819 	0 	0 	0 	2.694447494 	0.001472119966 	-1.093807819e-07 	0 	0 	0
0.501379227 	0 	0 	0 	2.706481135 	0.001522592937 	-1.132015489e-07 	0 	0 	0
0.502124827 	0 	0 	0 	2.718478162 	0.001574659162 	-1.171305108e-07 	0 	0 	0
0.5028844406 	0 	0 	0 	2.730440572 	0.001628366317 	-1.211673611e-07 	0 	0 	0
0.5036583311 	0 	0 	0 	2.742370663 	0.001683762991 	-1.253115444e-07 	0 	0 	0
0.5044467669 	0 	0 	0 	2.754271272 	0.001740903605 	-1.295622801e-07 	0 	0 	0
0.5052500214 	0 	0 	0 	2.766146045 	0.001799866893 	-1.339206489e-07 	0 	0 	0
0.506068373 	0 	0 	0 	2.779509654 	0.001868561178 	-1.389580233e-07 	0 	0 	0
0.507324668 	0 	0 	0 	2.795744122 	0.001955387443 	-1.452611672e-07 	0 	0 	0
0.5085949819 	0 	0 	0 	2.813166153 	0.002052867567 	-1.522651074e-07 	0 	0 	0
0.5098794711 	0 	0 	0 	2.830277531 	0.00215320593 	-1.59398792e-07 	0 	0 	0
0.5111782938 	0 	0 	0 	2.847091453 	0.002256350425 	-1.666176866e-07 	0 	0 	0
0.5124916099 	0 	0 	0 	2.863614414 	0.002362195175 	-1.738384159e-07 	0 	0 	0
0.5138195812 	0 	0 	0 	2.879839306 	0.002470550069 	-1.809609725e-07 	0 	0 	0
0.5151623712 	0 	0 	0 	2.895735802 	0.002581073067 	-1.877431415e-07 	0 	0 	0
0.5165201452 	0 	0 	0 	2.911241056 	0.002693068206 	-1.937196733e-07 	0 	0 	0
0.5178930705 	0 	0 	0 	2.926257413 	0.002805358574 	-1.983193335e-07 	0 	0 	0
0.5192813161 	0 	0 	0 	2.940661763 	0.00291639428 	-2.011426718e-07 	0 	0 	0
0.520685053 	0 	0 	0 	2.954325549 	0.003024588278 	-2.022843958e-07 	0 	0 	0
0.522104454 	0 	0 	0 	2.967138885 	0.0031318304 	-2.117508356e-07 	0 	0 	0
0.523539694 	0 	0 	0 	2.979038895 	0.00323462016 	-2.003884509e-07 	0 	0 	0
0.5249909497 	0 	0 	0 	2.990055861 	0.00332192768 	-1.837067218e-07 	0 	0 	0
0.5264583998 	0 	0 	0 	3.00032449 	0.00340559566 	-2.05598162e-07 	0 	0 	0
0.527942225 	0 	0 	0 	3.009982811 	0.003498667994 	-2.101823031e-07 	0 	0 	0
0.5294426081 	0 	0 	0 	3.019090004 	0.003587664607 	-1.990371321e-07 	0 	0 	0
0.5309597337 	0 	0 	0 	3.027661906 	0.003669669915 	-2.017584754e-07 	0 	0 	0
0.5324937889 	0 	0 	0 	3.035709439 	0.003750472218 	-2.02701028e-07 	0 	0 	0
0.5340449624 	0 	0 	0 	3.043241298 	0.003828850887 	-2.035167109e-07 	0 	0 	0
0.5356134452 	0 	0 	0 	3.050265455 	0.003904545768 	-2.040318187e-07 	0 	0 	0
0.5371994306 	0 	0 	0 	3.056791518 	0.003977304322 	-2.040661548e-07 	0 	0 	0
0.5388031139 	0 	0 	0 	3.062830825 	0.004046906511 	-2.035976394e-07 	0 	0 	0
0.5404246925 	0 	0 	0 	3.068396396 	0.004113183456 	-2.02590874e-07 	0 	0 	0
0.5420643661 	0 	0 	0 	3.073502816 	0.004175986634 	-2.010433089e-07 	0 	0 	0
0.5437223366 	0 	0 	0 	3.078166073 	0.004235189705 	-1.989707315e-07 	0 	0 	0
0.5453988083 	0 	0 	0 	3.082403328 	0.004290690058 	-1.963986284e-07 	0 	0 	0
0.5470939875 	0 	0 	0 	3.086232661 	0.004342409146 	-1.933542502e-07 	0 	0 	0
0.5488080831 	0 	0 	0 	3.089672825 	0.004390287289 	-1.898781474e-07 	0 	0 	0
0.5505413061 	0 	0 	0 	3.092743105 	0.004434315132 	-1.860507816e-07 	0 	0 	0
0.5522938699 	0 	0 	0 	3.095463407 	0.004474498756 	-1.818623853e-07 	0 	0 	0
0.5540659904 	0 	0 	0 	3.097855427 	0.004510820316 	-1.773543556e-07 	0 	0 	0
0.5558578859 	0 	0 	0 	3.099944357 	0.004543402648 	-1.728008698e-07 	0 	0 	0
0.5576697768 	0 	0 	0 	3.101758072 	0.004572511267 	-1.683144476e-07 	0 	0 	0
0.5595018865 	0 	0 	0 	3.103323946 	0.004598369221 	-1.638365871e-07 	0 	0 	0
0.5613544406 	0 	0 	0 	3.104666808 	0.004621168332 	-1.59412382e-07 	0 	0 	0
0.563227667 	0 	0 	0 	3.105808724 	0.004641115538 	-1.550813141e-07 	0 	0 	0
0.5651217966 	0 	0 	0 	3.106769233 	0.004658403769 	-1.508413557e-07 	0 	0 	0
0.5670370626 	0 	0 	0 	3.107565568 	0.004673206117 	-1.466963885e-07 	0 	0 	0
0.5689737009 	0 	0 	0 	3.108212886 	0.004685680058 	-1.426478795e-07 	0 	0 	0
0.5709319499 	0 	0 	0 	3.108724483 	0.004695968111 	-1.38695567e-07 	0 	0 	0
0.5729120508 	0 	0 	0 	3.109112001 	0.004704198619 	-1.348375529e-07 	0 	0 	0
0.5749142474 	0 	0 	0 	3.109385613 	0.004710486556 	-1.310709465e-07 	0 	0 	0
0.5769387863 	0 	0 	0 	3.109554194 	0.004714934682 	-1.273922096e-07 	0 	0 	0
0.5789859169 	0 	0 	0 	3.109625473 	0.00471763374 	-1.237974125e-07 	0 	0 	0
0.5810558911 	0 	0 	0 	3.109606194 	0.004718664779 	-1.202816598e-07 	0 	0 	0
0.583148964 	0 	0 	0 	3.109502183 	0.004718099086 	-1.168389617e-07 	0 	0 	0
0.5852653933 	0 	0 	0 	3.109318462 	0.004715998477 	-1.134649969e-07 	0 	0 	0
0.5874054395 	0 	0 	0 	3.109059385 	0.004712417592 	-1.101555713e-07 	0 	0 	0
0.5895693664 	0 	0 	0 	3.108728696 	0.004707403578 	-1.069048764e-07 	0 	0 	0
0.5917574402 	0 	0 	0 	3.108329598 	0.004700997042 	-1.037070287e-07 	0 	0 	0
0.5939699306 	0 	0 	0 	3.107864815 	0.004693232671 	-1.005557629e-07 	0 	0 	0
0.5962071099 	0 	0 	0 	3.107336647 	0.004684139831 	-9.744487526e-08 	0 	0 	0
0.5984692536 	0 	0 	0 	3.106747019 	0.004673743111 	-9.436931154e-08 	0 	0 	0
0.6007566404 	0 	0 	0 	3.106097517 	0.004662062805 	-9.132602568e-08 	0 	0 	0
0.6030695519 	0 	0 	0 	3.105389435 	0.004649115082 	-8.83139999e-08 	0 	0 	0
0.6054082729 	0 	0 	0 	3.104623799 	0.004634912033 	-8.533251472e-08 	0 	0 	0
0.6077730914 	0 	0 	0 	3.1038014 	0.004619461915 	-8.237518611e-08 	0 	0 	0
0.6101642987 	0 	0 	0 	3.102922806 	0.004602770163 	-7.944461062e-08 	0 	0 	0
0.6125821893 	0 	0 	0 	3.10198839 	0.004584839272 	-7.652223968e-08 	0 	0 	0
0.6150270608 	0 	0 	0 	3.100998351 	0.00456566835 	-7.361392084e-08 	0 	0 	0
0.6174992144 	0 	0 	0 	3.09995273 	0.004545256039 	-7.072588252e-08 	0 	0 	0
0.6199989545 	0 	0 	0 	3.09885141 	0.004523597763 	-6.783783692e-08 	0 	0 	0
0.622526589 	0 	0 	0 	3.097694146 	0.004500685521 	-6.49539296e-08 	0 	0 	0
0.625082429 	0 	0 	0 	3.096480573 	0.004476510732 	-6.207041022e-08 	0 	0 	0
0.6276667894 	0 	0 	0 	3.095210216 	0.004451062628 	-5.918374854e-08 	0 	0 	0
0.6302799884 	0 	0 	0 	3.0938825 	0.004424328739 	-5.629036039e-08 	0 	0 	0
0.6329223478 	0 	0 	0 	3.092496758 	0.004396294992 	-5.338673011e-08 	0 	0 	0
0.6355941931 	0 	0 	0 	3.091052238 	0.004366945844 	-5.046939693e-08 	0 	0 	0
0.6382958531 	0 	0 	0 	3.089548113 	0.004336264395 	-4.753499848e-08 	0 	0 	0
0.6410276607 	0 	0 	0 	3.087983483 	0.004304232488 	-4.458028229e-08 	0 	0 	0
0.6437899523 	0 	0 	0 	3.086357387 	0.004270830813 	-4.160209407e-08 	0 	0 	0
0.646583068 	0 	0 	0 	3.084668806 	0.004236039 	-3.859735376e-08 	0 	0 	0
0.6494073518 	0 	0 	0 	3.082916669 	0.004199835718 	-3.55630302e-08 	0 	0 	0
0.6522631514 	0 	0 	0 	3.081099858 	0.00416219877 	-3.249612149e-08 	0 	0 	0
0.6551508186 	0 	0 	0 	3.079217218 	0.004123105186 	-2.939364491e-08 	0 	0 	0
0.658070709 	0 	0 	0 	3.077267559 	0.004082531335 	-2.625263837e-08 	0 	0 	0
0.6610231822 	0 	0 	0 	3.075249661 	0.004040453031 	-2.30701738e-08 	0 	0 	0
0.6640086017 	0 	0 	0 	3.073162287 	0.003996845657 	-1.984338218e-08 	0 	0 	0
0.6670273351 	0 	0 	0 	3.071004182 	0.003951684303 	-1.656949015e-08 	0 	0 	0
0.6700797543 	0 	0 	0 	3.068774086 	0.003904943918 	-1.324586855e-08 	0 	0 	0
0.6731662352 	0 	0 	0 	3.06647074 	0.003856599484 	-9.870091354e-09 	0 	0 	0
0.6762871577 	0 	0 	0 	3.064092896 	0.003806626212 	-6.440006327e-09 	0 	0 	0
0.6794429063 	0 	0 	0 	3.061639323 	0.003754999772 	-2.953816541e-09 	0 	0 	0
0.6826338695 	0 	0 	0 	3.059108826 	0.00370169656 	5.898297726e-10 	0 	0 	0
0.6858604404 	0 	0 	0 	3.056500252 	0.003646693959 	4.19174243e-09 	0 	0 	0
0.6891230163 	0 	0 	0 	3.053812511 	0.003589970681 	7.852095801e-09 	0 	0 	0
0.6924219988 	0 	0 	0 	3.051044585 	0.003531507122 	1.157035108e-08 	0 	0 	0
0.6957577944 	0 	0 	0 	3.048195555 	0.003471285734 	1.534521745e-08 	0 	0 	0
0.6991308138 	0 	0 	0 	3.045264621 	0.003409291408 	1.917469733e-08 	0 	0 	0
0.7025414724 	0 	0 	0 	3.042251126 	0.003345511836 	2.305628555e-08 	0 	0 	0
0.7059901901 	0 	0 	0 	3.039154586 	0.003279937791 	2.698742737e-08 	0 	0 	0
0.7094773917 	0 	0 	0 	3.035974725 	0.003212563239 	3.09663719e-08 	0 	0 	0
0.7130035066 	0 	0 	0 	3.032711514 	0.003143385156 	3.499355452e-08 	0 	0 	0
0.7165689691 	0 	0 	0 	3.029365206 	0.003072402824 	3.907354645e-08 	0 	0 	0
0.7201742182 	0 	0 	0 	3.025936385 	0.002999616377 	4.321756318e-08 	0 	0 	0
0.7238196978 	0 	0 	0 	3.02242601 	0.002925024347 	4.744570514e-08 	0 	0 	0
0.727505857 	0 	0 	0 	3.018835449 	0.002848619204 	5.178798747e-08 	0 	0 	0
0.7312331497 	0 	0 	0 	3.015166512 	0.002770381521 	5.629121305e-08 	0 	0 	0
0.7350020349 	0 	0 	0 	3.011431457 	0.002690483436 	6.098383581e-08 	0 	0 	0
0.7387709215 	0 	0 	0 	3.007665491 	0.002609532319 	6.588122937e-08 	0 	0 	0
0.7424982157 	0 	0 	0 	3.003905049 	0.002528080119 	7.118808579e-08 	0 	0 	0
0.7461843763 	0 	0 	0 	3.000165066 	0.002446039274 	7.631543148e-08 	0 	0 	0
0.7498298574 	0 	0 	0 	2.996450166 	0.00236270912 	8.463368893e-08 	0 	0 	0
0.7534351078 	0 	0 	0 	2.99276424 	0.002278752302 	1.042159887e-07 	0 	0 	0
0.7570005716 	0 	0 	0 	2.989108064 	0.002194863749 	1.324749565e-07 	0 	0 	0
0.7605266877 	0 	0 	0 	2.985464499 	0.002112302729 	1.843825359e-07 	0 	0 	0
0.7640138905 	0 	0 	0 	2.981785223 	0.002038014274 	2.8110122e-07 	0 	0 	0
0.7674626093 	0 	0 	0 	2.978019581 	0.001978864336 	3.810959488e-07 	0 	0 	0
0.770873269 	0 	0 	0 	2.974161509 	0.001933647354 	4.1812966e-07 	0 	0 	0
0.7742462894 	0 	0 	0 	2.970264569 	0.001892805825 	3.510126178e-07 	0 	0 	0
0.777582086 	0 	0 	0 	2.966420807 	0.001841567423 	1.811330138e-07 	0 	0 	0
0.7808810695 	0 	0 	0 	2.96271359 	0.001767431666 	-1.915846749e-08 	0 	0 	0
0.7841436462 	0 	0 	0 	2.959169373 	0.001668545574 	-1.49981889e-07 	0 	0 	0
0.787370218 	0 	0 	0 	2.955742844 	0.001555300857 	-1.582422982e-07 	0 	0 	0
0.7905611821 	0 	0 	0 	2.952340825 	0.001444298349 	-2.639704301e-08 	0 	0 	0
0.7937169314 	0 	0 	0 	2.948862988 	0.001352941822 	2.229084508e-07 	0 	0 	0
0.7968378547 	0 	0 	0 	2.945247508 	0.001293348828 	4.845240254e-07 	0 	0 	0
0.7999243362 	0 	0 	0 	2.941506616 	0.001264120074 	6.265937606e-07 	0 	0 	0
0.8029767561 	0 	0 	0 	2.937723955 	0.001249586025 	5.63804599e-07 	0 	0 	0
0.8059954902 	0 	0 	0 	2.934012162 	0.001226254148 	2.893961864e-07 	0 	0 	0
0.8089809102 	0 	0 	0 	2.930457855 	0.001174981195 	-5.82699837e-08 	0 	0 	0
0.8119333839 	0 	0 	0 	2.927081088 	0.001088957224 	-3.12967166e-07 	0 	0 	0
0.8148532749 	0 	0 	0 	2.923826837 	0.0009749977654 	-4.136547e-07 	0 	0 	0
0.8177409426 	0 	0 	0 	2.920573446 	0.0008526402365 	-3.059339896e-07 	0 	0 	0
0.8205967427 	0 	0 	0 	2.917164456 	0.0007465664538 	3.891204803e-09 	0 	0 	0
0.8234210268 	0 	0 	0 	2.913475733 	0.0006782054378 	4.071712189e-07 	0 	0 	0
0.8262141429 	0 	0 	0 	2.909493389 	0.0006558985357 	7.456950762e-07 	0 	0 	0
0.8289764348 	0 	0 	0 	2.905355123 	0.0006655448542 	8.369027502e-07 	0 	0 	0
0.8317082427 	0 	0 	0 	2.901307111 	0.0006739162396 	6.284238842e-07 	0 	0 	0
0.8344099031 	0 	0 	0 	2.897574945 	0.0006474127835 	2.386233104e-07 	0 	0 	0
0.8370817486 	0 	0 	0 	2.894224372 	0.0005723703239 	-9.790173491e-08 	0 	0 	0
0.8397241082 	0 	0 	0 	2.891146984 	0.0004637784768 	-2.190243349e-07 	0 	0 	0
0.8423373074 	0 	0 	0 	2.888183873 	0.0003467402287 	-2.278647969e-07 	0 	0 	0
0.844921668 	0 	0 	0 	2.885201565 	0.0002339826327 	-1.420283435e-07 	0 	0 	0
0.8474775082 	0 	0 	0 	2.882041189 	0.0001426575661 	1.635022312e-07 	0 	0 	0
0.8500051427 	0 	0 	0 	2.878530204 	9.917868573e-05 	5.793908382e-07 	0 	0 	0
0.8525048829 	0 	0 	0 	2.874626234 	0.0001095263862 	8.556998941e-07 	0 	0 	0
0.8549770366 	0 	0 	0 	2.87050579 	0.0001488876998 	8.044807731e-07 	0 	0 	0
0.8574219081 	0 	0 	0 	2.866488324 	0.0001742402747 	4.34923289e-07 	0 	0 	0
0.8598397987 	0 	0 	0 	2.862833944 	0.0001499994772 	-1.702629729e-08 	0 	0 	0
0.862231006 	0 	0 	0 	2.859579535 	7.162293358e-05 	-2.934108981e-07 	0 	0 	0
0.8645958245 	0 	0 	0 	2.856577815 	-3.888709068e-05 	-3.70487542e-07 	0 	0 	0
0.8669345455 	0 	0 	0 	2.853666859 	-0.0001602361967 	-3.504822788e-07 	0 	0 	0
0.8692474569 	0 	0 	0 	2.850763809 	-0.0002818256467 	-2.747960575e-07 	0 	0 	0
0.8715348435 	0 	0 	0 	2.847807302 	-0.0003964983474 	-1.347364992e-07 	0 	0 	0
0.8737969871 	0 	0 	0 	2.8446525 	-0.0004911433225 	2.084070316e-07 	0 	0 	0
0.8760341663 	0 	0 	0 	2.841069857 	-0.0005382096498 	7.665262001e-07 	0 	0 	0
0.8782466565 	0 	0 	0 	2.836902676 	-0.0005178827482 	1.291060429e-06 	0 	0 	0
0.8804347301 	0 	0 	0 	2.832241496 	-0.0004434849222 	1.49919744e-06 	0 	0 	0
0.8825986568 	0 	0 	0 	2.827449086 	-0.0003590023247 	1.265717168e-06 	0 	0 	0
0.8847387028 	0 	0 	0 	2.822970376 	-0.0003149048119 	7.25552324e-07 	0 	0 	0
0.8868551318 	0 	0 	0 	2.819042739 	-0.0003381027809 	1.834641196e-07 	0 	0 	0
0.8889482045 	0 	0 	0 	2.815588045 	-0.0004195418848 	-1.08938505e-07 	0 	0 	0
0.8910181784 	0 	0 	0 	2.812363068 	-0.0005272433035 	-1.776584544e-07 	0 	0 	0
0.8930653087 	0 	0 	0 	2.809170684 	-0.0006375805385 	-2.073747563e-07 	0 	0 	0
0.8950898473 	0 	0 	0 	2.805909941 	-0.0007463346573 	-2.136298195e-07 	0 	0 	0
0.8970920436 	0 	0 	0 	2.802459472 	-0.0008450383085 	-4.051077222e-08 	0 	0 	0
0.8990721441 	0 	0 	0 	2.798623935 	-0.00090943292 	3.216963269e-07 	0 	0 	0
0.9010303927 	0 	0 	0 	2.794255557 	-0.0009217776922 	7.095879376e-07 	0 	0 	0
0.9029670306 	0 	0 	0 	2.789390618 	-0.0008869185227 	9.816372333e-07 	0 	0 	0
0.9048822962 	0 	0 	0 	2.784262905 	-0.0008276212939 	1.033066395e-06 	0 	0 	0
0.9067764254 	0 	0 	0 	2.779202339 	-0.0007751831783 	8.542449312e-07 	0 	0 	0
0.9086496514 	0 	0 	0 	2.774463848 	-0.0007546362187 	5.422820883e-07 	0 	0 	0
0.910502205 	0 	0 	0 	2.770103786 	-0.000774220702 	2.37184348e-07 	0 	0 	0
0.9123343142 	0 	0 	0 	2.765995921 	-0.0008251422639 	7.696685233e-08 	0 	0 	0
0.9141462048 	0 	0 	0 	2.761948113 	-0.0008868811553 	2.329120577e-08 	0 	0 	0
0.9159380997 	0 	0 	0 	2.757822433 	-0.0009468251368 	-5.840463342e-08 	0 	0 	0
0.9177102197 	0 	0 	0 	2.753551176 	-0.001007650169 	-1.471819572e-07 	0 	0 	0
0.9194627831 	0 	0 	0 	2.749068721 	-0.001066865038 	-2.093799717e-07 	0 	0 	0
0.9211960055 	0 	0 	0 	2.744297072 	-0.001117014252 	-3.168821808e-07 	0 	0 	0
0.9229101006 	0 	0 	0 	2.739188177 	-0.001160420616 	-4.868746277e-07 	0 	0 	0
0.9246052793 	0 	0 	0 	2.733734557 	-0.001201591148 	-6.767165996e-07 	0 	0 	0
0.9262817504 	0 	0 	0 	2.727948964 	-0.001241289251 	-8.453311375e-07 	0 	0 	0
0.9279397204 	0 	0 	0 	2.721846276 	-0.001278889858 	-9.421915286e-07 	0 	0 	0
0.9295793934 	0 	0 	0 	2.715433474 	-0.001311377593 	-9.228551377e-07 	0 	0 	0
0.9312009714 	0 	0 	0 	2.708707889 	-0.001334196515 	-7.669538991e-07 	0 	0 	0
0.9328046541 	0 	0 	0 	2.701662139 	-0.001341831553 	-4.806741585e-07 	0 	0 	0
0.9343906389 	0 	0 	0 	2.694289687 	-0.001330103793 	-8.815522741e-08 	0 	0 	0
0.9359591211 	0 	0 	0 	2.686586745 	-0.001297083886 	3.53230106e-07 	0 	0 	0
0.937510294 	0 	0 	0 	2.678558074 	-0.001243729592 	7.564154155e-07 	0 	0 	0
0.9390443485 	0 	0 	0 	2.670223313 	-0.0011751592 	1.031931013e-06 	0 	0 	0
0.9405614735 	0 	0 	0 	2.661613949 	-0.001099548336 	1.123703142e-06 	0 	0 	0
0.942061856 	0 	0 	0 	2.652762687 	-0.001026060942 	1.034411394e-06 	0 	0 	0
0.9435456805 	0 	0 	0 	2.643689374 	-0.0009620749853 	8.18183065e-07 	0 	0 	0
0.9450131299 	0 	0 	0 	2.634389221 	-0.0009113461509 	5.519685256e-07 	0 	0 	0
0.946464385 	0 	0 	0 	2.624832652 	-0.0008735442032 	3.057101101e-07 	0 	0 	0
0.9478996243 	0 	0 	0 	2.614976982 	-0.0008454254348 	1.220040493e-07 	0 	0 	0
0.9493190246 	0 	0 	0 	2.60477887 	-0.0008225517305 	1.169253695e-08 	0 	0 	0
0.9507227608 	0 	0 	0 	2.594204729 	-0.0008008215756 	-3.597924341e-08 	0 	0 	0
0.9521110058 	0 	0 	0 	2.583237086 	-0.0007774110261 	-4.14964211e-08 	0 	0 	0
0.9534839303 	0 	0 	0 	2.571872786 	-0.0007509790328 	-2.460996034e-08 	0 	0 	0
0.9548417036 	0 	0 	0 	2.56011629 	-0.000721367191 	1.344348238e-09 	0 	0 	0
0.9561844929 	0 	0 	0 	2.547973159 	-0.0006890630899 	2.946044572e-08 	0 	0 	0
0.9575124634 	0 	0 	0 	2.535445849 	-0.0006547396444 	5.710007313e-08 	0 	0 	0
0.9588257788 	0 	0 	0 	2.522532066 	-0.0006190047453 	8.348345058e-08 	0 	0 	0
0.9601246008 	0 	0 	0 	2.509225554 	-0.0005823432169 	1.078423663e-07 	0 	0 	0
0.9614090893 	0 	0 	0 	2.495518537 	-0.0005452079299 	1.284234654e-07 	0 	0 	0
0.9626794024 	0 	0 	0 	2.48140498 	-0.0005081750033 	1.424833812e-07 	0 	0 	0
0.9639356968 	0 	0 	0 	2.468129512 	-0.000474955084 	1.47719739e-07 	0 	0 	0
0.9647540487 	0 	0 	0 	2.457126209 	-0.000448985002 	1.458355709e-07 	0 	0 	0
0.9655573034 	0 	0 	0 	2.447307775 	-0.0004272905666 	1.403456546e-07 	0 	0 	0
0.9663457395 	0 	0 	0 	2.437438756 	-0.0004069347718 	1.331782121e-07 	0 	0 	0
0.9671196303 	0 	0 	0 	2.427518931 	-0.0003878887027 	1.257574771e-07 	0 	0 	0
0.9678792442 	0 	0 	0 	2.417546333 	-0.000370050994 	1.188775882e-07 	0 	0 	0
0.9686248445 	0 	0 	0 	2.407519052 	-0.0003532967989 	1.127882307e-07 	0 	0 	0
0.9693566897 	0 	0 	0 	2.397435911 	-0.0003375202041 	1.074288391e-07 	0 	0 	0
0.9700750337 	0 	0 	0 	2.387296121 	-0.0003226291811 	1.026945985e-07 	0 	0 	0
0.9707801255 	0 	0 	0 	2.377098394 	-0.0003082782364 	9.934176893e-08 	0 	0 	0
0.9714722095 	0 	0 	0 	2.366839487 	-0.0002946885307 	9.444070607e-08 	0 	0 	0
0.9721515258 	0 	0 	0 	2.356510939 	-0.0002826459506 	8.939511228e-08 	0 	0 	0
0.9728183099 	0 	0 	0 	2.346098021 	-0.0002710603935 	8.817823803e-08 	0 	0 	0
0.9734727929 	0 	0 	0 	2.335586972 	-0.000259018505 	8.537832165e-08 	0 	0 	0
0.9741152019 	0 	0 	0 	2.32497097 	-0.0002476507275 	8.115455581e-08 	0 	0 	0
0.9747457596 	0 	0 	0 	2.314246999 	-0.0002370989248 	7.830490719e-08 	0 	0 	0
0.9753646845 	0 	0 	0 	2.303412423 	-0.0002268834385 	7.53414034e-08 	0 	0 	0
0.9759721914 	0 	0 	0 	2.292464778 	-0.0002170714088 	7.242968472e-08 	0 	0 	0
0.9765684907 	0 	0 	0 	2.281401646 	-0.0002076566429 	6.959108385e-08 	0 	0 	0
0.9771537895 	0 	0 	0 	2.270220431 	-0.0001986276528 	6.682186625e-08 	0 	0 	0
0.9777282904 	0 	0 	0 	2.25891832 	-0.0001899736061 	6.413293011e-08 	0 	0 	0
0.9782921928 	0 	0 	0 	2.247492258 	-0.0001816806191 	6.15283686e-08 	0 	0 	0
0.9788456922 	0 	0 	0 	2.235938932 	-0.0001737345492 	5.901077205e-08 	0 	0 	0
0.9793889805 	0 	0 	0 	2.224254755 	-0.0001661213141 	5.658153917e-08 	0 	0 	0
0.979922246 	0 	0 	0 	2.212435848 	-0.0001588270331 	5.424090112e-08 	0 	0 	0
0.9804456737 	0 	0 	0 	2.200478013 	-0.0001518381272 	5.198816651e-08 	0 	0 	0
0.9809594451 	0 	0 	0 	2.188376717 	-0.0001451413642 	4.982188459e-08 	0 	0 	0
0.9814637383 	0 	0 	0 	2.176127057 	-0.0001387238952 	4.774001402e-08 	0 	0 	0
0.9819587281 	0 	0 	0 	2.163723738 	-0.0001325732815 	4.574007701e-08 	0 	0 	0
0.9824445862 	0 	0 	0 	2.15116104 	-0.000126677515 	4.381928982e-08 	0 	0 	0
0.9829214811 	0 	0 	0 	2.138432782 	-0.0001210250303 	4.197466716e-08 	0 	0 	0
0.9833895781 	0 	0 	0 	2.125532288 	-0.0001156047117 	4.020310305e-08 	0 	0 	0
0.9838490396 	0 	0 	0 	2.112452344 	-0.0001104058941 	3.850143186e-08 	0 	0 	0
0.9843000247 	0 	0 	0 	2.099185154 	-0.000105418361 	3.68664746e-08 	0 	0 	0
0.98474269 	0 	0 	0 	2.085722288 	-0.000100632338 	3.529507316e-08 	0 	0 	0
0.9851771888 	0 	0 	0 	2.072054629 	-9.60384839e-05 	3.378411668e-08 	0 	0 	0
0.9856036719 	0 	0 	0 	2.058172311 	-9.162787992e-05 	3.233056277e-08 	0 	0 	0
0.9860222871 	0 	0 	0 	2.044064647 	-8.739201739e-05 	3.093145686e-08 	0 	0 	0
0.9864331796 	0 	0 	0 	2.029720053 	-8.33227841e-05 	2.95839491e-08 	0 	0 	0
0.9868364919 	0 	0 	0 	2.015125961 	-7.941245017e-05 	2.828531097e-08 	0 	0 	0
0.9872323637 	0 	0 	0 	2.000268722 	-7.565365351e-05 	2.703295217e-08 	0 	0 	0
0.9876209323 	0 	0 	0 	1.985133491 	-7.203938542e-05 	2.582443899e-08 	0 	0 	0
0.9880023326 	0 	0 	0 	1.969704106 	-6.856297636e-05 	2.465751323e-08 	0 	0 	0
0.9883766967 	0 	0 	0 	1.953962942 	-6.521808221e-05 	2.353011178e-08 	0 	0 	0
0.9887441544 	0 	0 	0 	1.937890748 	-6.199867116e-05 	2.244038649e-08 	0 	0 	0
0.9891048331 	0 	0 	0 	1.921466467 	-5.889901173e-05 	2.138672743e-08 	0 	0 	0
0.9894588579 	0 	0 	0 	1.904667016 	-5.591366146e-05 	2.036778375e-08 	0 	0 	0
0.9898063516 	0 	0 	0 	1.887467048 	-5.303745644e-05 	1.938248472e-08 	0 	0 	0
0.9901474347 	0 	0 	0 	1.869838667 	-5.026550208e-05 	1.843005967e-08 	0 	0 	0
0.9904822253 	0 	0 	0 	1.851751106 	-4.759316449e-05 	1.751005612e-08 	0 	0 	0
0.9908108397 	0 	0 	0 	1.833170345 	-4.501606418e-05 	1.662235119e-08 	0 	0 	0
0.9911333916 	0 	0 	0 	1.814058679 	-4.253010307e-05 	1.576715637e-08 	0 	0 	0
0.9914499931 	0 	0 	0 	1.794374199 	-4.013143455e-05 	1.494499966e-08 	0 	0 	0
0.9917607538 	0 	0 	0 	1.774070194 	-3.781658402e-05 	1.415668051e-08 	0 	0 	0
0.9920657815 	0 	0 	0 	1.75309444 	-3.55833647e-05 	1.340311521e-08 	0 	0 	0
0.9923651819 	0 	0 	0 	1.731388362 	-3.342091857e-05 	1.268483781e-08 	0 	0 	0
0.992659059 	0 	0 	0 	1.708886035 	-3.132717385e-05 	1.200099896e-08 	0 	0 	0
0.9929475145 	0 	0 	0 	1.685512946 	-2.930963456e-05 	1.134536489e-08 	0 	0 	0
0.9932306485 	0 	0 	0 	1.661185298 	-2.661824598e-05 	1.070221435e-08 	0 	0 	0
0.9935085592 	0 	0 	0 	1.63580838 	-2.569641103e-05 	1.008331988e-08 	0 	0 	0
0.9937813429 	0 	0 	0 	1.611588039 	-2.549742988e-05 	9.605760041e-09 	0 	0 	0
0.9939569055 	0 	0 	0 	1.591123887 	-2.302828137e-05 	9.246943306e-09 	0 	0 	0
0.9941324681 	0 	0 	0 	1.572281674 	-2.136891651e-05 	8.867238549e-09 	0 	0 	0
0.9943080307 	0 	0 	0 	1.552548604 	-2.075403314e-05 	8.485384564e-09 	0 	0 	0
0.9944835934 	0 	0 	0 	1.531842492 	-1.895811615e-05 	8.053309391e-09 	0 	0 	0
0.994659156 	0 	0 	0 	1.510070712 	-1.756165744e-05 	7.746908345e-09 	0 	0 	0
0.9948347186 	0 	0 	0 	1.487123839 	-1.797920213e-05 	7.511521749e-09 	0 	0 	0
0.9950102812 	0 	0 	0 	1.462871123 	-1.724738094e-05 	7.00213088e-09 	0 	0 	0
0.9951858439 	0 	0 	0 	1.437166776 	-1.538917301e-05 	6.569421276e-09 	0 	0 	0
0.9953614065 	0 	0 	0 	1.409851312 	-1.421190651e-05 	6.272746229e-09 	0 	0 	0
0.9955369691 	0 	0 	0 	1.380744095 	-1.316434812e-05 	5.875496886e-09 	0 	0 	0
0.9957125317 	0 	0 	0 	1.349638257 	-1.212923137e-05 	5.4622388e-09 	0 	0 	0
0.9958880943 	0 	0 	0 	1.316296995 	-1.121053e-05 	5.036036352e-09 	0 	0 	0
0.996063657 	0 	0 	0 	1.28044884 	-9.796483533e-06 	4.571785999e-09 	0 	0 	0
0.9962392196 	0 	0 	0 	1.241784685 	-4.263490319e-06 	4.167576064e-09 	0 	0 	0
0.9964147822 	0 	0 	0 	1.199951562 	-2.104405073e-06 	3.776231057e-09 	0 	0 	0
0.9965903448 	0 	0 	0 	1.154527553 	-8.062235215e-06 	3.237217096e-09 	0 	0 	0
0.9967659075 	0 	0 	0 	1.105007877 	-8.422921728e-06 	2.759843116e-09 	0 	0 	0
0.9969414701 	0 	0 	0 	1.050835438 	-6.639176099e-06 	2.376783893e-09 	0 	0 	0
0.9971170327 	0 	0 	0 	0.9914237994 	-1.102901062e-05 	1.970302138e-09 	0 	0 	0
0.9972925953 	0 	0 	0 	0.9261772952 	-1.866863613e-05 	1.596116313e-09 	0 	0 	0
0.997468158 	0 	0 	0 	0.8545623555 	-2.796198688e-05 	1.26603148e-09 	0 	0 	0
0.9976437206 	0 	0 	0 	0.7762375909 	-3.209745151e-05 	9.863619035e-10 	0 	0 	0
0.9978192832 	0 	0 	0 	0.691245333 	-2.180857538e-05 	7.412642922e-10 	0 	0 	0
0.9979948458 	0 	0 	0 	0.6002096636 	2.174098206e-06 	5.006661654e-10 	0 	0 	0
0.9981704085 	0 	0 	0 	0.5043830558 	2.287693128e-05 	2.703832382e-10 	0 	0 	0
0.9983459711 	0 	0 	0 	0.4053821575 	2.516735352e-05 	1.008811303e-10 	0 	0 	0
0.9985215337 	0 	0 	0 	0.3046962808 	1.410134693e-05 	1.760639736e-11 	0 	0 	0
0.9986970963 	0 	0 	0 	0.203314264 	3.951981563e-06 	-7.224022541e-12 	0 	0 	0
0.998872659 	0 	0 	0 	0.1016998585 	2.134365933e-07 	-7.68259912e-12 	0 	0 	0
0.9990482216 	-0.003043962968 	1.669678837e-08 	4.113852648e-13 	0.04282757072 	-1.631440755e-07 	-3.890733984e-12 	91.56152709 	-0.0003484555167 	-8.31012537e-09
