0.47826087 	0.0021836173 	-0.0010161788 	1.1750028e-08 	0.0021793752 	7.5035336e-09 	0.0011022253
0.48913043 	0.0042953727 	-0.0020079278 	3.9185044e-08 	0.0042766934 	-2.5623799e-06 	0.0016896244
0.5 	0.0034556792 	-0.001616514 	1.8585308e-07 	0.0034290324 	-3.5892321e-06 	0.0019341023
0.51086957 	0.0022173214 	-0.0010377127 	1.0590307e-06 	0.0022038735 	-1.4443615e-06 	0.0012474243
0.52173913 	0.0015088888 	-0.00065567779 	-1.91313e-07 	0.0014903654 	5.9759621e-07 	0.00014516968
0.5326087 	0.0012551514 	-0.00040974834 	1.5161883e-07 	0.0012585225 	1.2733815e-06 	0.0006623593
0.54347826 	0.0012157205 	-0.0002361573 	1.1521139e-06 	0.001218125 	7.9944813e-07 	0.00065289265
0.55434783 	0.0012359423 	-9.7934227e-05 	6.9691624e-07 	0.0012453822 	7.1895831e-07 	0.0006646099
0.56521739 	0.0012748994 	1.1386002e-05 	6.9448338e-07 	0.0012874419 	6.8545398e-07 	0.00068663609
0.57608696 	0.0013161642 	0.00010942349 	1.1477601e-06 	0.0013360662 	1.0036807e-06 	0.00071099626
0.58695652 	0.0013577363 	0.00020303791 	1.1308566e-06 	0.0013834185 	1.7210383e-06 	0.00073752483
0.59782609 	0.0013973867 	0.00029371785 	7.9653607e-07 	0.0014302583 	2.8260366e-06 	0.0006827346
0.60869565 	0.0014369891 	0.00038133389 	1.0993044e-07 	0.0014703362 	6.4943084e-07 	0.00010891782
0.61956522 	0.0014737484 	0.00046598367 	1.0515645e-06 	0.001509988 	4.5699042e-06 	0.00064800798
0.63043478 	0.0015066692 	0.00054611811 	2.557242e-06 	0.0015492538 	8.6554745e-06 	0.0008197474
0.64130435 	0.0015367064 	0.00061169223 	1.167755e-06 	0.0015845153 	6.7090337e-06 	0.0005381113
0.65217391 	0.0015680766 	0.00067394068 	1.2231162e-06 	0.0016082456 	7.0680967e-06 	0.00056504037
0.66304348 	0.0015981946 	0.00072849511 	2.274663e-06 	0.0016263608 	1.1710828e-05 	0.00087548546
0.67391304 	0.0016181252 	0.00075596799 	1.2608827e-07 	0.0016545797 	1.538739e-06 	0.00013705525
0.68478261 	0.0016318899 	0.00076915825 	1.3898784e-06 	0.001684904 	1.0555249e-05 	0.00089278851
0.69565217 	0.0016424414 	0.0007763674 	5.0969029e-07 	0.0017054756 	4.8617479e-06 	0.00053637625
0.70652174 	0.0016511075 	0.00078065615 	8.4770633e-07 	0.0017145813 	8.2118319e-06 	0.00090633194
0.7173913 	0.0016578267 	0.00078183676 	3.8541332e-07 	0.0017097893 	3.3092777e-06 	0.0006769259
0.72826087 	0.001660639 	0.00078175636 	4.8328892e-07 	0.001704601 	4.359783e-06 	0.00091032695
0.73913043 	0.0016593041 	0.00077997806 	1.1486949e-07 	0.0016979667 	-4.7936969e-08 	0.00062589131
0.75 	0.0016563388 	0.00077839944 	1.112651e-07 	0.0016938619 	-1.9730901e-07 	0.00090581558
0.76086957 	0.00165199 	0.00077649188 	-5.8074111e-08 	0.0016894093 	-1.8290723e-06 	0.00061696784
0.77173913 	0.001647232 	0.00077489474 	-9.9513308e-08 	0.001686902 	-2.7038528e-06 	0.00090247969
0.7826087 	0.0016419818 	0.00077324859 	-1.3494277e-07 	0.0016850118 	-2.763332e-06 	0.00085577486
0.79347826 	0.0016378539 	0.00077141777 	-9.6048985e-08 	0.0016810877 	-1.9122538e-06 	0.00059220492
0.80434783 	0.0016343496 	0.00076975991 	-2.381466e-07 	0.0016772339 	-2.3181581e-06 	0.00089603989
0.81521739 	0.0016317497 	0.00076749469 	-1.2104199e-08 	0.0016697099 	-8.6135938e-08 	7.9817389e-05
0.82608696 	0.0016294637 	0.00076584178 	-1.0724131e-07 	0.0016644991 	-1.138661e-06 	0.00089234228
0.83695652 	0.0016274287 	0.00076386615 	-7.8364704e-08 	0.0016576095 	-4.7818608e-07 	0.00088895008
0.84782609 	0.0016248516 	0.00076174933 	-8.3156417e-09 	0.0016507559 	-2.1905045e-08 	0.00013584203
0.85869565 	0.0016223488 	0.00076036928 	-7.1451515e-09 	0.0016470861 	-3.3653464e-08 	0.00070917194
0.86956522 	0.0016200236 	0.00075914154 	-9.5927616e-08 	0.0016439904 	-1.4850969e-07 	0.00088420297
0.88043478 	0.0016188134 	0.00075830261 	-5.894939e-08 	0.0016415275 	-6.8121375e-08 	0.0008830235
0.89130435 	0.001620246 	0.00075836403 	3.9201197e-11 	0.0016403161 	4.4382131e-08 	0.00084899149
0.90217391 	0.0016276341 	0.00076067276 	8.1870183e-10 	0.0016427615 	1.9899112e-08 	0.00061324862
0.91304348 	0.0016469956 	0.00076828745 	4.6944207e-09 	0.0016559853 	1.9436979e-08 	0.00059159149
0.92391304 	0.0016919252 	0.00078763881 	3.2843742e-09 	0.0016942606 	1.2586101e-08 	0.00082978676
0.93478261 	0.0017953034 	0.00083418423 	2.7831531e-07 	0.0017916227 	5.9323736e-07 	0.00097584676
0.94565217 	0.0020142795 	0.00093535431 	3.7752057e-07 	0.0020076621 	8.0388139e-07 	0.0010683891
0.95652174 	0.0024192751 	0.0011245154 	1.9019431e-07 	0.0024055405 	4.0447882e-07 	3.9941776e-05
0.9673913 	0.0029518716 	0.0013753354 	9.8910339e-08 	0.0029365774 	2.1059729e-07 	0.0015752305
0.97826087 	0.0032149761 	0.0015017982 	-1.6936924e-07 	0.0032043805 	-4.0240779e-07 	0.0017436336
0.98913043 	0.0019795137 	0.00092808252 	-1.8318214e-06 	0.001975332 	-3.6613505e-06 	0.0010511814
