0.47777778 	0.001758743 	-0.00081978076 	-1.6908583e-06 	0.001762275 	3.5949548e-06 	0.00030367332
0.48888889 	0.0041740386 	-0.0019510643 	-1.9915296e-08 	0.0041980042 	1.3887044e-07 	0.0006883171
0.5 	0.0041548044 	-0.0019402861 	8.8068687e-08 	0.0041778968 	-5.6602908e-09 	0.00076973118
0.51111111 	0.003560106 	-0.0016637573 	1.0037213e-06 	0.0035735489 	-2.1069799e-06 	0.0007268487
0.52222222 	0.0027888969 	-0.0013070896 	1.5163974e-06 	0.0028018962 	-3.1925945e-06 	0.00054388354
0.53333333 	0.0020451481 	-0.00096054936 	4.4497124e-06 	0.0020566349 	-9.485924e-06 	0.00044237623
0.54444444 	0.0015072638 	-0.00068616288 	1.9337106e-06 	0.001507036 	-3.3005922e-06 	0.00035614412
0.55555556 	0.0011933047 	-0.00046172255 	7.9921043e-07 	0.0012031297 	-6.8868209e-07 	0.00029587415
0.56666667 	0.0010495339 	-0.00029031738 	4.8144129e-07 	0.0010653139 	-1.1047836e-07 	0.00026460567
0.57777778 	0.0010084345 	-0.00015335246 	6.908665e-07 	0.0010202069 	-1.0525933e-07 	0.00025859527
0.58888889 	0.0010151723 	-3.4817761e-05 	1.1931459e-06 	0.0010281743 	-7.8518638e-08 	0.00026690918
0.6 	0.0010437689 	6.8692281e-05 	1.7837537e-06 	0.0010568094 	3.120558e-08 	0.00028306256
0.61111111 	0.0010815327 	0.00016307156 	6.0615193e-07 	0.0010951053 	-2.3975459e-07 	0.00030234647
0.62222222 	0.0011240273 	0.00025209914 	-4.9823703e-09 	0.0011366752 	-2.3190043e-07 	0.00010167804
0.63333333 	0.0011673563 	0.00033448173 	3.3544176e-07 	0.0011800151 	-3.9287944e-07 	0.00032696792
0.64444444 	0.0012109263 	0.00041110242 	1.0571863e-06 	0.001221664 	-2.307694e-07 	0.0003474395
0.65555556 	0.0012543187 	0.0004821143 	-1.0369779e-07 	0.0012609491 	-4.2934461e-07 	0.00022722104
0.66666667 	0.0012957814 	0.00054289138 	3.4127094e-07 	0.0012959068 	-4.9130619e-07 	0.00036938924
0.67777778 	0.0013350536 	0.00059452401 	1.2554025e-07 	0.0013286796 	-4.9861228e-07 	0.00038865337
0.68888889 	0.0013713922 	0.00063180013 	-1.8581869e-07 	0.0013622585 	-5.826285e-07 	0.00034515652
0.7 	0.0014036986 	0.00065301369 	-1.0501506e-08 	0.001395764 	-3.9529105e-07 	0.00040293174
0.71111111 	0.0014352721 	0.00066952971 	-5.3954881e-08 	0.0014278973 	-2.3353644e-07 	0.00011597358
0.72222222 	0.0014639583 	0.00068176119 	-8.8133784e-08 	0.0014539987 	-6.997872e-07 	0.00041241434
0.73333333 	0.0014927833 	0.00069305173 	-3.2281615e-08 	0.0014748362 	-2.1516268e-07 	9.9002141e-05
0.74444444 	0.0015181489 	0.00070222111 	-1.4907819e-07 	0.0014892736 	-1.0648521e-06 	0.00041855322
0.75555556 	0.0015420897 	0.00071010142 	-2.2240862e-08 	0.0014998772 	-2.0288305e-07 	8.909853e-05
0.76666667 	0.0015619152 	0.00071612858 	-2.0881839e-07 	0.0015075591 	-1.1691623e-06 	0.00041743332
0.77777778 	0.0015799277 	0.0007212931 	-2.6765695e-08 	0.0015136249 	-2.6738518e-07 	0.00015476954
0.78888889 	0.0015943072 	0.00072591218 	-1.6098608e-07 	0.0015208173 	-8.6978866e-07 	0.00041118064
0.8 	0.001605943 	0.0007307918 	-6.8035409e-08 	0.0015309283 	-4.9144031e-07 	0.00040992367
0.81111111 	0.001614826 	0.00073633741 	-5.3061533e-08 	0.0015460194 	-4.6509105e-07 	0.00040338452
0.82222222 	0.0016206497 	0.00074354539 	-7.8189718e-08 	0.0015705637 	-1.9207468e-07 	0.00040197975
0.83333333 	0.0016275791 	0.00075173045 	-1.2967212e-08 	0.0015985916 	-1.8942155e-07 	0.00040136676
0.84444444 	0.0016399199 	0.00076226582 	-1.2897959e-08 	0.0016317725 	-1.8991271e-07 	0.00039378273
0.85555556 	0.0016633419 	0.00077558246 	6.2877811e-08 	0.0016666526 	1.135676e-07 	0.00039364146
0.86666667 	0.001700096 	0.00079292463 	1.6476357e-07 	0.0017053949 	2.7483647e-07 	0.00039554465
0.87777778 	0.0017556718 	0.0008170285 	1.2061573e-07 	0.0017543129 	2.030991e-07 	0.00040163451
0.88888889 	0.0018393327 	0.00085298177 	3.9735385e-09 	0.0018261991 	-2.7158341e-09 	0.00034319799
0.9 	0.0019667595 	0.00090942687 	3.0443451e-08 	0.0019425711 	5.6863055e-08 	9.9370454e-05
0.91111111 	0.0021544289 	0.00099515686 	3.2562949e-08 	0.0021241279 	6.0290178e-08 	0.00010455081
0.92222222 	0.0024180648 	0.0011176708 	1.7237813e-09 	0.0023862309 	5.4308698e-09 	0.0004901303
0.93333333 	0.0027537548 	0.0012742922 	8.7970038e-07 	0.0027214502 	1.8912456e-06 	0.00056348516
0.94444444 	0.0031207734 	0.0014455531 	1.9539999e-06 	0.0030895217 	4.2117235e-06 	0.00060708343
0.95555556 	0.0034602206 	0.0016035819 	6.4577508e-08 	0.0034299454 	1.4105164e-07 	0.00064086961
0.96666667 	0.0036567736 	0.0016959682 	2.1060127e-07 	0.0036318904 	4.8873857e-07 	0.00067644057
0.97777778 	0.0035042865 	0.0016278131 	-7.4970482e-07 	0.0034855756 	-1.6344222e-06 	0.0006249964
0.98888889 	0.0020248555 	0.00094713758 	-2.8641746e-06 	0.0020156477 	-5.8967146e-06 	0.00033772886
