0 	0.014082232 	-9.5639353e-16 	-3.4762373e-22 	6.4953379e-29 	2.3608834e-35 	8.5811863e-42
0.010869565 	0.014214746 	-0.0024884967 	1.6295364e-05 	0.015522997 	-6.0112509e-05 	0.0053909272
0.02173913 	0.014034592 	-0.0027997093 	9.0355522e-06 	0.015583148 	-7.0016032e-05 	0.0063493279
0.032608696 	0.013655359 	-0.0023169334 	1.7969747e-06 	0.016671788 	-2.8699254e-05 	0.0070086017
0.043478261 	0.014342228 	-0.0034381649 	4.6633446e-06 	0.015398113 	-7.2175686e-05 	0.0083385633
0.054347826 	0.01496432 	-0.0020241395 	-3.4531179e-06 	0.014982487 	-2.2246558e-05 	0.0040960603
0.065217391 	0.01323018 	-0.0017068373 	4.0771311e-06 	0.018626695 	-2.1059399e-05 	0.0021394464
0.076086957 	0.012910867 	-0.0040676406 	1.1869649e-05 	0.019185913 	-1.7402263e-06 	0.0037867493
0.086956522 	0.014379676 	-0.0073733462 	-4.6071044e-07 	0.016543065 	-5.4267113e-05 	0.011597428
0.097826087 	0.016911627 	-0.0076883167 	4.6023173e-06 	0.012733766 	-3.4584109e-05 	0.013287951
0.10869565 	0.017020714 	-0.0065316754 	-7.5257736e-06 	0.013226309 	-1.2955386e-05 	0.0015141419
0.11956522 	0.016420737 	-0.0054452343 	3.1121903e-06 	0.014805278 	-1.3427807e-05 	0.011190661
0.13043478 	0.014954574 	-0.0062238919 	3.6616129e-06 	0.017440728 	-1.5766655e-05 	0.0094506307
0.14130435 	0.014667619 	-0.007420969 	1.501849e-05 	0.017644854 	-1.0883659e-05 	0.0026146067
0.15217391 	0.014765724 	-0.0088500253 	5.1883581e-06 	0.017106129 	-2.6419255e-05 	0.014333531
0.16304348 	0.014902899 	-0.0090030871 	6.8967502e-06 	0.01607765 	9.9301881e-07 	0.0013350728
0.17391304 	0.0150023 	-0.0091356767 	4.9553879e-06 	0.015173434 	-1.3424019e-05 	0.013896238
0.18478261 	0.01456198 	-0.0086295246 	-6.7192077e-07 	0.014682394 	2.5885431e-06 	0.0023977882
0.19565217 	0.014178972 	-0.008229527 	3.2630442e-06 	0.014170199 	8.9056509e-06 	0.013007228
0.20652174 	0.013593978 	-0.0078038343 	-7.7559075e-07 	0.013509254 	2.2208944e-06 	0.0013841077
0.2173913 	0.013062688 	-0.0074214769 	5.3817903e-06 	0.012906631 	2.123414e-05 	0.01192329
0.22826087 	0.012297782 	-0.0070051047 	2.3842558e-08 	0.012133905 	2.0081372e-06 	0.0011593943
0.23913043 	0.011599959 	-0.0066210097 	-4.6787493e-07 	0.011443475 	3.1828998e-05 	0.0087508376
0.25 	0.010735061 	-0.0061433955 	-4.7340629e-07 	0.010548621 	1.7082965e-05 	0.0045869365
0.26086957 	0.0098599286 	-0.0056588158 	-9.1128252e-07 	0.0096449578 	1.634471e-05 	0.0039105337
0.27173913 	0.0089537155 	-0.0051500865 	3.2977874e-07 	0.0087249214 	2.6151085e-05 	0.0070680209
0.2826087 	0.0078867648 	-0.0045330904 	-1.3179622e-06 	0.007647296 	2.2868957e-06 	2.030761e-05
0.29347826 	0.00692168 	-0.0039828586 	-7.6029905e-07 	0.0066970582 	1.612855e-05 	0.0046823525
0.30434783 	0.0058820963 	-0.0033569765 	-1.2379197e-06 	0.0056794311 	1.3241663e-05 	0.0035395337
0.31521739 	0.0048314865 	-0.0027099906 	-1.4215819e-06 	0.0046597359 	3.5265655e-06 	0.00068171682
0.32608696 	0.0039000642 	-0.0021384335 	7.4557422e-06 	0.0037648084 	-7.1088134e-06 	0.0023901438
0.33695652 	0.0031153569 	-0.0016503028 	-7.0261219e-07 	0.003007137 	4.2944615e-06 	0.0016415266
0.34782609 	0.0024465598 	-0.0012302035 	-8.1299388e-07 	0.002360775 	1.4485502e-06 	0.00037284525
0.35869565 	0.0019025098 	-0.00088463014 	5.0366416e-06 	0.0018382888 	-7.0112038e-06 	0.0010137774
0.36956522 	0.0015255673 	-0.0006333635 	-2.2425301e-07 	0.0014750183 	8.7394778e-07 	0.00085028846
0.38043478 	0.00132147 	-0.00047964026 	-3.1081671e-07 	0.0012772773 	3.5537967e-07 	0.0001329426
0.39130435 	0.0011536913 	-0.00034700128 	1.1431191e-06 	0.0011162915 	-1.5733362e-06 	0.00058199396
0.40217391 	0.0010562021 	-0.00024593448 	9.4634644e-07 	0.0010205736 	-1.3391343e-06 	0.00056813884
0.41304348 	0.001019879 	-0.00017139601 	-8.5294661e-08 	0.00098165514 	9.3595389e-10 	9.3213653e-05
0.42391304 	0.0010041328 	-0.00011016156 	-1.8299997e-07 	0.00096394316 	-2.5444696e-07 	0.00045625776
0.43478261 	0.0010066452 	-6.0887021e-05 	1.5618984e-06 	0.00096325492 	-1.1114346e-06 	0.00050183599
0.44565217 	0.0010138273 	-1.446375e-05 	-1.6061923e-07 	0.00096675616 	-2.450796e-07 	0.0004138206
0.45652174 	0.0010358689 	2.1877465e-05 	-6.8384105e-08 	0.00098393048 	-1.4536455e-07 	0.00013480146
0.4673913 	0.00105687 	5.4589804e-05 	1.5628992e-07 	0.0010022375 	-3.6574781e-07 	0.00050771251
0.47826087 	0.0010788911 	8.4196304e-05 	6.0758385e-07 	0.0010225587 	-4.0969677e-07 	0.00049860916
0.48913043 	0.0011011975 	0.0001126802 	-1.5240057e-07 	0.0010435275 	-2.4539208e-07 	0.00033951962
0.5 	0.0011240085 	0.00013799493 	-1.0276322e-07 	0.0010667027 	-1.9481862e-07 	0.0002240753
0.51086957 	0.0011458464 	0.00016179426 	1.9578622e-07 	0.0010891954 	-3.7086567e-07 	0.00051078357
0.52173913 	0.0011670795 	0.00018444864 	2.691756e-07 	0.0011101484 	-3.7399262e-07 	0.00050314987
0.5326087 	0.0011878291 	0.00020632622 	-1.3041256e-07 	0.00112995 	-2.2007594e-07 	0.00028538124
0.54347826 	0.0012081101 	0.00022725042 	-1.5039727e-07 	0.0011491789 	-2.2367999e-07 	0.00034378439
0.55434783 	0.0012270775 	0.00024768171 	2.8204301e-07 	0.0011677923 	-4.5286507e-07 	0.00051308993
0.56521739 	0.0012454413 	0.00026779352 	-9.4955453e-09 	0.0011856949 	-3.5313704e-07 	0.00050685965
0.57608696 	0.0012623231 	0.00028713303 	-1.9714816e-08 	0.0012017082 	-1.193205e-07 	6.1838822e-05
0.58695652 	0.001278741 	0.00030672869 	-8.2099991e-08 	0.0012189707 	-2.9102456e-07 	0.0005182461
0.59782609 	0.0012938772 	0.00032583652 	2.3192892e-07 	0.0012343683 	-4.5557988e-07 	0.00051327129
0.60869565 	0.001308655 	0.00034478732 	-1.361574e-07 	0.0012491632 	-1.806353e-07 	0.00034712498
0.61956522 	0.0013225018 	0.00036370021 	-1.5141223e-07 	0.0012635404 	-1.4315999e-07 	0.00044351062
0.63043478 	0.0013356923 	0.00038286372 	3.3358134e-07 	0.0012777791 	-4.7618653e-07 	0.00051766
0.64130435 	0.0013487722 	0.0004020029 	-1.7422563e-07 	0.0012918283 	-1.4846903e-07 	0.00050652113
0.65217391 	0.001361135 	0.00042123952 	-1.000451e-07 	0.0013053649 	-8.2788259e-08 	0.00035665649
0.66304348 	0.001374172 	0.00044144972 	3.268884e-07 	0.0013200623 	-3.3853406e-07 	0.00052222904
0.67391304 	0.0013872758 	0.00046172082 	-1.426417e-07 	0.0013345062 	-7.5961053e-08 	0.00050163656
0.68478261 	0.0014010779 	0.00048264087 	-1.0255457e-07 	0.0013495689 	-1.6653522e-08 	0.00045509078
0.69565217 	0.0014171222 	0.00050596559 	3.9098632e-07 	0.0013677221 	-1.0813977e-07 	0.00053023729
0.70652174 	0.0014337805 	0.00052972266 	-7.2987752e-08 	0.0013862155 	-4.1963644e-08 	0.00029462873
0.7173913 	0.00145384 	0.00055608041 	9.8512438e-08 	0.0014097836 	1.2305822e-07 	0.00054632442
0.72826087 	0.0014781028 	0.00058404621 	2.1431197e-07 	0.0014375054 	1.6007314e-07 	0.00054456183
0.73913043 	0.0015059385 	0.00061298147 	-3.8432022e-08 	0.0014686642 	-1.7276751e-08 	0.00018976802
0.75 	0.0015451434 	0.00064826118 	7.8569963e-07 	0.0015107588 	7.9110998e-07 	0.00057175702
0.76086957 	0.0015903216 	0.00068648147 	-4.8326659e-08 	0.0015561693 	3.3644233e-08 	0.00031088797
0.77173913 	0.0016538865 	0.00073330793 	5.5016048e-07 	0.0016197999 	9.6040285e-07 	0.00061979862
0.7826087 	0.001730602 	0.00078394378 	5.5839706e-08 	0.0016977546 	2.8491257e-07 	0.00061883307
0.79347826 	0.0018341791 	0.00084361686 	3.2528164e-07 	0.0018058689 	8.384041e-07 	0.00070041182
0.80434783 	0.0019720039 	0.00091622631 	4.2144165e-07 	0.0019496106 	1.0254835e-06 	0.00069978029
0.81521739 	0.0021500817 	0.0010052091 	3.1601622e-07 	0.0021352911 	8.2272869e-07 	0.0008376149
0.82608696 	0.0023870399 	0.0011208385 	6.1966291e-07 	0.0023755323 	1.4516736e-06 	0.00083730601
0.83695652 	0.0026864512 	0.0012653069 	9.8928325e-07 	0.0026752067 	2.2084547e-06 	0.0010488385
0.84782609 	0.0030362334 	0.0014310183 	-6.9555878e-09 	0.0030222996 	1.2006099e-07 	0.001010319
0.85869565 	0.0034508205 	0.0016236448 	2.7815321e-06 	0.0034340144 	6.1237008e-06 	0.0013138783
0.86956522 	0.0038825489 	0.0018210315 	1.1665012e-07 	0.0038602089 	2.9493707e-07 	9.6428465e-05
0.88043478 	0.0043301367 	0.0020246001 	2.3400519e-06 	0.0043094113 	5.2828505e-06 	0.0015910236
0.89130435 	0.004745517 	0.0022123333 	7.0293741e-07 	0.0047259966 	1.6644576e-06 	0.0018281401
0.90217391 	0.0050880587 	0.0023671155 	1.9526611e-08 	0.0050700107 	9.5082095e-08 	0.00057161555
0.91304348 	0.0053169674 	0.0024730258 	5.6452205e-07 	0.0053101808 	1.3865513e-06 	0.0019817903
0.92391304 	0.005398609 	0.002512558 	-3.9406604e-07 	0.0054054439 	-6.4781714e-07 	0.0020281569
0.93478261 	0.0053160272 	0.0024777784 	-5.0317065e-07 	0.0053422014 	-9.8276856e-07 	0.0019737238
0.94565217 	0.0050164684 	0.0023427733 	-1.9914474e-06 	0.0050626848 	-4.1702386e-06 	0.0018806017
0.95652174 	0.0045212785 	0.0021143382 	-1.3324541e-07 	0.0045752108 	-2.8169598e-07 	0.00045207476
0.9673913 	0.0037932299 	0.0017763057 	-8.6382009e-07 	0.0038498734 	-1.8623869e-06 	0.0014564085
0.97826087 	0.0027706074 	0.0012964467 	-5.7443175e-08 	0.0028099913 	-1.3218443e-07 	0.00030042998
0.98913043 	0.001017711 	0.00045125634 	-8.7137985e-09 	0.0010036648 	-3.4759322e-08 	9.3335111e-05
