0.4742268 	0.31662603 	0.00011277765 	-9.9819976e-06
0.48453608 	0.94492065 	0.00068463367 	0.00034167234
0.49484536 	1.213987 	0.0011788207 	0.00050254966
0.50515464 	1.3673705 	0.0016606801 	0.00014721183
0.51546392 	1.4381929 	0.0018393523 	-0.00015143178
0.5257732 	1.4653864 	0.0022298772 	-0.00011399352
0.53608247 	1.4759344 	0.001789164 	-4.0441076e-05
0.54639175 	1.4795632 	0.0019404796 	2.559221e-05
0.55670103 	1.4805676 	0.0018222051 	8.1032809e-05
0.56701031 	1.4804602 	0.0017848738 	0.00014852401
0.57731959 	1.479577 	0.0016982119 	0.00021855051
0.58762887 	1.4780942 	0.0016032206 	0.0003008892
0.59793814 	1.4761176 	0.0014988588 	0.00039192031
0.60824742 	1.4736039 	0.0014082231 	1.2477799e-05
0.6185567 	1.470728 	0.0013200068 	0.00047381852
0.62886598 	1.4674175 	0.0012173019 	0.00052753589
0.63917526 	1.4637837 	0.001107695 	0.00011146229
0.64948454 	1.4599027 	0.0010387431 	0.00053384613
0.65979381 	1.4556809 	0.0010187076 	0.00047769022
0.67010309 	1.4507929 	0.00095882993 	0.00037549108
0.68041237 	1.445365 	0.0008525801 	0.00035064669
0.69072165 	1.4396222 	0.0007276125 	0.00013941121
0.70103093 	1.4338513 	0.00060560223 	0.00018990417
0.71134021 	1.4281648 	0.00052654067 	6.948358e-05
0.72164948 	1.4227555 	0.00047009275 	6.0711778e-05
0.73195876 	1.4173102 	0.00039857462 	3.9835066e-05
0.74226804 	1.4118318 	0.00031524101 	-1.2501381e-05
0.75257732 	1.4062108 	0.00021366691 	-1.0772035e-05
0.7628866 	1.4003456 	0.00010401657 	-3.6598485e-05
0.77319588 	1.394336 	-1.5342752e-05 	-3.5910856e-05
0.78350515 	1.3881774 	-0.00013297712 	-3.5323588e-05
0.79381443 	1.3819733 	-0.00024454629 	-2.550497e-05
0.80412371 	1.3755869 	-0.00034799669 	-2.6039832e-05
0.81443299 	1.3691761 	-0.00043881645 	-2.1927662e-06
0.82474227 	1.3623917 	-0.00052419183 	-1.5528841e-05
0.83505155 	1.3554295 	-0.00060232071 	-6.8715928e-06
0.84536082 	1.3480801 	-0.00067363585 	-3.727507e-06
0.8556701 	1.3401878 	-0.00074526039 	-3.050479e-06
0.86597938 	1.3318154 	-0.00081433031 	-4.7244951e-07
0.87628866 	1.3228062 	-0.00088186571 	2.4980505e-07
0.88659794 	1.3129011 	-0.00094989124 	3.5358766e-07
0.89690722 	1.3019381 	-0.0010158493 	3.334946e-07
0.90721649 	1.2895832 	-0.0010772997 	-9.9760901e-09
0.91752577 	1.2752617 	-0.001128867 	-9.1640924e-08
0.92783505 	1.2577886 	-0.0011572482 	4.8023193e-08
0.93814433 	1.2345254 	-0.0011420189 	5.38828e-08
0.94845361 	1.1986028 	-0.0010927513 	2.1882401e-07
0.95876289 	1.1377391 	-0.0010662688 	3.2075142e-07
0.96907216 	1.035762 	-0.00082238534 	2.4717159e-07
0.97938144 	0.86870973 	-0.00048146179 	2.9924133e-07
0.98969072 	0.56485444 	2.8374798e-05 	2.06607e-07
