0.43820225 	0.00051618005 	-0.00023195493 	-3.3073581e-07 	0.00060732752 	7.02549e-07 	0.0003609304
0.4494382 	0.0035726667 	-0.001811329 	-6.9337661e-07 	0.0041691157 	2.0911274e-06 	0.00054436959
0.46067416 	0.0039964135 	-0.001988179 	-7.5975675e-07 	0.0045545414 	2.2755052e-06 	0.0006937198
0.47191011 	0.0037170552 	-0.0018398488 	-1.0941797e-07 	0.0041446063 	1.0225987e-06 	0.0019929095
0.48314607 	0.0032291788 	-0.0015951279 	8.3986592e-07 	0.0035316414 	-1.3052474e-06 	0.0019399801
0.49438202 	0.0026103716 	-0.0012880193 	-7.4349518e-07 	0.0027948248 	1.663435e-06 	0.00042663995
0.50561798 	0.0020123965 	-0.00097925084 	-5.2832751e-07 	0.0020490466 	7.455589e-07 	0.00040943211
0.51685393 	0.0015484964 	-0.00066569938 	-2.2889182e-07 	0.0014769956 	-5.1820845e-07 	0.00056448293
0.52808989 	0.0012551974 	-0.00041425573 	-1.7849221e-07 	0.0011054214 	-8.4852628e-07 	0.00047392859
0.53932584 	0.0011259551 	-0.00022719068 	-2.340807e-07 	0.00086958179 	-5.2921768e-07 	0.00029366297
0.5505618 	0.001110092 	-7.5896631e-05 	-3.6146329e-07 	0.00072742172 	-5.7629496e-08 	2.7188548e-05
0.56179775 	0.0011594623 	4.484731e-05 	-1.4770049e-07 	0.00063753056 	-6.2052681e-07 	0.00038683947
0.57303371 	0.001238088 	0.0001311169 	8.547516e-07 	0.00058441728 	-9.9171373e-07 	0.0004034739
0.58426966 	0.0013094343 	0.00019562604 	5.0248475e-07 	0.00057088722 	-7.7719803e-08 	0.00041069806
0.59550562 	0.0013685135 	0.00024393967 	-2.5703557e-07 	0.00059164779 	-5.1722053e-08 	0.00020925677
0.60674157 	0.0014191213 	0.000282277 	1.4223923e-07 	0.00063145911 	3.0952766e-07 	0.00039591441
0.61797753 	0.0014672342 	0.00031933909 	4.3590758e-07 	0.00067388017 	8.0378325e-07 	0.00039982787
0.62921348 	0.0015125867 	0.00035527483 	-3.196945e-07 	0.0007188241 	-2.0045036e-07 	3.4470787e-05
0.64044944 	0.0015550399 	0.00039020877 	4.7666687e-07 	0.00076408635 	1.0290142e-06 	0.00039911687
0.65168539 	0.0015951701 	0.00042471261 	-5.5370365e-09 	0.00081028869 	5.4968201e-07 	0.00040798231
0.66292135 	0.0016311356 	0.00045692461 	2.3455253e-07 	0.00085773249 	8.7202271e-07 	0.00040753736
0.6741573 	0.0016647538 	0.00048856283 	1.1595153e-07 	0.00090465285 	7.9355309e-07 	0.00042063087
0.68539326 	0.0016952308 	0.00051744615 	1.3659652e-07 	0.00095119649 	8.3098117e-07 	0.0004248597
0.69662921 	0.001722771 	0.00054526169 	7.4594652e-08 	0.00099652023 	7.5247994e-07 	0.00044157591
0.70786517 	0.001746834 	0.00056999048 	1.3852331e-07 	0.0010401374 	8.7537702e-07 	0.00045039456
0.71910112 	0.0017685336 	0.00059424383 	-2.5993654e-08 	0.0010830847 	5.2745933e-07 	0.0004693911
0.73033708 	0.0017853337 	0.00061557424 	1.3340821e-07 	0.0011243168 	8.6529139e-07 	0.0004824332
0.74157303 	0.0018001241 	0.00063664213 	-7.3499148e-08 	0.0011649379 	3.3984181e-07 	0.0004908267
0.75280899 	0.0018087117 	0.00065498022 	6.9719367e-08 	0.0012041037 	7.2343228e-07 	0.00051908296
0.76404494 	0.0018147516 	0.00067294186 	-5.4202947e-08 	0.0012425841 	3.3795899e-07 	0.00053984799
0.7752809 	0.0018157829 	0.00068770192 	-1.4531147e-08 	0.0012779711 	4.964611e-07 	0.00055915831
0.78651685 	0.0018139792 	0.00070204431 	-3.5860723e-08 	0.0013131873 	4.0285682e-07 	0.00058054509
0.79775281 	0.0018122376 	0.00071313558 	-5.0629043e-08 	0.0013429611 	2.089769e-07 	0.00048527315
0.80898876 	0.0018117575 	0.00072381606 	-6.4960585e-08 	0.0013722651 	4.035862e-07 	0.00062469634
0.82022472 	0.0018166294 	0.0007324314 	-7.5120747e-09 	0.0013960873 	1.2562491e-07 	0.00035674993
0.83146067 	0.0018331093 	0.00074156111 	-2.404304e-08 	0.0014186706 	3.162924e-07 	0.00067403903
0.84269663 	0.0018620203 	0.00075366602 	7.4019105e-08 	0.0014461115 	5.2178674e-07 	0.00070672203
0.85393258 	0.0019036726 	0.00077123208 	2.6350253e-09 	0.0014845937 	2.3906426e-07 	0.00070272477
0.86516854 	0.0019588703 	0.00080410052 	4.0989207e-08 	0.0015612659 	7.910881e-08 	0.00013834221
0.87640449 	0.00203855 	0.00085438327 	1.4453005e-09 	0.0016813255 	1.9876805e-07 	0.00083183228
0.88764045 	0.0021604413 	0.00092875482 	4.4281702e-07 	0.0018588098 	1.2233136e-06 	0.00094104668
0.8988764 	0.0023439712 	0.0010281041 	9.2532452e-07 	0.0020880251 	2.2177417e-06 	0.0010736164
0.91011236 	0.0025957817 	0.0011533836 	1.1706124e-06 	0.0023639989 	2.6204466e-06 	0.0012410971
0.92134831 	0.0029016484 	0.001299776 	9.4792279e-07 	0.0026779303 	2.0808763e-06 	0.0014331451
0.93258427 	0.0032339847 	0.0014566044 	2.1935759e-07 	0.0030146204 	5.0245397e-07 	0.0016366939
0.94382022 	0.0035548856 	0.0016074635 	1.5978895e-07 	0.0033421162 	2.3970135e-07 	0.00063405936
0.95505618 	0.0038211269 	0.0017349242 	4.4036205e-08 	0.0036254025 	7.2821898e-08 	0.0017917132
0.96629213 	0.0039387814 	0.0017962137 	3.360147e-07 	0.0037701532 	5.7720258e-07 	0.00011174122
0.97752809 	0.0036457861 	0.0016754688 	-2.0274472e-07 	0.0035290326 	-4.2832756e-07 	0.0021668858
0.98876404 	0.0018135875 	0.00083938187 	-1.0114018e-06 	0.0017830127 	-2.0351007e-06 	0.0011421358
