0.4742268 	0.00024649624 	-7.6442472e-05 	5.1115156e-09 	0.00024787824 	-6.5460705e-09 	7.4115165e-05
0.48453608 	0.004065926 	-0.0019229188 	5.0789774e-08 	0.0040529091 	-2.1001127e-06 	0.0014264502
0.49484536 	0.0038953525 	-0.001821702 	1.8550474e-06 	0.0038717731 	-5.6479165e-06 	0.0018962921
0.50515464 	0.0026396616 	-0.0012382818 	-1.33437e-07 	0.0026255051 	2.2493917e-06 	0.0010816674
0.51546392 	0.0017312674 	-0.00080201875 	-5.5236278e-08 	0.0017033313 	1.6650427e-06 	0.00077736893
0.5257732 	0.0013405727 	-0.00050619229 	1.7043878e-06 	0.0013370033 	-1.5765186e-06 	0.00064128374
0.53608247 	0.0012351811 	-0.00031936139 	1.4014681e-08 	0.0012424804 	-1.4090092e-06 	0.000596991
0.54639175 	0.0012413465 	-0.00016807369 	-3.8764136e-07 	0.0012428741 	-2.0386207e-06 	0.00052370534
0.55670103 	0.0012696283 	-5.3353075e-05 	-4.1196503e-07 	0.0012863964 	-2.6724092e-06 	0.00051196163
0.56701031 	0.0013099678 	4.2416605e-05 	-3.9234724e-07 	0.0013271257 	-3.9658143e-06 	0.00063230231
0.57731959 	0.0013477974 	0.00013571381 	2.1246865e-07 	0.0013751296 	-4.5399195e-06 	0.00065338169
0.58762887 	0.0013862436 	0.00022646854 	7.8830072e-07 	0.0014184434 	-4.5755911e-06 	0.00067691766
0.59793814 	0.0014229143 	0.00031428419 	8.2252214e-08 	0.0014604684 	-3.5541168e-06 	0.00070053593
0.60824742 	0.0014583778 	0.00040046685 	-8.3728878e-08 	0.0014975421 	-1.0982621e-07 	1.9797681e-05
0.6185567 	0.0014905678 	0.00048144883 	5.7402342e-07 	0.0015351509 	-6.392701e-07 	0.00072529822
0.62886598 	0.0015196954 	0.00055803917 	1.2622264e-06 	0.0015714221 	3.6985765e-06 	0.00074790801
0.63917526 	0.0015486772 	0.00062557935 	8.2690179e-08 	0.0016002623 	1.4736862e-06 	0.00014518339
0.64948454 	0.0015761169 	0.00068365541 	1.2074975e-06 	0.0016250254 	8.2433472e-06 	0.00077106769
0.65979381 	0.0016034204 	0.00073738726 	8.9036717e-07 	0.0016426934 	1.1942905e-05 	0.00079564584
0.67010309 	0.0016225533 	0.00076391789 	6.0177872e-07 	0.0016663921 	8.3098458e-06 	0.00055588937
0.68041237 	0.0016354201 	0.00077223582 	5.3683186e-07 	0.0016934966 	1.2347187e-05 	0.0008094558
0.69072165 	0.001647319 	0.00077801581 	1.9982413e-07 	0.0017080585 	4.3571959e-06 	0.00028656891
0.70103093 	0.001656892 	0.00078204954 	3.3666172e-07 	0.0017154256 	1.0650621e-05 	0.00081822969
0.71134021 	0.0016641922 	0.00078355591 	1.4874995e-07 	0.0017122666 	3.5653341e-06 	0.00026639029
0.72164948 	0.0016681579 	0.00078394112 	3.1826389e-07 	0.001707202 	7.3356298e-06 	0.00082068197
0.73195876 	0.0016681755 	0.00078320354 	2.7199074e-07 	0.0017028447 	4.4168623e-06 	0.00047028961
0.74226804 	0.0016649699 	0.00078207931 	3.0092304e-07 	0.0017012559 	3.2911951e-06 	0.00081742442
0.75257732 	0.0016609762 	0.00078070011 	3.3388753e-07 	0.001699074 	2.9364439e-06 	0.00068803571
0.7628866 	0.0016565906 	0.00077927514 	1.9167828e-07 	0.0016968222 	2.0770006e-07 	0.00081484096
0.77319588 	0.0016518005 	0.00077758955 	2.0811165e-07 	0.0016940116 	2.6116298e-07 	0.00072976268
0.78350515 	0.0016472262 	0.00077587205 	2.9561125e-08 	0.0016909918 	-1.4056685e-06 	0.00081168272
0.79381443 	0.0016429013 	0.00077381587 	5.6813192e-08 	0.001686214 	-8.4937736e-07 	0.00053578826
0.80412371 	0.0016391857 	0.00077193868 	-1.3943958e-07 	0.0016815503 	-1.885645e-06 	0.00080811514
0.81443299 	0.0016357303 	0.00076959457 	-4.673201e-09 	0.0016745775 	-1.6365347e-07 	7.6083345e-05
0.82474227 	0.00163267 	0.00076795547 	-1.5727041e-07 	0.0016702522 	-1.4698256e-06 	0.00080469804
0.83505155 	0.0016297448 	0.00076607531 	-2.0815967e-08 	0.0016647997 	-5.7591535e-07 	0.0007298584
0.84536082 	0.0016273469 	0.00076424974 	-1.4016571e-08 	0.001659098 	-3.2024507e-07 	0.00039779164
0.8556701 	0.0016251388 	0.00076287477 	-1.3215448e-07 	0.0016552184 	-5.2052387e-07 	0.0007993338
0.86597938 	0.0016234593 	0.00076144483 	-4.278443e-08 	0.001650601 	-1.3483937e-07 	0.00079726539
0.87628866 	0.0016225448 	0.00075997173 	-5.1981949e-09 	0.001645032 	4.2251263e-12 	0.0002101878
0.88659794 	0.0016225749 	0.00075924771 	-3.8311742e-09 	0.0016417727 	7.8709531e-09 	0.00041830826
0.89690722 	0.0016247545 	0.00075953995 	-1.1909979e-08 	0.0016407393 	4.2796333e-09 	0.00079519543
0.90721649 	0.0016322327 	0.00076208456 	-2.7256817e-08 	0.0016440756 	-4.7944307e-08 	0.00079718716
0.91752577 	0.0016513709 	0.00076989817 	1.4489278e-08 	0.0016583999 	2.6240894e-08 	0.00080435277
0.92783505 	0.0016962799 	0.00078942429 	7.7245532e-08 	0.0016975084 	1.5831563e-07 	0.00082162318
0.93814433 	0.0017963807 	0.00083454327 	2.2982883e-09 	0.0017920984 	6.8155447e-09 	0.00083503764
0.94845361 	0.0020147725 	0.00093524076 	1.2130898e-07 	0.0020061436 	2.587615e-07 	0.00011926373
0.95876289 	0.0024121089 	0.0011221127 	3.4091812e-07 	0.0023998714 	7.1319491e-07 	0.0012089726
0.96907216 	0.0029222961 	0.0013620742 	1.2861347e-07 	0.0029050737 	2.8136475e-07 	0.00038557128
0.97938144 	0.0031414025 	0.0014707153 	-2.4683502e-08 	0.0031308882 	-6.2177796e-08 	0.0015420642
0.98969072 	0.0018216379 	0.00085041677 	-7.81942e-07 	0.0018176653 	-1.5539369e-06 	0.00094111448
