0.4709558481 	0.173591692 	-0.0002640749474 	9.718461033e-09
0.4720092239 	0.6595716471 	-0.0001461737599 	-9.85017227e-09
0.4730625996 	1.228012841 	0.0004445980018 	-3.468098635e-08
0.4741159754 	1.613047474 	0.0003556878393 	-2.584371588e-08
0.4751693511 	1.844737365 	4.161260484e-05 	-3.533714247e-08
0.4762227269 	2.013819929 	0.0001344344995 	-6.177132075e-08
0.4778443634 	2.16246302 	0.0002585060637 	-8.68505593e-08
0.4796765386 	2.288448232 	0.000372962531 	-1.176591459e-07
0.4817465869 	2.394614054 	0.0005188397349 	-1.561266702e-07
0.4840853915 	2.487662538 	0.0006649218145 	-2.022960203e-07
0.4867278453 	2.57146788 	0.0008391130865 	-2.577112755e-07
0.4897133715 	2.648327818 	0.001044660084 	-3.233749333e-07
0.4930865115 	2.719555077 	0.001284428993 	-3.996079465e-07
0.4968975894 	2.785760233 	0.001559596074 	-4.852109504e-07
0.5012034633 	2.846992881 	0.0018740283 	-5.78004391e-07
0.506068373 	2.907479356 	0.002253088775 	-6.755057353e-07
0.5134203412 	2.966100678 	0.002697156387 	-7.711741961e-07
0.5212948542 	3.01343102 	0.003146412544 	-8.423266715e-07
0.529729052 	3.046658377 	0.003534418403 	-8.592761245e-07
0.5387627144 	3.068223129 	0.003830837034 	-8.275950423e-07
0.5484384488 	3.081029145 	0.004038681713 	-7.748340827e-07
0.5588018907 	3.087657964 	0.004168733705 	-7.174840162e-07
0.5699019192 	3.089923355 	0.004233185778 	-6.648358678e-07
0.5817908876 	3.088959632 	0.004242399463 	-6.185953793e-07
0.5945248701 	3.085435191 	0.004202599947 	-5.769069209e-07
0.6081639266 	3.079725526 	0.004116411737 	-5.375454751e-07
0.6227723857 	3.072028176 	0.003984060677 	-4.985362439e-07
0.638419148 	3.062433005 	0.003804221109 	-4.581438802e-07
0.6551780116 	3.050963142 	0.003574630234 	-4.148384161e-07
0.6731280194 	3.037596764 	0.003292608759 	-3.673290067e-07
0.6923538328 	3.022275057 	0.002955555324 	-3.146491444e-07
0.7129461301 	3.004897935 	0.002561467624 	-2.562624075e-07
0.7350020349 	2.985647073 	0.002117589211 	-1.932187167e-07
0.7570579485 	2.965458856 	0.001652560254 	-1.292910748e-07
0.7776502527 	2.945358712 	0.001199089497 	-6.798664115e-08
0.7968760713 	2.925632912 	0.0007720771015 	-9.778401046e-09
0.814826083 	2.90616839 	0.0003765511102 	4.63897658e-08
0.831584949 	2.886800234 	1.632634845e-05 	1.017141225e-07
0.8472317127 	2.867314632 	-0.0003054907405 	1.572560668e-07
0.8618401721 	2.84744457 	-0.0005861162053 	2.13716238e-07
0.8754792281 	2.826859751 	-0.0008228560753 	2.71247666e-07
0.8882132094 	2.805151368 	-0.001013015653 	3.292774658e-07
0.9001021759 	2.781812219 	-0.001153955461 	3.863117247e-07
0.9112022019 	2.756213129 	-0.001243323311 	4.397289152e-07
0.9215656407 	2.727577617 	-0.001279534715 	4.85631518e-07
0.9312413717 	2.694957574 	-0.001262515712 	5.189118434e-07
0.9402750304 	2.657210903 	-0.001194718653 	5.337719089e-07
0.9487092242 	2.612974308 	-0.001078485178 	5.246003492e-07
0.9565837329 	2.56060735 	-0.0009288891879 	4.887024514e-07
0.9639356968 	2.502673197 	-0.0007717153253 	4.32135787e-07
0.9688006083 	2.446457635 	-0.00063047442 	3.707691069e-07
0.9731064834 	2.391206116 	-0.0005127898028 	3.123726141e-07
0.976917562 	2.332320261 	-0.0004110178171 	2.563778494e-07
0.9802907021 	2.269319785 	-0.0003229511274 	2.051942494e-07
0.9832762282 	2.201351184 	-0.0002493436239 	1.604153912e-07
0.9859186816 	2.127010849 	-0.0001896127126 	1.225273071e-07
0.9882574856 	2.04403723 	-0.0001420856738 	9.128642823e-08
0.990327533 	1.948719407 	-8.101103855e-05 	6.590992128e-08
0.9921597073 	1.834678751 	-3.173844523e-05 	4.607147333e-08
0.9937813429 	1.698880077 	2.467692791e-05 	3.102451871e-08
0.9948347186 	1.54309691 	8.336828391e-07 	1.960691035e-08
0.9958880943 	1.329296267 	-0.0002905589966 	1.367223072e-08
0.9969414701 	0.9885098322 	-0.0002372131467 	9.927727997e-09
0.9979948458 	0.5204485735 	0.0001894230669 	1.963525589e-09
0.9990482216 	0.1497048226 	0.0001955488823 	-1.901410832e-09
0.9990482216 	0.1497048226 	0.0001955488823 	-1.901410832e-09
