0.4709558481 	1.436756693e-05 	-5.505930372e-07 	5.397904044e-11 	1.433133719e-05 	-1.006336754e-09 	2.731951187e-08
0.4720092239 	0.00118620023 	-0.0003128210985 	2.740371037e-08 	0.001146394808 	-7.891552307e-08 	2.185347128e-06
0.4730625996 	0.009975219756 	-0.004245476555 	2.526895386e-07 	0.009106126034 	-4.917998788e-07 	1.735880714e-05
0.4741159754 	0.02300094636 	-0.01063610968 	4.723244946e-07 	0.02068568645 	-8.781447838e-07 	3.943266766e-05
0.4751693511 	0.03070971523 	-0.01436925245 	4.852861693e-07 	0.02752610425 	-9.194186794e-07 	5.247240519e-05
0.4762227269 	0.03465353143 	-0.01617946756 	4.701378018e-07 	0.03103863229 	-8.849863607e-07 	5.916825988e-05
0.4778443634 	0.03688262754 	-0.01719288019 	4.394542404e-07 	0.03303667583 	-8.067163403e-07 	6.29770862e-05
0.4796765386 	0.03764668314 	-0.01742345085 	3.858733715e-07 	0.03376677245 	-6.823062252e-07 	6.436885328e-05
0.4817465869 	0.03769382379 	-0.01743596312 	3.191202776e-07 	0.03379626103 	-5.210415546e-07 	6.44250667e-05
0.4840853915 	0.03725758057 	-0.01725009199 	2.350188506e-07 	0.03337936164 	-3.210479788e-07 	6.36303406e-05
0.4867278453 	0.03645597375 	-0.0169117279 	1.307809306e-07 	0.03261905967 	-7.863278033e-08 	6.218099374e-05
0.4897133715 	0.03533841171 	-0.01643807656 	3.308235384e-09 	0.03156737894 	2.09365312e-07 	6.017619796e-05
0.4930865115 	0.03392623276 	-0.01583293885 	-1.503726061e-07 	0.03024689396 	5.437541869e-07 	5.765898659e-05
0.4968975894 	0.0322294165 	-0.01509380256 	-3.323751101e-07 	0.02866979406 	9.199539295e-07 	5.465259584e-05
0.5012034633 	0.03025601542 	-0.0142080378 	-5.430645595e-07 	0.02685214594 	1.323697806e-06 	5.118765334e-05
0.506068373 	0.02783843881 	-0.01312034433 	-8.034408488e-07 	0.02463378894 	1.758720335e-06 	4.695884833e-05
0.5134203412 	0.02486601628 	-0.01168801674 	-1.104737749e-06 	0.02196108116 	2.151405054e-06 	4.186392446e-05
0.5212948542 	0.0217706583 	-0.01003108989 	-1.39952632e-06 	0.01926576145 	2.32867625e-06 	3.672589597e-05
0.529729052 	0.01900758708 	-0.00837279569 	-1.637939635e-06 	0.01694973368 	2.200692986e-06 	3.231090333e-05
0.5387627144 	0.01673278897 	-0.006752090148 	-1.785768587e-06 	0.01515011042 	1.804305748e-06 	2.888032121e-05
0.5484384488 	0.01502668448 	-0.00520626729 	-1.861101543e-06 	0.01390575431 	1.249582557e-06 	2.650823261e-05
0.5588018907 	0.01388187743 	-0.003746348272 	-1.886726718e-06 	0.0131670308 	6.690198022e-07 	2.510002029e-05
0.5699019192 	0.01322962048 	-0.002379694121 	-1.872221743e-06 	0.01282922701 	1.58706824e-07 	2.445607238e-05
0.5817908876 	0.0129723742 	-0.001108109267 	-1.829785646e-06 	0.01278061105 	-2.463700159e-07 	2.436339684e-05
0.5945248701 	0.0130119632 	7.173207145e-05 	-1.770117693e-06 	0.01292993029 	-5.508608691e-07 	2.464804082e-05
0.6081639266 	0.01326355382 	0.001164147368 	-1.699604661e-06 	0.01321088768 	-7.728840903e-07 	2.518362369e-05
0.6227723857 	0.01365898726 	0.002172505475 	-1.62052272e-06 	0.01357686604 	-9.300927677e-07 	2.588128017e-05
0.638419148 	0.01414476126 	0.003098243347 	-1.532030399e-06 	0.01399407491 	-1.035419494e-06 	2.667659623e-05
0.6551780116 	0.01467851906 	0.003940865419 	-1.431486533e-06 	0.01443623966 	-1.097047264e-06 	2.751948513e-05
0.6731280194 	0.01522610194 	0.004698663601 	-1.315420944e-06 	0.01488124159 	-1.119449703e-06 	2.83677825e-05
0.6923538328 	0.01575989016 	0.005369929389 	-1.180028963e-06 	0.01530943945 	-1.104323538e-06 	2.918404664e-05
0.7129461301 	0.01625863283 	0.005954630855 	-1.021257069e-06 	0.01570338909 	-1.051000961e-06 	2.993502413e-05
0.7350020349 	0.01670187211 	0.006448992055 	-8.381895632e-07 	0.01604380811 	-9.579906648e-07 	3.058395741e-05
0.7570579485 	0.01707194105 	0.006846637543 	-6.387552036e-07 	0.01631376298 	-8.280774169e-07 	3.109856641e-05
0.7776502527 	0.01737512576 	0.007161042589 	-4.33713121e-07 	0.0165174709 	-6.67902783e-07 	3.148689032e-05
0.7968760713 	0.01764101475 	0.007424342883 	-2.279196601e-07 	0.01667901021 	-4.808693182e-07 	3.179482915e-05
0.814826083 	0.01790282081 	0.007666923851 	-2.33347363e-08 	0.01682632708 	-2.672450327e-07 	3.207565605e-05
0.831584949 	0.0181905822 	0.007912542741 	1.775838882e-07 	0.01698595514 	-2.731141725e-08 	3.237995149e-05
0.8472317127 	0.01853143837 	0.008179780947 	3.715372693e-07 	0.01718326996 	2.376485965e-07 	3.275608838e-05
0.8618401721 	0.01894989735 	0.008482898581 	5.541138297e-07 	0.01744269407 	5.24346934e-07 	3.325062285e-05
0.8754792281 	0.01946780781 	0.008832224774 	7.19657163e-07 	0.01778763728 	8.263338899e-07 	3.390818048e-05
0.8882132094 	0.02010382929 	0.00923419517 	8.613636147e-07 	0.01823988356 	1.132733143e-06 	3.477028759e-05
0.9001021759 	0.02087222164 	0.009691153791 	9.717130932e-07 	0.01881818033 	1.427217328e-06 	3.587268196e-05
0.9112022019 	0.02178089149 	0.0102010673 	1.043313156e-06 	0.01953592287 	1.687918801e-06 	3.724089871e-05
0.9215656407 	0.02282889421 	0.01075734103 	1.070150054e-06 	0.02039810419 	1.88914315e-06 	3.888445594e-05
0.9312413717 	0.02400394674 	0.01134898763 	1.049077332e-06 	0.02139811312 	2.00541876e-06 	4.07907509e-05
0.9402750304 	0.02528102326 	0.01196119857 	9.811771948e-07 	0.02251469051 	2.017419797e-06 	4.291925774e-05
0.9487092242 	0.0266208726 	0.0125762716 	8.724837876e-07 	0.02371308366 	1.917891388e-06 	4.520372817e-05
0.9565837329 	0.02797694819 	0.0131916486 	7.334118908e-07 	0.02494104481 	1.715133696e-06 	4.754456341e-05
0.9639356968 	0.02916969631 	0.01367562878 	5.872120832e-07 	0.02605341282 	1.454245603e-06 	4.966504601e-05
0.9688006083 	0.03007527542 	0.01401272187 	4.62958379e-07 	0.02691601179 	1.203378089e-06 	5.130939939e-05
0.9731064834 	0.03078319346 	0.01429954513 	3.624094346e-07 	0.02758257698 	9.798485827e-07 	5.25800579e-05
0.976917562 	0.03134646601 	0.01451666801 	2.759357913e-07 	0.02811922542 	7.742196144e-07 	5.360305898e-05
0.9802907021 	0.03175770698 	0.01467068011 	2.034699125e-07 	0.02851427353 	5.92138816e-07 	5.435613048e-05
0.9832762282 	0.03200077631 	0.01475719856 	1.440410342e-07 	0.02875245348 	4.356746194e-07 	5.481016766e-05
0.9859186816 	0.0320458897 	0.01476579666 	9.612570955e-08 	0.02880514591 	3.045668065e-07 	5.491061407e-05
0.9882574856 	0.03183570529 	0.0146733195 	5.806402151e-08 	0.02861497427 	1.972048328e-07 	5.454809407e-05
0.990327533 	0.03124882225 	0.0144297109 	2.807890363e-08 	0.02807597725 	1.114502694e-07 	5.352061596e-05
0.9921597073 	0.03005055491 	0.01399720053 	5.359630881e-09 	0.02694484944 	4.526633631e-08 	5.136437196e-05
0.9937813429 	0.02758187126 	0.01288749774 	-1.042213802e-08 	0.02472051003 	1.453332398e-11 	4.712416282e-05
0.9948347186 	0.0236118091 	0.01104397447 	-2.068048256e-08 	0.02117743131 	-2.709059588e-08 	4.037007004e-05
0.9958880943 	0.01646723335 	0.007521877839 	-2.455084543e-08 	0.01485023349 	-3.905020822e-08 	2.830867244e-05
0.9969414701 	0.006494176609 	0.002658507544 	-1.340257666e-08 	0.00596906808 	-2.369998668e-08 	1.137870278e-05
0.9979948458 	0.0006953075654 	0.0001597310594 	-1.185805184e-09 	0.0006773753998 	-3.379920155e-09 	1.291265779e-06
0.9990482216 	9.219490359e-06 	2.865061556e-07 	-2.371739711e-12 	9.198299612e-06 	-4.657944355e-11 	1.753451559e-08
0.9990482216 	9.219490359e-06 	2.865061556e-07 	-2.371739711e-12 	9.198299612e-06 	-4.657944355e-11 	1.753451559e-08
