0.4709558481 	1.473093226e-05 	-5.701390772e-07 	5.443780183e-11 	1.469359063e-05 	-1.003693074e-09 	2.80100676e-08
0.4720092239 	0.001216097873 	-0.0003227181631 	2.750026243e-08 	0.001174789548 	-7.864258764e-08 	2.239475395e-06
0.4730625996 	0.01017139284 	-0.004336104513 	2.502704932e-07 	0.00928230866 	-4.860671866e-07 	1.769466019e-05
0.4741159754 	0.02335323619 	-0.01080496276 	4.650173484e-07 	0.02099933589 	-8.631505887e-07 	4.003057067e-05
0.4751693511 	0.03107728235 	-0.0145421533 	4.748743115e-07 	0.02785328304 	-8.976710274e-07 	5.30960989e-05
0.4762227269 	0.0350078736 	-0.01634641512 	4.573453532e-07 	0.03135215353 	-8.570618184e-07 	5.976591851e-05
0.4778443634 	0.0372064263 	-0.01734804375 	4.231241137e-07 	0.0333202688 	-7.701759505e-07 	6.351769322e-05
0.4796765386 	0.03792167098 	-0.01755835443 	3.648673254e-07 	0.03400325904 	-6.342068811e-07 	6.481966244e-05
0.4817465869 	0.03790597273 	-0.01754557754 	2.919560325e-07 	0.03397184944 	-4.585273679e-07 	6.475978702e-05
0.4840853915 	0.03739137928 	-0.01732784872 	1.999984958e-07 	0.03347954121 	-2.409211262e-07 	6.382131071e-05
0.4867278453 	0.03649428968 	-0.01695001331 	8.594670251e-08 	0.03262800265 	2.236732982e-08 	6.219804153e-05
0.4897133715 	0.03526261654 	-0.01642814534 	-5.344143042e-08 	0.03146824142 	3.340083455e-07 	5.998721428e-05
0.4930865115 	0.0337171411 	-0.0157650164 	-2.209972152e-07 	0.03002287905 	6.931979274e-07 	5.72319519e-05
0.4968975894 	0.03186942402 	-0.01495750793 	-4.18106714e-07 	0.02830645205 	1.091848747e-06 	5.395996499e-05
0.5012034633 	0.02973296703 	-0.01399316871 	-6.435750987e-07 	0.02634139792 	1.509307362e-06 	5.021402565e-05
0.506068373 	0.02713761918 	-0.01281000312 	-9.136432384e-07 	0.02396840288 	1.938348409e-06 	4.569043756e-05
0.5134203412 	0.02400156784 	-0.01126982774 	-1.214587504e-06 	0.02116487624 	2.281938881e-06 	4.034613658e-05
0.5212948542 	0.02082184516 	-0.009507838791 	-1.505849997e-06 	0.01842709378 	2.35504541e-06 	3.51271623e-05
0.529729052 	0.01809113804 	-0.007770111378 	-1.712052408e-06 	0.01618271903 	2.100895337e-06 	3.084876022e-05
0.5387627144 	0.01595749164 	-0.006106972012 	-1.806864179e-06 	0.01454616429 	1.603761446e-06 	2.772903204e-05
0.5484384488 	0.01446132621 	-0.004541909372 	-1.843271866e-06 	0.01351016585 	1.006106991e-06 	2.575413107e-05
0.5588018907 	0.01354817542 	-0.003079644496 	-1.834315591e-06 	0.01297599068 	4.461864611e-07 	2.473584472e-05
0.5699019192 	0.01311179953 	-0.001724016642 	-1.790452057e-06 	0.01280930712 	-5.301629927e-09 	2.441809953e-05
0.5817908876 	0.01303514616 	-0.0004716420334 	-1.727830412e-06 	0.01289178237 	-3.420591308e-07 	2.457532028e-05
0.5945248701 	0.01321519263 	0.0006845033029 	-1.656408551e-06 	0.01313718849 	-5.840822203e-07 	2.504313256e-05
0.6081639266 	0.01357006946 	0.001750676055 	-1.58082067e-06 	0.01348688855 	-7.543569208e-07 	2.570975807e-05
0.6227723857 	0.01403712023 	0.002730662976 	-1.501422256e-06 	0.01390068961 	-8.706137662e-07 	2.649857789e-05
0.638419148 	0.01456810184 	0.003625326874 	-1.416054883e-06 	0.01434923231 	-9.446753096e-07 	2.735362495e-05
0.6551780116 	0.01512473787 	0.004433107328 	-1.321464271e-06 	0.01480898802 	-9.838360182e-07 	2.823004711e-05
0.6731280194 	0.01567571912 	0.005151053983 	-1.21410987e-06 	0.01525937878 	-9.923334539e-07 	2.908861709e-05
0.6923538328 	0.01619523338 	0.005776174006 	-1.09048515e-06 	0.01568146161 	-9.72367015e-07 	2.989322427e-05
0.7129461301 	0.01666289589 	0.006307108733 	-9.470844622e-07 	0.01605779396 	-9.244824009e-07 	3.061061833e-05
0.7350020349 	0.01705897887 	0.006739814037 	-7.832761155e-07 	0.01636884773 	-8.486476681e-07 	3.120357326e-05
0.7570579485 	0.01736846858 	0.007070558395 	-6.060775407e-07 	0.01659862128 	-7.474436557e-07 	3.16415855e-05
0.7776502527 	0.01760130038 	0.007316316048 	-4.245576849e-07 	0.01675315422 	-6.249225698e-07 	3.193616825e-05
0.7968760713 	0.01778864652 	0.007510666568 	-2.421456627e-07 	0.01685712496 	-4.815523101e-07 	3.213436538e-05
0.814826083 	0.01796381162 	0.007684424403 	-5.947371995e-08 	0.01693802139 	-3.149961072e-07 	3.228857645e-05
0.831584949 	0.0181569351 	0.007861925065 	1.224746108e-07 	0.01702188422 	-1.227814231e-07 	3.244844231e-05
0.8472317127 	0.01839569094 	0.008062615305 	3.019389685e-07 	0.01713389618 	9.681867117e-08 	3.266196824e-05
0.8618401721 	0.01870589628 	0.008302028793 	4.75993452e-07 	0.01729891831 	3.439315144e-07 	3.297654628e-05
0.8754792281 	0.01911181505 	0.008592261551 	6.402385156e-07 	0.01754182676 	6.160490353e-07 	3.34395973e-05
0.8882132094 	0.01963597506 	0.008942028654 	7.88646958e-07 	0.01788738354 	9.066762648e-07 	3.409832456e-05
0.9001021759 	0.02029825991 	0.009356378603 	9.136785326e-07 	0.01835932199 	1.203755757e-06 	3.499797041e-05
0.9112022019 	0.02111403401 	0.009836170306 	1.006805419e-06 	0.01897832327 	1.488362806e-06 	3.617795891e-05
0.9215656407 	0.02209121579 	0.01037747695 	1.059569259e-06 	0.01975870535 	1.734660918e-06 	3.766558405e-05
0.9312413717 	0.02322659106 	0.01097119271 	1.065174577e-06 	0.02070406505 	1.912349125e-06 	3.946770238e-05
0.9402750304 	0.02450244036 	0.01160299605 	1.020402985e-06 	0.02180211744 	1.99232114e-06 	4.156089542e-05
0.9487092242 	0.02588278243 	0.01225381344 	9.273279841e-07 	0.02302329844 	1.95452552e-06 	4.388880582e-05
0.9565837329 	0.02731871256 	0.01291789683 	7.93606511e-07 	0.02431471365 	1.795424664e-06 	4.635060214e-05
0.9639356968 	0.02861383455 	0.0134549145 	6.438842195e-07 	0.02551649731 	1.552701804e-06 	4.864153583e-05
0.9688006083 	0.02961783017 	0.01383821107 	5.110053071e-07 	0.02646900583 	1.299871837e-06 	5.04572818e-05
0.9731064834 	0.03041332403 	0.01416320821 	3.99616992e-07 	0.02721770314 	1.064565507e-06 	5.188450696e-05
0.976917562 	0.03105702322 	0.01441350208 	3.021775228e-07 	0.02783115888 	8.419292042e-07 	5.30539241e-05
0.9802907021 	0.03153934632 	0.01459552147 	2.195676545e-07 	0.02829500506 	6.409835313e-07 	5.393814383e-05
0.9832762282 	0.03184335982 	0.01470511713 	1.513852612e-07 	0.02859278535 	4.660741616e-07 	5.450579583e-05
0.9859186816 	0.03193942684 	0.01473236732 	9.629440005e-08 	0.02869570085 	3.183053296e-07 	5.470198138e-05
0.9882574856 	0.03177086857 	0.01465471572 	5.259010881e-08 	0.02854680817 	1.967493531e-07 	5.441815054e-05
0.990327533 	0.03121720169 	0.01442277523 	1.829998165e-08 	0.02804085037 	9.951375517e-08 	5.345365436e-05
0.9921597073 	0.0300445166 	0.0139991081 	-7.592963644e-09 	0.02693521852 	2.46239022e-08 	5.134601276e-05
0.9937813429 	0.02759320139 	0.01289546329 	-2.52182116e-08 	0.02472820898 	-2.608814235e-08 	4.713883917e-05
0.9948347186 	0.02363337402 	0.01105581287 	-3.640758159e-08 	0.02119531164 	-5.567709363e-08 	4.040415491e-05
0.9958880943 	0.01649213046 	0.007534761523 	-3.918119179e-08 	0.01487176353 	-6.582196573e-08 	2.834971469e-05
0.9969414701 	0.006508199008 	0.002665302255 	-2.056769344e-08 	0.005981492665 	-3.7755893e-08 	1.140238749e-05
0.9979948458 	0.0006971451921 	0.0001603234129 	-1.790212854e-09 	0.0006791280786 	-5.319659246e-09 	1.294606872e-06
0.9990482216 	9.243708068e-06 	2.876848045e-07 	-3.559458166e-12 	9.222449101e-06 	-7.329040305e-11 	1.758055123e-08
0.9990482216 	9.243708068e-06 	2.876848045e-07 	-3.559458166e-12 	9.222449101e-06 	-7.329040305e-11 	1.758055123e-08
