0.4709558481 	0.1580110507 	-0.0002286779615 	6.056731679e-09
0.4720092239 	0.6014355408 	-0.0001738829621 	-5.984953967e-09
0.4730625996 	1.128226098 	0.0003369527473 	-2.341344607e-08
0.4741159754 	1.494842985 	0.0002912442799 	-1.962976745e-08
0.4751693511 	1.718260699 	-3.889443596e-05 	-2.485858782e-08
0.4762227269 	1.880533792 	-2.125611017e-05 	-4.104049338e-08
0.4778443634 	2.022056859 	3.893370396e-05 	-5.598509075e-08
0.4796765386 	2.140852 	7.808243658e-05 	-7.282872819e-08
0.4817465869 	2.239985319 	0.000129733542 	-9.24400014e-08
0.4840853915 	2.326077026 	0.000163891466 	-1.14364047e-07
0.4867278453 	2.403027562 	0.0002050534378 	-1.389242791e-07
0.4897133715 	2.47327709 	0.00025373402 	-1.664557168e-07
0.4930865115 	2.538421621 	0.0003103112316 	-1.974285317e-07
0.4968975894 	2.599529911 	0.0003748710614 	-2.324112634e-07
0.5012034633 	2.657314847 	0.0004515580802 	-2.721125068e-07
0.506068373 	2.716947295 	0.0005485704912 	-3.218426762e-07
0.5134203412 	2.77971185 	0.0006683008962 	-3.860237651e-07
0.5212948542 	2.837892205 	0.0008078505985 	-4.57795084e-07
0.529729052 	2.888098624 	0.0009552728664 	-5.293966756e-07
0.5387627144 	2.931231919 	0.001100506754 	-5.976487712e-07
0.5484384488 	2.967832127 	0.001241073122 	-6.591450165e-07
0.5588018907 	2.998278358 	0.001370539986 	-7.105645909e-07
0.5699019192 	3.022924 	0.00148263257 	-7.490519836e-07
0.5817908876 	3.042175642 	0.001571810301 	-7.722651235e-07
0.5945248701 	3.056514855 	0.001633834561 	-7.781662978e-07
0.6081639266 	3.066466361 	0.001666015039 	-7.648983864e-07
0.6227723857 	3.072536114 	0.001667159633 	-7.310200779e-07
0.638419148 	3.075150012 	0.00163728451 	-6.759683113e-07
0.6551780116 	3.074611294 	0.001577151012 	-6.004853872e-07
0.6731280194 	3.071078259 	0.001487876706 	-5.067911363e-07
0.6923538328 	3.064552593 	0.001370832935 	-3.983601744e-07
0.7129461301 	3.054863733 	0.001227807749 	-2.794182982e-07
0.7350020349 	3.04188109 	0.001064421603 	-1.564539725e-07
0.7570579485 	3.026058422 	0.0008948261419 	-3.9699841e-08
0.7776502527 	3.008208459 	0.0007342408177 	6.21396252e-08
0.7968760713 	2.988711526 	0.0005898827345 	1.456192936e-07
0.814826083 	2.967584168 	0.0004641737786 	2.099227335e-07
0.831584949 	2.944767099 	0.0003581434109 	2.554201013e-07
0.8472317127 	2.920152784 	0.0002716448423 	2.835677978e-07
0.8618401721 	2.893603038 	0.0002035858006 	2.965409292e-07
0.8754792281 	2.864959241 	0.0001521414736 	2.968429976e-07
0.8882132094 	2.834045726 	0.0001149754647 	2.870115478e-07
0.9001021759 	2.800665854 	8.94678305e-05 	2.694456707e-07
0.9112022019 	2.764589627 	7.293620637e-05 	2.463239458e-07
0.9215656407 	2.725531027 	6.28035539e-05 	2.195694415e-07
0.9312413717 	2.68311188 	5.671591749e-05 	1.908329959e-07
0.9402750304 	2.636805938 	5.258875147e-05 	1.614779602e-07
0.9487092242 	2.58585107 	5.175340842e-05 	1.325251116e-07
0.9565837329 	2.529107946 	4.786798521e-05 	1.047996792e-07
0.9639356968 	2.469492419 	4.090895859e-05 	8.124354091e-08
0.9688006083 	2.413688055 	3.884236837e-05 	6.420565292e-08
0.9731064834 	2.359981253 	3.600941359e-05 	5.149984564e-08
0.976917562 	2.303388151 	3.113068569e-05 	4.095497325e-08
0.9802907021 	2.243120582 	2.723675418e-05 	3.223867597e-08
0.9832762282 	2.178078019 	2.34499438e-05 	2.511469341e-08
0.9859186816 	2.106673234 	1.922934479e-05 	1.935178921e-08
0.9882574856 	2.026518904 	1.459691741e-05 	1.471773609e-08
0.990327533 	1.933826105 	3.325819189e-05 	1.097374104e-08
0.9921597073 	1.822180321 	4.896702125e-05 	7.971527143e-09
0.9937813429 	1.688420617 	8.001179828e-05 	5.876924309e-09
0.9948347186 	1.534254591 	3.786154163e-05 	4.799526156e-09
0.9958880943 	1.321945296 	-0.0002660168691 	3.292031452e-09
0.9969414701 	0.982962764 	-0.0002231081065 	1.293605145e-09
0.9979948458 	0.5173895125 	0.0001928389472 	8.316390273e-10
0.9990482216 	0.1487909282 	0.0001944828493 	6.661867074e-10
0.9990482216 	0.1487909282 	0.0001944828493 	6.661867074e-10
