0.3524915403 	2.221205349e-05 	-1.059879945e-06 	1.80099626e-09 	2.145813506e-05 	-2.747573149e-08 	4.090516941e-08
0.3536068642 	0.002109684214 	-0.0005636632014 	1.180302036e-06 	0.00165196865 	-2.624058972e-06 	3.149111388e-06
0.3547223496 	0.01577308763 	-0.00575064078 	7.740864899e-06 	0.01067075442 	-1.119958968e-05 	2.034142372e-05
0.3558378442 	0.03172379195 	-0.01220481181 	9.608667737e-06 	0.02078441569 	-1.118285709e-05 	3.962087303e-05
0.3569531967 	0.03641187174 	-0.01412247131 	2.360951903e-06 	0.02374753444 	1.283948019e-06 	4.526940093e-05
0.3580682569 	0.03575388857 	-0.01393464335 	-5.474978121e-06 	0.02326936249 	1.460232582e-05 	4.435787229e-05
0.35978394 	0.03208340464 	-0.01258411572 	-1.437629982e-05 	0.02090400174 	2.706910643e-05 	3.984883729e-05
0.361720438 	0.0265166282 	-0.01031022457 	-2.220308375e-05 	0.01758172375 	3.185747468e-05 	3.351565206e-05
0.3639049575 	0.02121371574 	-0.007985407583 	-2.452443029e-05 	0.01468746016 	2.39560685e-05 	2.799838122e-05
0.3663674413 	0.01720915842 	-0.006005710867 	-1.949479528e-05 	0.01297329863 	5.495425397e-06 	2.473071294e-05
0.36920096 	0.01473776399 	-0.004527053254 	-1.310408215e-05 	0.01260214917 	-1.463398505e-05 	2.402319891e-05
0.3724184949 	0.01337196748 	-0.003385995228 	-9.853661597e-06 	0.01328987451 	-2.805867842e-05 	2.533419455e-05
0.3760438857 	0.01259272875 	-0.002427561976 	-7.471872585e-06 	0.0145237596 	-3.357135329e-05 	2.768632247e-05
0.3801277765 	0.01208417497 	-0.001597360749 	-5.584187851e-06 	0.01592788687 	-3.451880146e-05 	3.03629793e-05
0.3848143963 	0.01168442764 	-0.0008355547765 	-4.428758991e-06 	0.01733340841 	-3.288053581e-05 	3.304229401e-05
0.3901331779 	0.01128487884 	-2.531119382e-05 	-4.180656494e-06 	0.01877801276 	-2.997412245e-05 	3.57961114e-05
0.3981914987 	0.01085557889 	0.0009377889382 	-3.605406338e-06 	0.02006184992 	-2.081693462e-05 	3.824346185e-05
0.4069277984 	0.01051185282 	0.001902136604 	-1.574031753e-06 	0.02068538487 	-9.668669048e-06 	3.943209276e-05
0.4163791821 	0.01032288333 	0.002640495962 	4.722939376e-07 	0.02064753445 	-4.682623236e-06 	3.935993935e-05
0.4265723647 	0.01021992414 	0.003130406237 	1.511804377e-06 	0.02040627568 	-3.066230833e-06 	3.890003308e-05
0.4375983103 	0.01015669138 	0.00343188235 	1.498408565e-06 	0.02021906836 	-1.956502989e-06 	3.85431639e-05
0.4495688352 	0.01012571429 	0.003630862445 	7.926661922e-07 	0.02013047319 	-8.982749803e-07 	3.837427687e-05
0.4609124074 	0.01013006812 	0.003783245519 	2.530993651e-07 	0.02013235471 	-2.91166575e-06 	3.837786358e-05
0.4625033521 	0.01013069275 	0.003804554341 	1.062334504e-07 	0.02013207402 	-1.246006561e-07 	3.83773285e-05
0.4764361663 	0.01017434422 	0.003986744181 	9.678483134e-07 	0.02020518379 	-1.094186541e-06 	3.851669604e-05
0.4915177733 	0.01025599962 	0.004187479066 	1.791403819e-06 	0.02034473639 	-1.985182384e-06 	3.878272208e-05
0.5078705597 	0.01037399333 	0.004407861916 	2.563486589e-06 	0.02054568733 	-2.803125625e-06 	3.916579043e-05
0.5255559403 	0.01052824106 	0.004649430759 	3.266941209e-06 	0.02080378061 	-3.550194854e-06 	3.965778796e-05
0.5446528007 	0.01071961117 	0.004914770092 	3.876132574e-06 	0.02111409739 	-4.221378889e-06 	4.024933798e-05
0.5653073198 	0.01095111834 	0.005208576411 	4.36012517e-06 	0.02147043787 	-4.808016076e-06 	4.092862199e-05
0.5875706324 	0.01122759119 	0.005536784071 	4.676975179e-06 	0.02186224509 	-5.299649677e-06 	4.167551544e-05
0.6115522574 	0.01155342672 	0.005903297463 	4.790087354e-06 	0.02227464615 	-5.671635005e-06 	4.246166649e-05
0.6373531822 	0.0119324792 	0.006309390557 	4.672297179e-06 	0.02268774645 	-5.895840274e-06 	4.324915047e-05
0.6650736862 	0.01235913938 	0.006745751552 	4.332290745e-06 	0.02306579618 	-5.926663538e-06 	4.396981832e-05
0.6928473989 	0.01280496373 	0.007180404902 	3.828332508e-06 	0.02336550355 	-5.769771962e-06 	4.454114386e-05
0.7188076063 	0.0132365118 	0.007580104688 	3.260840263e-06 	0.02356378875 	-5.485405689e-06 	4.491913057e-05
0.7430616173 	0.01363922439 	0.007933661202 	2.700564627e-06 	0.02365898682 	-5.118825128e-06 	4.510060455e-05
0.7657166274 	0.01400766799 	0.008239804073 	2.173017712e-06 	0.02365619196 	-4.700890346e-06 	4.509527678e-05
0.7868765632 	0.01433445415 	0.008496270277 	1.677593748e-06 	0.02356601103 	-4.228075924e-06 	4.492336686e-05
0.8066407466 	0.01460993354 	0.008700507006 	1.210083386e-06 	0.02340260261 	-3.703836753e-06 	4.4611865e-05
0.825101173 	0.01483175663 	0.008855156087 	8.121635046e-07 	0.02317070381 	-3.231750239e-06 	4.416980142e-05
0.8423446134 	0.01502495961 	0.008943979363 	-7.29732687e-08 	0.02284368417 	-3.193392838e-06 	4.35464111e-05
0.8584514973 	0.01522111428 	0.008919317384 	-8.227767138e-07 	0.02238610932 	-3.225161446e-06 	4.267414626e-05
0.8734970175 	0.01540422928 	0.008819442441 	-9.40143989e-07 	0.02183419959 	-2.98489515e-06 	4.162205293e-05
0.8875511498 	0.01554574571 	0.00869118751 	-9.982202015e-07 	0.02123931996 	-2.729825566e-06 	4.0488047e-05
0.900679109 	0.01564487586 	0.008525123588 	-9.610356287e-07 	0.02061073615 	-2.467791687e-06 	3.928979155e-05
0.9129417823 	0.01570859315 	0.008337546091 	-8.886098212e-07 	0.01995555553 	-2.228248052e-06 	3.80408352e-05
0.9243960038 	0.01574550401 	0.008142590533 	-7.929237853e-07 	0.01927900967 	-1.998355492e-06 	3.675115075e-05
0.9350948531 	0.01576400112 	0.007953478915 	-6.621777281e-07 	0.01858926143 	-1.7548796e-06 	3.543629891e-05
0.9450879208 	0.01577737624 	0.007795678294 	-4.641283737e-07 	0.01789589432 	-1.465017506e-06 	3.411454849e-05
0.954421548 	0.01578772404 	0.007643511918 	-2.095750402e-07 	0.01725887244 	-1.09676851e-06 	3.290020772e-05
0.9605997311 	0.01581223427 	0.007537887815 	8.340400031e-08 	0.01675549086 	-6.859090908e-07 	3.194062253e-05
0.9660692856 	0.01587451266 	0.007515204945 	4.438798971e-07 	0.01636762025 	-1.923801497e-07 	3.120123334e-05
0.9709113578 	0.01598182866 	0.00753384794 	8.703781543e-07 	0.01606213907 	4.38883908e-07 	3.061890131e-05
0.9751978312 	0.01614800569 	0.007601536951 	1.359529733e-06 	0.01585029605 	1.231787841e-06 	3.021506963e-05
0.9789923751 	0.01638281884 	0.007718014224 	1.897398473e-06 	0.01574198084 	2.197911565e-06 	3.000859073e-05
0.9823513805 	0.01668745492 	0.007877858773 	2.458696957e-06 	0.01573917776 	3.319280232e-06 	3.000324729e-05
0.9853247881 	0.01704247528 	0.008064970049 	3.002957999e-06 	0.01582230921 	4.529091254e-06 	3.016171895e-05
0.987956823 	0.01737826809 	0.008243412197 	3.480266826e-06 	0.01593119997 	5.695005659e-06 	3.036929498e-05
0.9902866465 	0.01753262257 	0.008381370667 	3.822781529e-06 	0.0158945247 	6.596383262e-06 	3.029938173e-05
0.9923489342 	0.01693429222 	0.008093162647 	3.826417095e-06 	0.0152577629 	6.853855672e-06 	2.908553676e-05
0.993688642 	0.01525463936 	0.00728184844 	3.454722824e-06 	0.01370607055 	6.329232601e-06 	2.612757987e-05
0.9950284246 	0.0112122174 	0.005247458711 	2.45723438e-06 	0.01009830089 	4.68920739e-06 	1.925016818e-05
0.9963682821 	0.004574069862 	0.001952930488 	9.245999955e-07 	0.004183719942 	2.003819796e-06 	7.975333014e-06
0.9977082144 	0.0004548825016 	0.000113447221 	6.92695341e-08 	0.0004416629098 	2.648432701e-07 	8.4193226e-07
0.9990482216 	4.647082221e-06 	1.523713063e-07 	1.511158864e-10 	4.636129046e-06 	4.108630405e-09 	8.837750507e-09
0.9990482216 	4.647082221e-06 	1.523713063e-07 	1.511158864e-10 	4.636129046e-06 	4.108630405e-09 	8.837750507e-09
