0.470659737 	0.1564865315 	-0.0007231679483 	-4.520320105e-07
0.4716964622 	0.5970435348 	-0.001998252545 	-1.702618789e-06
0.4727331945 	1.120329074 	-0.00302022157 	-3.202689384e-06
0.4737699337 	1.486837271 	-0.004152593011 	-4.319519746e-06
0.4748066793 	1.711175603 	-0.005189051273 	-5.075459188e-06
0.4758434311 	1.87394377 	-0.005708238206 	-5.669182205e-06
0.4774394867 	2.015513182 	-0.006121817523 	-6.272390361e-06
0.4792427742 	2.133937594 	-0.006496552186 	-6.847472974e-06
0.4812801995 	2.232464091 	-0.006809084684 	-7.404494839e-06
0.48358615 	2.317829604 	-0.00710870521 	-7.965937017e-06
0.486192473 	2.393946206 	-0.00738105358 	-8.545709652e-06
0.4891372032 	2.463268077 	-0.007631631176 	-9.153268444e-06
0.4924642826 	2.527461103 	-0.007865304323 	-9.796700386e-06
0.496230251 	2.587650049 	-0.008085501629 	-1.048605224e-05
0.5004856092 	2.644559088 	-0.00828943051 	-1.122147657e-05
0.505296538 	2.703342808 	-0.008491500034 	-1.202120507e-05
0.512575218 	2.765393199 	-0.008696485044 	-1.310677396e-05
0.5203808573 	2.823240889 	-0.008867399875 	-1.418713576e-05
0.5287496252 	2.873618715 	-0.008992698307 	-1.523223637e-05
0.5377230685 	2.917474156 	-0.009080250398 	-1.622588656e-05
0.547345261 	2.955357017 	-0.009129919566 	-1.714996087e-05
0.5576630227 	2.987597594 	-0.009144843855 	-1.798381916e-05
0.5687261579 	3.014435935 	-0.009127795515 	-1.870446777e-05
0.5805877104 	3.036110399 	-0.009081155947 	-1.928729075e-05
0.5933042393 	3.05291214 	-0.009006674175 	-1.970681174e-05
0.6069361121 	3.06519826 	-0.008905105195 	-1.993718915e-05
0.6215479937 	3.073358528 	-0.008775954554 	-1.995253035e-05
0.6372107484 	3.077754202 	-0.008617271282 	-1.972770663e-05
0.6539962598 	3.078659922 	-0.008425645573 	-1.924149623e-05
0.6719847469 	3.076227155 	-0.00819654846 	-1.848250656e-05
0.6912601121 	3.070463316 	-0.007924767845 	-1.74526629e-05
0.7119125193 	3.061204048 	-0.007605167989 	-1.616920921e-05
0.7340386155 	3.04830742 	-0.00723924688 	-1.46866306e-05
0.7561688545 	3.032218884 	-0.006844422446 	-1.314430174e-05
0.7768330656 	3.013789595 	-0.006442899571 	-1.168901695e-05
0.7961274613 	2.993466109 	-0.006045063155 	-1.037239149e-05
0.814142334 	2.971332145 	-0.005652295941 	-9.193825191e-06
0.8309622617 	2.947396276 	-0.005264160347 	-8.136227331e-06
0.8466663774 	2.921611629 	-0.004880544574 	-7.18181158e-06
0.8613285871 	2.893893004 	-0.004502405991 	-6.318093703e-06
0.8750179829 	2.864129466 	-0.004131717441 	-5.538193714e-06
0.8877990797 	2.832186984 	-0.003770573821 	-4.836304822e-06
0.8997321264 	2.797902193 	-0.003420881488 	-4.206741641e-06
0.9108733837 	2.761067346 	-0.003084151023 	-3.643398266e-06
0.9212753826 	2.72140593 	-0.002761448125 	-3.139907123e-06
0.9309871706 	2.678536309 	-0.00245339845 	-2.689919443e-06
0.9400545422 	2.63191695 	-0.002160229256 	-2.287336731e-06
0.9485202539 	2.580760635 	-0.001878879427 	-1.926542788e-06
0.9564242262 	2.52389515 	-0.00161456167 	-1.602832448e-06
0.9638037307 	2.464206107 	-0.001382231671 	-1.32747901e-06
0.9686868836 	2.408336839 	-0.001191737911 	-1.121462306e-06
0.9730089153 	2.354556336 	-0.001034473118 	-9.553301456e-07
0.976834303 	2.297863273 	-0.0008941164942 	-8.098844013e-07
0.9802201149 	2.237463427 	-0.0007657118828 	-6.816828881e-07
0.9832168622 	2.172255019 	-0.0006487320533 	-5.681387358e-07
0.9858692517 	2.100654463 	-0.0005426040232 	-4.672389486e-07
0.9882168534 	2.020283936 	-0.0004462951862 	-3.773312404e-07
0.9902946903 	1.927373766 	-0.0003353216359 	-2.971634499e-07
0.992133761 	1.815546181 	-0.0002355276417 	-2.258529459e-07
0.9937615021 	1.681714153 	-0.0001327477009 	-1.664987562e-07
0.9948188447 	1.527641791 	-0.0001185695976 	-1.211108049e-07
0.9958761879 	1.315680213 	-0.0003736639821 	-8.073590392e-08
0.9969335318 	0.9774884012 	-0.000280778443 	-4.130122435e-08
0.9979908764 	0.5136989785 	0.000176856844 	-1.473195241e-08
0.9990482216 	0.1455081918 	0.0001919370057 	-3.913218074e-09
0.9990482216 	0.1455081918 	0.0001919370057 	-3.913218074e-09
