0.4709558481 	1.493269817e-05 	-5.81088218e-07 	5.448463324e-11 	1.489473479e-05 	-9.983963719e-10 	2.839350429e-08
0.4720092239 	0.001232696784 	-0.0003282405407 	2.744895241e-08 	0.001190545517 	-7.819135074e-08 	2.269510651e-06
0.4730625996 	0.01027957558 	-0.004386149642 	2.48001972e-07 	0.009379431502 	-4.810744463e-07 	1.787980332e-05
0.4741159754 	0.02354666926 	-0.01089776 	4.59253718e-07 	0.02117147567 	-8.516083822e-07 	4.035871693e-05
0.4751693511 	0.03127805979 	-0.01463670572 	4.673210293e-07 	0.02803186229 	-8.821526551e-07 	5.343652059e-05
0.4762227269 	0.03520025434 	-0.0164372643 	4.484423329e-07 	0.03152211956 	-8.380629852e-07 	6.008992099e-05
0.4778443634 	0.03738035086 	-0.01743175363 	4.122455154e-07 	0.03347216179 	-7.464340519e-07 	6.380724349e-05
0.4796765386 	0.03806647036 	-0.0176300205 	3.51438571e-07 	0.03412703408 	-6.042188933e-07 	6.505561208e-05
0.4817465869 	0.03801332192 	-0.01760215926 	2.75195302e-07 	0.03405936119 	-4.208328156e-07 	6.492660874e-05
0.4840853915 	0.03745205718 	-0.01736541369 	1.790256429e-07 	0.03352218617 	-1.938747953e-07 	6.390260385e-05
0.4867278453 	0.03649813448 	-0.01696400484 	5.975426247e-08 	0.03261643211 	8.042639439e-08 	6.217598487e-05
0.4897133715 	0.03519868561 	-0.01641335226 	-8.592534674e-08 	0.03139262371 	4.044119842e-07 	5.984306592e-05
0.4930865115 	0.0335744194 	-0.0157156764 	-2.607494191e-07 	0.029873687 	7.76231712e-07 	5.694755039e-05
0.4968975894 	0.03163835367 	-0.01486764049 	-4.65673912e-07 	0.02807607436 	1.185547153e-06 	5.352080107e-05
0.5012034633 	0.02940808428 	-0.01385715382 	-6.985987984e-07 	0.02602690785 	1.607433723e-06 	4.961452017e-05
0.506068373 	0.02671411741 	-0.01261965945 	-9.701552482e-07 	0.02356922796 	2.027622233e-06 	4.492949923e-05
0.5134203412 	0.02349419044 	-0.01101899995 	-1.273122602e-06 	0.02070169902 	2.334572444e-06 	3.946319208e-05
0.5212948542 	0.02028344261 	-0.009199362262 	-1.559098299e-06 	0.01795780676 	2.341874413e-06 	3.42325708e-05
0.529729052 	0.01759238947 	-0.007423847129 	-1.73744686e-06 	0.01577336194 	2.018022656e-06 	3.006841184e-05
0.5387627144 	0.01555682899 	-0.005745583071 	-1.802114065e-06 	0.01424242969 	1.474467882e-06 	2.715002946e-05
0.5484384488 	0.01418800813 	-0.004175991583 	-1.816511418e-06 	0.01332728939 	8.685822072e-07 	2.540551771e-05
0.5588018907 	0.01340384878 	-0.002717904102 	-1.788395094e-06 	0.01290212866 	3.33298022e-07 	2.459504318e-05
0.5699019192 	0.01307993566 	-0.001372861544 	-1.730019909e-06 	0.01282088395 	-7.976324236e-08 	2.444016818e-05
0.5817908876 	0.01309257215 	-0.0001341017496 	-1.658590818e-06 	0.01296581825 	-3.784000686e-07 	2.471645325e-05
0.5945248701 	0.01333924622 	0.001007258929 	-1.58306152e-06 	0.01325547081 	-5.881751929e-07 	2.526861154e-05
0.6081639266 	0.01374142219 	0.002058222565 	-1.50668531e-06 	0.0136359353 	-7.328431243e-07 	2.599388259e-05
0.6227723857 	0.01424008758 	0.003022497789 	-1.428677666e-06 	0.01407047659 	-8.293303946e-07 	2.682223906e-05
0.638419148 	0.01478996448 	0.003900429252 	-1.346196628e-06 	0.01453198368 	-8.885361392e-07 	2.770199984e-05
0.6551780116 	0.01535492281 	0.004689772636 	-1.255688121e-06 	0.01499830605 	-9.171565767e-07 	2.859093989e-05
0.6731280194 	0.01590513874 	0.005386872732 	-1.15357723e-06 	0.01544968361 	-9.19242101e-07 	2.945139098e-05
0.6923538328 	0.01641580259 	0.005988063639 	-1.036518984e-06 	0.01586763631 	-8.972026987e-07 	3.024812499e-05
0.7129461301 	0.01686712713 	0.006491335402 	-9.013540491e-07 	0.01623490425 	-8.521666132e-07 	3.094823976e-05
0.7350020349 	0.01723995193 	0.006892560541 	-7.477710738e-07 	0.01653204829 	-7.848553387e-07 	3.151467888e-05
0.7570579485 	0.01752062757 	0.007189383141 	-5.825771365e-07 	0.01674358285 	-6.978843879e-07 	3.191792255e-05
0.7776502527 	0.01772062965 	0.007400505837 	-4.141846093e-07 	0.01687621779 	-5.94248145e-07 	3.217076161e-05
0.7968760713 	0.01787148038 	0.007560110421 	-2.453798579e-07 	0.01695456636 	-4.731985081e-07 	3.232011575e-05
0.814826083 	0.01800606067 	0.007699047116 	-7.610058253e-08 	0.01700550482 	-3.313208141e-07 	3.241721862e-05
0.831584949 	0.01815407068 	0.007841738608 	9.35091224e-08 	0.01705441629 	-1.649553457e-07 	3.251045747e-05
0.8472317127 	0.01834296022 	0.008007863167 	2.626076388e-07 	0.01712595072 	2.897586598e-08 	3.264682199e-05
0.8618401721 	0.01859872172 	0.008213416245 	4.292029775e-07 	0.01724472206 	2.522003432e-07 	3.287323318e-05
0.8754792281 	0.01894637566 	0.008471258018 	5.89766872e-07 	0.01743584024 	5.041670699e-07 	3.323755754e-05
0.8882132094 	0.01940999799 	0.008791216292 	7.389677888e-07 	0.01772504688 	7.807616608e-07 	3.378886577e-05
0.9001021759 	0.02001204843 	0.009179799989 	8.696225019e-07 	0.01813813472 	1.072618883e-06 	3.4576326e-05
0.9112022019 	0.0207716892 	0.009639598346 	9.730168478e-07 	0.01869925019 	1.363343813e-06 	3.564596805e-05
0.9215656407 	0.02170185105 	0.01016849928 	1.03976522e-06 	0.01942771422 	1.628522258e-06 	3.703462296e-05
0.9312413717 	0.02280511598 	0.01075898873 	1.061311376e-06 	0.02033332943 	1.83693459e-06 	3.876097725e-05
0.9402750304 	0.02406933117 	0.01139771113 	1.031984495e-06 	0.02141019241 	1.955329122e-06 	4.081377739e-05
0.9487092242 	0.0254623411 	0.01206552785 	9.511805663e-07 	0.02263367725 	1.95657222e-06 	4.314607954e-05
0.9565837329 	0.02693587947 	0.01275546459 	8.242180475e-07 	0.02395263298 	1.82909247e-06 	4.566037575e-05
0.9639356968 	0.02828534931 	0.0133222693 	6.756402349e-07 	0.02520056477 	1.603602377e-06 	4.803928059e-05
0.9688006083 	0.02934482128 	0.01373252756 	5.39776556e-07 	0.02620301902 	1.354561502e-06 	4.9950237e-05
0.9731064834 	0.03019142227 	0.01408049738 	4.23108786e-07 	0.02699915694 	1.115570829e-06 	5.146789715e-05
0.976917562 	0.03088308691 	0.0143510606 	3.197827179e-07 	0.02765809793 	8.84977539e-07 	5.272402183e-05
0.9802907021 	0.03140843626 	0.01455037454 	2.314160647e-07 	0.0281633816 	6.740439083e-07 	5.368723293e-05
0.9832762282 	0.03174970155 	0.01467430541 	1.580962189e-07 	0.02849747093 	4.887486744e-07 	5.432410005e-05
0.9859186816 	0.03187710042 	0.01471316766 	9.870984376e-08 	0.02863120653 	3.312538612e-07 	5.457903728e-05
0.9882574856 	0.03173421582 	0.01464473791 	5.159481511e-08 	0.02850774908 	2.012228536e-07 	5.434369306e-05
0.990327533 	0.03120104692 	0.01442003148 	1.469615528e-08 	0.02802217877 	9.703298525e-08 	5.34180611e-05
0.9921597073 	0.03004412198 	0.01400182712 	-1.310255342e-08 	0.02693225899 	1.681238322e-08 	5.134037106e-05
0.9937813429 	0.02760342962 	0.01290187568 	-3.186417603e-08 	0.02473586359 	-3.731481438e-08 	4.715343098e-05
0.9948347186 	0.02364975347 	0.01106455 	-4.365279475e-08 	0.02120910272 	-6.857976302e-08 	4.043044456e-05
0.9958880943 	0.01651012972 	0.007543953537 	-4.601554085e-08 	0.01488741255 	-7.819537096e-08 	2.837954606e-05
0.9969414701 	0.006518164763 	0.002670080185 	-2.394165245e-08 	0.005990348554 	-4.43200867e-08 	1.141926927e-05
0.9979948458 	0.0006984480762 	0.0001607374916 	-2.076618891e-09 	0.0006803721135 	-6.229209313e-09 	1.296978348e-06
0.9990482216 	9.260895117e-06 	2.885068139e-07 	-4.123142972e-12 	9.239588217e-06 	-8.581852773e-11 	1.761322315e-08
0.9990482216 	9.260895117e-06 	2.885068139e-07 	-4.123142972e-12 	9.239588217e-06 	-8.581852773e-11 	1.761322315e-08
