3.197437928e-34 	1.58988015 	-1.079765648e-13 	-3.924662339e-20
0.001920179623 	1.589915776 	-0.0001848403069 	8.642807031e-08
0.003840345101 	1.590035544 	-0.0003494749483 	1.612036009e-07
0.005760496377 	1.590248687 	-0.0005121290882 	2.328549035e-07
0.007680633441 	1.59055006 	-0.0006795528188 	3.045031623e-07
0.009600756325 	1.591002009 	-0.0008719680378 	3.849709433e-07
0.01255669343 	1.591745789 	-0.001118369127 	4.824375391e-07
0.01589636313 	1.592873037 	-0.001411700858 	5.929158412e-07
0.01966957619 	1.594462543 	-0.001742244647 	7.097268603e-07
0.02394927615 	1.59666171 	-0.002114596795 	8.312619902e-07
0.02878858959 	1.599654707 	-0.002532700781 	9.553464583e-07
0.03425611113 	1.603672352 	-0.003000389329 	1.07863587e-06
0.04043338076 	1.609013113 	-0.003522232624 	1.197046664e-06
0.04744143031 	1.616052458 	-0.004102341462 	1.303956764e-06
0.05536094352 	1.625243338 	-0.00474277873 	1.392557905e-06
0.06432130776 	1.638399096 	-0.005512615556 	1.470798101e-06
0.0778967341 	1.657960255 	-0.006452775909 	1.471014872e-06
0.0924770317 	1.683743871 	-0.007452841049 	1.402789e-06
0.1081284109 	1.715042531 	-0.008423203668 	1.247101594e-06
0.12493365 	1.752335385 	-0.009334191707 	1.007107762e-06
0.1429796724 	1.796090148 	-0.01014916634 	6.935203045e-07
0.1623579926 	1.846742477 	-0.0108234427 	3.268474235e-07
0.179915767 	1.895603954 	-0.01122823256 	5.543544228e-06
0.1831652053 	1.904654124 	-0.01130319807 	6.264759262e-08
0.2055035143 	1.970019891 	-0.01152627072 	4.379664587e-07
0.2294813006 	2.042676631 	-0.01143364319 	7.244003351e-07
0.2552137277 	2.121712599 	-0.01095727644 	8.470425635e-07
0.2828241328 	2.204644069 	-0.0100698931 	8.003477683e-07
0.3124514441 	2.286427151 	-0.008865017406 	6.821203721e-07
0.3442271852 	2.359841721 	-0.007538071634 	6.36179898e-07
0.3783059509 	2.418458273 	-0.006319949395 	7.300455082e-07
0.4148445556 	2.459760414 	-0.00530513033 	8.532047804e-07
0.454012114 	2.484700472 	-0.004424209639 	8.946356574e-07
0.4959899515 	2.495110079 	-0.003601795638 	8.533117617e-07
0.5379865561 	2.493265999 	-0.002824442661 	7.680999487e-07
0.577207568 	2.482438431 	-0.002103147645 	6.75998045e-07
0.6138321997 	2.465203859 	-0.001429544616 	5.921438833e-07
0.6480299089 	2.442890158 	-0.0007922127695 	5.143102619e-07
0.6799601987 	2.416197098 	-0.000186744278 	4.325318293e-07
0.7097727691 	2.385563867 	0.0003853185072 	3.349181638e-07
0.7376075325 	2.351336171 	0.0009177584197 	2.121164516e-07
0.7635955286 	2.313840634 	0.001400770682 	5.982399982e-08
0.787859151 	2.27342166 	0.001822242963 	-1.204968094e-07
0.8105127434 	2.230458895 	0.002169183493 	-3.218832564e-07
0.831663108 	2.185368172 	0.002429267687 	-5.3254639e-07
0.8514099765 	2.138583141 	0.00259246616 	-7.369229115e-07
0.8698464725 	2.090514355 	0.00265261508 	-9.173278744e-07
0.8870595453 	2.041484429 	0.002608578375 	-1.056242513e-06
0.9031303776 	1.99163868 	0.002466548507 	-1.138713471e-06
0.9181347659 	1.940826783 	0.002235054226 	-1.155663548e-06
0.9321434779 	1.892091624 	0.00195348156 	-1.109529496e-06
0.9414132658 	1.850111783 	0.001686454906 	-1.026820591e-06
0.9496178443 	1.812253695 	0.001441717137 	-9.280737841e-07
0.9568796188 	1.774449528 	0.001206562939 	-8.166290221e-07
0.9633069287 	1.735893878 	0.0009886299604 	-6.994614449e-07
0.9689956638 	1.695581861 	0.0007915752607 	-5.824349371e-07
0.9740306954 	1.652193441 	0.0006174146422 	-4.701038615e-07
0.9784871417 	1.603878736 	0.0004661444926 	-3.660915904e-07
0.982431489 	1.54784183 	0.0003509127824 	-2.726979278e-07
0.9859225838 	1.479491749 	0.0002493325292 	-1.928359082e-07
0.98901251 	1.395808907 	0.0002000242045 	-1.298237371e-07
0.9910196523 	1.296706735 	0.0001989873156 	-8.272808716e-08
0.9930267946 	1.153654533 	-8.500608753e-05 	-5.317062167e-08
0.9950339369 	0.8957998952 	-0.0002855245158 	-3.409833385e-08
0.9970410793 	0.4863637505 	0.0001009132041 	-8.505608467e-09
0.9990482216 	0.1399817822 	0.0002352691953 	4.280105244e-09
0.9990482216 	0.1399817822 	0.0002352691953 	4.280105244e-09
