1.218267812e-35 	0.02551642368 	-1.787116658e-15 	2.364530565e-18 	5.325107888e-15 	-2.324992315e-16 	1.015113567e-17
0.00190503019 	0.02549649041 	-0.0002969128073 	8.011386475e-08 	0.02907594041 	-4.690263296e-06 	5.542682365e-05
0.003810043283 	0.02550253043 	-0.000656414545 	2.363976448e-07 	0.02921230931 	-4.695388927e-06 	5.568678068e-05
0.005715039211 	0.02554111708 	-0.0009787645815 	3.503554223e-07 	0.0292444719 	-4.64625188e-06 	5.574809152e-05
0.007620017961 	0.02557500902 	-0.001301710289 	4.601867724e-07 	0.02928424919 	-4.601788201e-06 	5.582391809e-05
0.009524979574 	0.02563126689 	-0.001670195877 	5.816875948e-07 	0.02932255958 	-4.558349731e-06 	5.589694835e-05
0.01245757067 	0.02572414086 	-0.00214170122 	7.283652176e-07 	0.02938303403 	-4.491684919e-06 	5.601222946e-05
0.01577085506 	0.02586414618 	-0.002703808243 	8.949045656e-07 	0.02947641404 	-4.431512795e-06 	5.61902377e-05
0.01951424692 	0.02605989724 	-0.003337240821 	1.070825147e-06 	0.02960643202 	-4.377439636e-06 	5.643808812e-05
0.02376371923 	0.02632765182 	-0.004050084795 	1.252844455e-06 	0.02978417301 	-4.324361663e-06 	5.677691184e-05
0.02856971015 	0.02668651985 	-0.004849474728 	1.437437581e-06 	0.03002240386 	-4.280282041e-06 	5.723104604e-05
0.03399956521 	0.02715829051 	-0.005742369886 	1.619438434e-06 	0.0303358916 	-4.245522634e-06 	5.782864081e-05
0.04013425608 	0.02776835194 	-0.006736583571 	1.792215768e-06 	0.03074181343 	-4.216269421e-06 	5.860244065e-05
0.04710020392 	0.02854391888 	-0.007839343577 	1.944830821e-06 	0.03125822532 	-4.17775007e-06 	5.958686523e-05
0.05497248355 	0.02950948586 	-0.009052762083 	2.066100264e-06 	0.03190087663 	-4.122712559e-06 	6.081193724e-05
0.06388212204 	0.03080387449 	-0.01049484643 	2.163223375e-06 	0.0327587838 	-4.054513242e-06 	6.244734675e-05
0.07738804933 	0.03254636252 	-0.01224482506 	2.128692025e-06 	0.0339009393 	-3.777355941e-06 	6.462461259e-05
0.09190225286 	0.03454435776 	-0.01409059719 	1.978798683e-06 	0.03517727476 	-3.359992433e-06 	6.705766271e-05
0.1074900975 	0.03654456866 	-0.01583575701 	1.683184938e-06 	0.03638554358 	-2.752286804e-06 	6.93609589e-05
0.1242359314 	0.0383634241 	-0.01739790321 	1.254473297e-06 	0.03736049948 	-1.97309145e-06 	7.121949583e-05
0.1422279963 	0.03976715198 	-0.01866714954 	7.320315383e-07 	0.03789627184 	-1.099338219e-06 	7.224082684e-05
0.1615588878 	0.0404686496 	-0.01950173303 	1.960166951e-07 	0.03775452856 	-2.771504559e-07 	7.197062476e-05
0.1701363888 	0.04033383333 	-0.01959727286 	4.12410815e-05 	0.03731264898 	-0.0001071016771 	7.112827947e-05
0.1823260612 	0.0401395745 	-0.01973149756 	2.103583784e-07 	0.03668205387 	-2.775271814e-07 	6.992618993e-05
0.2046323802 	0.03842075069 	-0.01915660919 	2.838459049e-07 	0.03447071691 	-3.17852755e-07 	6.571076708e-05
0.2285867053 	0.03510981894 	-0.01761803181 	-1.120526828e-07 	0.03104367744 	2.362782001e-07 	5.917787735e-05
0.254304522 	0.03044305018 	-0.01516266484 	-8.263662084e-07 	0.02661810947 	1.07780721e-06 	5.074151477e-05
0.2819095097 	0.02514449026 	-0.01216430297 	-1.395664625e-06 	0.02190779048 	1.422326775e-06 	4.176233762e-05
0.3115423872 	0.02027275738 	-0.009237720201 	-1.38556748e-06 	0.01784672456 	8.39123984e-07 	3.402081724e-05
0.3433329903 	0.01660565868 	-0.006837049588 	-8.687823592e-07 	0.01493344774 	-1.974874839e-07 	2.846730193e-05
0.37743697 	0.01417037694 	-0.004994949625 	-2.602889247e-07 	0.01305310998 	-1.037874813e-06 	2.488285554e-05
0.414010442 	0.01261911479 	-0.003497537409 	1.97984774e-07 	0.01187021889 	-1.426784776e-06 	2.262793636e-05
0.4532220137 	0.01169630281 	-0.0021120126 	4.448974855e-07 	0.01117107918 	-1.460992881e-06 	2.129518175e-05
0.4952525067 	0.01133718993 	-0.0007017727738 	5.213616262e-07 	0.01089663633 	-1.307202627e-06 	2.07720174e-05
0.5373056793 	0.0115283967 	0.0007228962544 	5.070019783e-07 	0.01102229266 	-1.086213018e-06 	2.101155329e-05
0.5765818555 	0.01217044801 	0.002092563147 	4.867225861e-07 	0.01147142687 	-8.553123054e-07 	2.186772792e-05
0.6132593029 	0.01313255529 	0.003384936764 	5.146310949e-07 	0.01216048782 	-6.190661117e-07 	2.318126963e-05
0.6475070436 	0.01432176006 	0.004611445718 	6.054366952e-07 	0.01303547599 	-3.577908551e-07 	2.484924027e-05
0.679484443 	0.01568646179 	0.005792386418 	7.43954156e-07 	0.01406785232 	-5.085060404e-08 	2.681723648e-05
0.7093412355 	0.01719981236 	0.006945002878 	8.937841323e-07 	0.01524513129 	3.059752787e-07 	2.90614574e-05
0.7372173963 	0.01884159907 	0.008076832953 	1.005503362e-06 	0.01655984527 	6.878627378e-07 	3.156766765e-05
0.7632441099 	0.02058465997 	0.009182722645 	1.026030278e-06 	0.01799925178 	1.035541722e-06 	3.431157652e-05
0.7875439148 	0.02238503076 	0.01024381361 	9.096131254e-07 	0.01953573333 	1.260956426e-06 	3.724053741e-05
0.8102313055 	0.02417649607 	0.01122890715 	6.282545881e-07 	0.0211196582 	1.265917933e-06 	4.025993844e-05
0.8314132346 	0.02587063011 	0.01209785147 	1.788969188e-07 	0.02267703128 	9.700032332e-07 	4.322872437e-05
0.8511895776 	0.02736277645 	0.01280627226 	-4.136047785e-07 	0.02411331601 	3.391202762e-07 	4.596668227e-05
0.8696535944 	0.02854332317 	0.0133111076 	-1.097390988e-06 	0.02532312882 	-5.952052329e-07 	4.827292173e-05
0.8868923629 	0.02931238516 	0.013576471 	-1.798129441e-06 	0.02620340631 	-1.733250236e-06 	4.99509753e-05
0.9029871861 	0.02959380849 	0.01357920587 	-2.427486477e-06 	0.02666772476 	-2.922987142e-06 	5.08360953e-05
0.9180139737 	0.02934737576 	0.01332058435 	-2.895178416e-06 	0.02665468244 	-3.991775844e-06 	5.081123302e-05
0.9320435986 	0.0286271106 	0.01282826099 	-3.13285597e-06 	0.02618597155 	-4.735094397e-06 	4.991773978e-05
0.941327225 	0.02768955163 	0.01225739987 	-3.145554576e-06 	0.02546374918 	-5.095667808e-06 	4.854098321e-05
0.9495440518 	0.02667491659 	0.01169366579 	-2.999205158e-06 	0.02461650719 	-5.189188886e-06 	4.692590451e-05
0.9568166671 	0.02556301736 	0.01110897171 	-2.745611221e-06 	0.02364362774 	-5.084522951e-06 	4.507132588e-05
0.963253572 	0.02439425617 	0.01053097875 	-2.416612884e-06 	0.02258296814 	-4.815585584e-06 	4.304941388e-05
0.9689507996 	0.02319449191 	0.009976452505 	-2.04233104e-06 	0.02146239833 	-4.411950988e-06 	4.091329639e-05
0.9739933478 	0.02197681818 	0.009454417161 	-1.649550152e-06 	0.02029906974 	-3.897086565e-06 	3.869566877e-05
0.9784564469 	0.02074115775 	0.00896496742 	-1.261407022e-06 	0.01909648832 	-3.288904242e-06 	3.640321433e-05
0.9824066826 	0.01946391475 	0.008494201758 	-8.971758913e-07 	0.01784374464 	-2.603982054e-06 	3.40151367e-05
0.985902989 	0.01809392897 	0.008054877606 	-5.770363253e-07 	0.01647951953 	-1.865215727e-06 	3.141454446e-05
0.9889975281 	0.0164214702 	0.007407480189 	-3.129948342e-07 	0.01488165425 	-1.16637964e-06 	2.836856915e-05
0.9910076668 	0.01437546876 	0.006567725478 	-1.196134922e-07 	0.01298635617 	-5.946122638e-07 	2.475560423e-05
0.9930178055 	0.01092983204 	0.005007599516 	2.555978126e-08 	0.00986691605 	-1.498329799e-07 	1.880908436e-05
0.9950279442 	0.004742131496 	0.002041314879 	5.419958111e-08 	0.004324636254 	2.860633798e-08 	8.243958672e-06
0.9970380829 	0.0004580158463 	0.0001185459655 	6.60112068e-09 	0.0004433084011 	7.347328056e-09 	8.450690237e-07
0.9990482216 	3.232923327e-06 	9.174123137e-08 	6.797389376e-12 	3.225693654e-06 	6.186006905e-11 	6.14906864e-09
0.9990482216 	3.232923327e-06 	9.174123137e-08 	6.797389376e-12 	3.225693654e-06 	6.186006905e-11 	6.14906864e-09
