3.197437928e-34 	0.02422837049 	-1.645467563e-15 	-5.980839072e-22 	1.117517788e-28 	4.061881378e-35 	1.476386372e-41
0.001920179623 	0.02421173347 	-0.000251212951 	6.968651152e-08 	0.02707353068 	-3.074943695e-06 	5.160967417e-05
0.003840345101 	0.02421450347 	-0.000534507894 	1.707491839e-07 	0.02718099743 	-3.066801542e-06 	5.181453568e-05
0.005760496377 	0.02424194838 	-0.0007959600315 	2.519397174e-07 	0.02720397715 	-3.034761537e-06 	5.185834141e-05
0.007680633441 	0.02426427158 	-0.00105820794 	3.306111786e-07 	0.02723194902 	-3.005449879e-06 	5.191166356e-05
0.009600756325 	0.02430213853 	-0.001357761605 	4.180405201e-07 	0.02725694843 	-2.977550983e-06 	5.195931938e-05
0.01255669343 	0.02436478002 	-0.001741158862 	5.238643015e-07 	0.0272961031 	-2.934911907e-06 	5.203395906e-05
0.01589636313 	0.02445931968 	-0.002198224837 	6.441444889e-07 	0.02735691709 	-2.895246262e-06 	5.214988743e-05
0.01966957619 	0.02459168204 	-0.002713277678 	7.714341941e-07 	0.02744157461 	-2.858475829e-06 	5.23112682e-05
0.02394927615 	0.02477306671 	-0.003292965926 	9.035701412e-07 	0.0275574046 	-2.820289043e-06 	5.253207235e-05
0.02878858959 	0.02501689505 	-0.003943405 	1.038230068e-06 	0.02771297714 	-2.787101573e-06 	5.282863685e-05
0.03425611113 	0.02533879358 	-0.00467057137 	1.171855423e-06 	0.02791844372 	-2.759817473e-06 	5.322031325e-05
0.04043338076 	0.02575727572 	-0.00548106217 	1.299916821e-06 	0.0281858282 	-2.736901263e-06 	5.37300224e-05
0.04744143031 	0.02629291806 	-0.006381205776 	1.414991563e-06 	0.02852829551 	-2.709839176e-06 	5.438286027e-05
0.05536094352 	0.02696583202 	-0.007373886211 	1.509766936e-06 	0.02895852765 	-2.677312458e-06 	5.52030023e-05
0.06432130776 	0.0278789706 	-0.008558089077 	1.590465876e-06 	0.02954055891 	-2.644938258e-06 	5.631251566e-05
0.0778967341 	0.02913060318 	-0.01000353113 	1.586153247e-06 	0.03033328955 	-2.501221201e-06 	5.782368059e-05
0.0924770317 	0.03060297871 	-0.01154407888 	1.508241604e-06 	0.03125081552 	-2.289016386e-06 	5.957274009e-05
0.1081284109 	0.03213382926 	-0.0130302729 	1.334076179e-06 	0.03216988325 	-1.969666795e-06 	6.132473864e-05
0.12493365 	0.03361251793 	-0.01441085965 	1.067866155e-06 	0.03299325926 	-1.53817574e-06 	6.289432216e-05
0.1429796724 	0.03489567375 	-0.01561944484 	7.2402351e-07 	0.03359502802 	-1.014054646e-06 	6.404146066e-05
0.1623579926 	0.03580433362 	-0.01657143971 	3.319741862e-07 	0.03382069859 	-4.478772531e-07 	6.447165149e-05
0.179915767 	0.03607372528 	-0.01706895228 	9.332522123e-06 	0.03354283251 	-2.826773675e-05 	6.39419615e-05
0.1831652053 	0.03612343914 	-0.01716095114 	5.80187331e-08 	0.03349120406 	-7.375067807e-08 	6.384354335e-05
0.2055035143 	0.0356077989 	-0.01726076318 	3.649925786e-07 	0.03241654169 	-4.217850093e-07 	6.179493817e-05
0.2294813006 	0.03400893218 	-0.01673010714 	4.793697351e-07 	0.03042336605 	-4.678697185e-07 	5.799539142e-05
0.2552137277 	0.03112354995 	-0.01542711971 	3.007132941e-07 	0.02743622646 	-1.408186791e-07 	5.230107313e-05
0.2828241328 	0.02704142505 	-0.01332937973 	-1.453886374e-07 	0.0235741093 	4.559215456e-07 	4.493880441e-05
0.3124514441 	0.02225987018 	-0.01065900819 	-6.089536663e-07 	0.01933900151 	8.934091977e-07 	3.686551187e-05
0.3442271852 	0.01767649395 	-0.00790050306 	-7.544755503e-07 	0.01553572938 	7.466315422e-07 	2.961541814e-05
0.3783059509 	0.01415631754 	-0.005508281032 	-5.453957506e-07 	0.01276274755 	1.459611636e-07 	2.432934406e-05
0.4148445556 	0.01192803783 	-0.003582634254 	-2.25736217e-07 	0.01109481713 	-4.307206972e-07 	2.114980509e-05
0.454012114 	0.01077480905 	-0.001964802873 	2.598745736e-08 	0.01027815782 	-7.282965636e-07 	1.959302546e-05
0.4959899515 	0.01045405025 	-0.0004665077028 	1.727486473e-07 	0.0100805686 	-7.796413146e-07 	1.92163655e-05
0.5379865561 	0.01079854118 	0.000978401755 	2.500873731e-07 	0.01035347537 	-6.858504275e-07 	1.973660165e-05
0.577207568 	0.0116315361 	0.002361129443 	3.070029629e-07 	0.01096720942 	-5.182064482e-07 	2.090654934e-05
0.6138321997 	0.01280333039 	0.003687846281 	3.683970583e-07 	0.01183075089 	-3.070592148e-07 	2.255269939e-05
0.6480299089 	0.01421803917 	0.004970299735 	4.284542029e-07 	0.01289557053 	-6.810491704e-08 	2.458254157e-05
0.6799601987 	0.015812364 	0.006211761469 	4.632400895e-07 	0.01413294041 	1.745471159e-07 	2.694131246e-05
0.7097727691 	0.0175322201 	0.007404043352 	4.44728948e-07 	0.01551552529 	3.808826068e-07 	2.957690353e-05
0.7376075325 	0.01931743821 	0.00852848806 	3.515961312e-07 	0.01700452673 	5.00073972e-07 	3.241535411e-05
0.7635955286 	0.02109643085 	0.009559318433 	1.751358728e-07 	0.01854444935 	4.835686648e-07 	3.535087462e-05
0.787859151 	0.02278734789 	0.01046718254 	-7.926014841e-08 	0.02006397735 	2.998129283e-07 	3.824751732e-05
0.8105127434 	0.0243037068 	0.01122272881 	-3.935428362e-07 	0.02148165542 	-5.4918723e-08 	4.095000575e-05
0.831663108 	0.02556289495 	0.01180008668 	-7.39782262e-07 	0.02271472047 	-5.528981357e-07 	4.330057045e-05
0.8514099765 	0.02649563902 	0.01218014403 	-1.083573005e-06 	0.02368894627 	-1.13915164e-06 	4.51577156e-05
0.8698464725 	0.02705421231 	0.0123533943 	-1.388138161e-06 	0.02434721356 	-1.742033429e-06 	4.641255601e-05
0.8870595453 	0.02721739547 	0.01232186639 	-1.61909128e-06 	0.02465448409 	-2.287066544e-06 	4.699829904e-05
0.9031303776 	0.02698998806 	0.01209964412 	-1.749213507e-06 	0.02459942681 	-2.709713859e-06 	4.689334456e-05
0.9181347659 	0.02640033495 	0.01171975592 	-1.761132615e-06 	0.02418869286 	-2.964294911e-06 	4.611037149e-05
0.9321434779 	0.02554721398 	0.01121737439 	-1.670891884e-06 	0.02350507231 	-3.027806688e-06 	4.480720072e-05
0.9414132658 	0.02464895629 	0.01072228865 	-1.522462391e-06 	0.0227369239 	-2.948772224e-06 	4.334289635e-05
0.9496178443 	0.02377601928 	0.01028930425 	-1.342673522e-06 	0.02195090266 	-2.787945927e-06 	4.184452141e-05
0.9568796188 	0.02288043948 	0.009870311238 	-1.144776698e-06 	0.02112065063 	-2.561515289e-06 	4.026183028e-05
0.9633069287 	0.02198189499 	0.009478233798 	-9.417231241e-07 	0.02026727815 	-2.285504231e-06 	3.863506515e-05
0.9689956638 	0.0210903579 	0.009116873142 	-7.441513265e-07 	0.01940498432 	-1.972687348e-06 	3.699129345e-05
0.9740306954 	0.02020738415 	0.008784549666 	-5.601051715e-07 	0.01853992659 	-1.633913289e-06 	3.534225298e-05
0.9784871417 	0.0193239332 	0.008472815742 	-3.95294358e-07 	0.01766613272 	-1.279733572e-06 	3.367655901e-05
0.982431489 	0.01840752653 	0.008161447928 	-2.531205776e-07 	0.01676214882 	-9.229262996e-07 	3.195331444e-05
0.9859225838 	0.01739390787 	0.007856414993 	-1.376433629e-07 	0.01575192297 	-5.80425773e-07 	3.002754321e-05
0.98901251 	0.01603380889 	0.007316713812 	-4.728427959e-08 	0.01446822222 	-2.941439401e-07 	2.758045278e-05
0.9910196523 	0.01422631419 	0.006554131791 	1.620223992e-08 	0.01281387923 	-8.768805095e-08 	2.442681524e-05
0.9930267946 	0.01095297165 	0.005048441631 	5.819173755e-08 	0.009868469286 	5.115401958e-08 	1.881204526e-05
0.9950339369 	0.004797122832 	0.002078228329 	4.266189196e-08 	0.004368079168 	6.155542598e-08 	8.326772938e-06
0.9970410793 	0.0004659211453 	0.0001224748213 	4.308102517e-09 	0.0004504802999 	9.363970617e-09 	8.587406562e-07
0.9990482216 	3.290943949e-06 	9.558630847e-08 	4.166472232e-12 	3.283521969e-06 	7.547356881e-11 	6.259305481e-09
0.9990482216 	3.290943949e-06 	9.558630847e-08 	4.166472232e-12 	3.283521969e-06 	7.547356881e-11 	6.259305481e-09
