0.4709558481 	1.255566871e-05 	-4.564112697e-07 	3.172293493e-11 	1.252483858e-05 	-6.287797914e-10 	2.387582343e-08
0.4720092239 	0.001037022083 	-0.0002643908511 	1.654123765e-08 	0.001004426168 	-4.95179143e-08 	1.914715443e-06
0.4730625996 	0.008969962347 	-0.003783290182 	1.638850527e-07 	0.008202185774 	-3.225872407e-07 	1.563564576e-05
0.4741159754 	0.02116622442 	-0.009759233085 	3.163112769e-07 	0.01905002453 	-5.927791439e-07 	3.631464143e-05
0.4751693511 	0.02876165737 	-0.01345579984 	3.351809541e-07 	0.02578835761 	-6.413159018e-07 	4.91597771e-05
0.4762227269 	0.03274126685 	-0.01528462558 	3.335167927e-07 	0.02933955523 	-6.399041678e-07 	5.592934678e-05
0.4778443634 	0.03508135819 	-0.01634072843 	3.257091883e-07 	0.03144660034 	-6.184496448e-07 	5.994596038e-05
0.4796765386 	0.03603367645 	-0.01665139245 	3.069732854e-07 	0.03235778869 	-5.767437106e-07 	6.168293863e-05
0.4817465869 	0.03632431692 	-0.01676242541 	2.842869604e-07 	0.03262360208 	-5.1981684e-07 	6.218965283e-05
0.4840853915 	0.03619189665 	-0.01670019328 	2.55341031e-07 	0.03249980301 	-4.472313228e-07 	6.195365738e-05
0.4867278453 	0.03576071443 	-0.01651445048 	2.189707078e-07 	0.03209483408 	-3.570530263e-07 	6.118167405e-05
0.4897133715 	0.0350875004 	-0.01622700031 	1.736849005e-07 	0.03146646031 	-2.47043328e-07 	5.9983819e-05
0.4930865115 	0.03419977818 	-0.01584656174 	1.177693011e-07 	0.0306415026 	-1.149685652e-07 	5.841122032e-05
0.4968975894 	0.03310972895 	-0.01537523562 	4.938062139e-08 	0.02963173063 	4.077516625e-08 	5.64863143e-05
0.5012034633 	0.03181908324 	-0.01480370912 	-3.32348281e-08 	0.02844356521 	2.203156786e-07 	5.422134077e-05
0.506068373 	0.03020662011 	-0.01411699994 	-1.43124031e-07 	0.02694969811 	4.393563789e-07 	5.137361488e-05
0.5134203412 	0.02812212332 	-0.01318231629 	-2.879608417e-07 	0.02504362398 	6.989589133e-07 	4.774010782e-05
0.5212948542 	0.02576279086 	-0.01204262601 	-4.510271842e-07 	0.02292757746 	9.462904451e-07 	4.370633502e-05
0.529729052 	0.02338631113 	-0.01085777408 	-6.155232902e-07 	0.02081978834 	1.125496814e-06 	3.968830313e-05
0.5387627144 	0.02106945394 	-0.009627633622 	-7.713146795e-07 	0.01880580578 	1.20206151e-06 	3.584909262e-05
0.5484384488 	0.01889705054 	-0.008369547913 	-9.094732661e-07 	0.01696840919 	1.153057738e-06 	3.234650404e-05
0.5588018907 	0.01694907345 	-0.007102249607 	-1.021918544e-06 	0.01538159113 	9.784231427e-07 	2.932158778e-05
0.5699019192 	0.0152912763 	-0.005843757792 	-1.105342993e-06 	0.01409594709 	7.044341439e-07 	2.687079291e-05
0.5817908876 	0.01396600105 	-0.004608354456 	-1.162051991e-06 	0.01313079535 	3.760279351e-07 	2.503094544e-05
0.5945248701 	0.01298854135 	-0.003405854275 	-1.194706653e-06 	0.01247421044 	4.173303245e-08 	2.377931212e-05
0.6081639266 	0.01234929533 	-0.002242249979 	-1.20628725e-06 	0.01209173139 	-2.620397865e-07 	2.305020075e-05
0.6227723857 	0.01202017587 	-0.00112049975 	-1.199321523e-06 	0.01193907197 	-5.169072561e-07 	2.275918947e-05
0.638419148 	0.01196267535 	-4.138882527e-05 	-1.17499714e-06 	0.01197280717 	-7.182529141e-07 	2.282349814e-05
0.6551780116 	0.01213538964 	0.0009959481553 	-1.133069002e-06 	0.01215634193 	-8.675101762e-07 	2.317336641e-05
0.6731280194 	0.01249985087 	0.001993879562 	-1.071941085e-06 	0.0124618286 	-9.658271943e-07 	2.37557089e-05
0.6923538328 	0.01302452939 	0.002956523677 	-9.891949855e-07 	0.01287006456 	-1.010864275e-06 	2.453392009e-05
0.7129461301 	0.01368774697 	0.003890599642 	-8.822872267e-07 	0.01337021941 	-9.962859692e-07 	2.548735426e-05
0.7350020349 	0.01446621729 	0.004791299424 	-7.515090461e-07 	0.01395036974 	-9.150585689e-07 	2.659328203e-05
0.7570579485 	0.01531452336 	0.00562984631 	-6.048446755e-07 	0.01458227096 	-7.709957988e-07 	2.779786137e-05
0.7776502527 	0.01618976152 	0.006390127395 	-4.543485469e-07 	0.01523843518 	-5.819197092e-07 	2.904869275e-05
0.7968760713 	0.0170833737 	0.007088126946 	-3.082543481e-07 	0.01591581428 	-3.6636415e-07 	3.03399656e-05
0.814826083 	0.01800351094 	0.007745151369 	-1.716384634e-07 	0.01662378871 	-1.388344679e-07 	3.168956163e-05
0.831584949 	0.01895758724 	0.008375773299 	-4.892744282e-08 	0.01737105796 	8.759898372e-08 	3.31140645e-05
0.8472317127 	0.01995027145 	0.008989171904 	5.610480834e-08 	0.01816397023 	3.007721345e-07 	3.462557567e-05
0.8618401721 	0.0209825006 	0.009590173011 	1.405495549e-07 	0.01900540667 	4.894205646e-07 	3.62295874e-05
0.8754792281 	0.02205109816 	0.01018015038 	2.026842212e-07 	0.01989414518 	6.437233984e-07 	3.792377e-05
0.8882132094 	0.02314886697 	0.01075787371 	2.422544881e-07 	0.02082468192 	7.562291939e-07 	3.969763166e-05
0.9001021759 	0.02426509691 	0.01132033256 	2.605895161e-07 	0.02178752486 	8.228230372e-07 	4.153307791e-05
0.9112022019 	0.02538640621 	0.01186352372 	2.604829557e-07 	0.02276991805 	8.433568449e-07 	4.340579237e-05
0.9215656407 	0.02649777149 	0.01238316135 	2.45846686e-07 	0.02375684375 	8.21678844e-07 	4.528714706e-05
0.9312413717 	0.0275835277 	0.01287529059 	2.21207655e-07 	0.02473204412 	7.650063697e-07 	4.714615e-05
0.9402750304 	0.02862829416 	0.01333662198 	1.911546505e-07 	0.02567813105 	6.828010377e-07 	4.894965465e-05
0.9487092242 	0.02961558303 	0.01376441408 	1.598314404e-07 	0.02657862771 	5.854869384e-07 	5.066625156e-05
0.9565837329 	0.03053226874 	0.01417317137 	1.30807785e-07 	0.02741175257 	4.832260813e-07 	5.225441909e-05
0.9639356968 	0.03127216087 	0.0144578278 	1.064666137e-07 	0.02810372694 	3.915930675e-07 	5.357351458e-05
0.9688006083 	0.03179371936 	0.01463513974 	8.974509772e-08 	0.02860201703 	3.222664849e-07 	5.452339398e-05
0.9731064834 	0.0321844963 	0.01479890396 	7.956126275e-08 	0.02896243026 	2.699431424e-07 	5.521044177e-05
0.976917562 	0.03247001908 	0.0149123691 	7.238159974e-08 	0.02922808497 	2.280561312e-07 	5.571685349e-05
0.9802907021 	0.03264372386 	0.01498072119 	6.756708972e-08 	0.02938946107 	1.95451923e-07 	5.602448119e-05
0.9832762282 	0.03268756362 	0.01499745398 	6.445457903e-08 	0.02943045254 	1.707220703e-07 	5.610262231e-05
0.9859186816 	0.03256838193 	0.01494981818 	6.248370295e-08 	0.02931983577 	1.523989157e-07 	5.589175601e-05
0.9882574856 	0.03222491262 	0.01481246326 	6.120720329e-08 	0.02899676863 	1.390655958e-07 	5.527590024e-05
0.990327533 	0.03153167359 	0.0145331394 	6.023393259e-08 	0.02835171529 	1.294254209e-07 	5.404624929e-05
0.9921597073 	0.03025081509 	0.01407350979 	5.966387778e-08 	0.02713801764 	1.221261978e-07 	5.173260424e-05
0.9937813429 	0.02772306695 	0.01294342113 	5.801202969e-08 	0.02485502224 	1.156762104e-07 	4.738058049e-05
0.9948347186 	0.02371333841 	0.01108544853 	5.581811258e-08 	0.02127306072 	1.087013478e-07 	4.055236627e-05
0.9958880943 	0.01653552862 	0.007550509589 	4.853650396e-08 	0.0149137993 	9.268561014e-08 	2.842984655e-05
0.9969414701 	0.006523409486 	0.002669912827 	2.282560633e-08 	0.005996340803 	4.64502889e-08 	1.143069217e-05
0.9979948458 	0.0006989380149 	0.0001605801155 	1.875160309e-09 	0.0006809134633 	6.303037357e-09 	1.298010311e-06
0.9990482216 	9.268189935e-06 	2.880921092e-07 	3.643111256e-12 	9.246888125e-06 	8.66055041e-11 	1.762713881e-08
0.9990482216 	9.268189935e-06 	2.880921092e-07 	3.643111256e-12 	9.246888125e-06 	8.66055041e-11 	1.762713881e-08
