0.4709558481 	1.112977401e-07 	-6.668971956e-10 	7.871247703e-14 	1.110857832e-07 	-8.618516674e-12 	2.117603774e-10
0.4720092239 	9.143800016e-06 	-4.901608356e-07 	5.755357215e-11 	9.126175594e-06 	-7.079955196e-10 	1.739702717e-08
0.4730625996 	0.0001063984858 	-1.837005599e-05 	2.066161356e-09 	0.0001061972366 	-8.167726074e-09 	2.02441449e-07
0.4741159754 	0.0004888324029 	-0.0001547819015 	1.51619257e-08 	0.0004879214821 	-3.529020698e-08 	9.301139557e-07
0.4751693511 	0.001264715363 	-0.0005415356976 	4.278032944e-08 	0.001261896802 	-7.898191027e-08 	2.40552603e-06
0.4762227269 	0.002357645816 	-0.001094026333 	5.999919483e-08 	0.002351597424 	-1.162032874e-07 	4.482798283e-06
0.4778443634 	0.003575167614 	-0.001662306229 	6.45653061e-08 	0.003565542264 	-1.360555026e-07 	6.796914547e-06
0.4796765386 	0.004625315807 	-0.00215530504 	6.633304467e-08 	0.004611915211 	-1.353324924e-07 	8.791592207e-06
0.4817465869 	0.005354062607 	-0.00249324421 	5.488949604e-08 	0.005336484781 	-1.100448111e-07 	1.017282319e-05
0.4840853915 	0.005792422206 	-0.002691329507 	3.079615607e-08 	0.005770386186 	-6.040650051e-08 	1.099995987e-05
0.4867278453 	0.005984524648 	-0.002778038377 	-5.73767954e-09 	0.005957666527 	1.769821562e-08 	1.135696825e-05
0.4897133715 	0.005961524191 	-0.002765829165 	-5.773620528e-08 	0.005929750121 	1.300829552e-07 	1.130375182e-05
0.4930865115 	0.005746872094 	-0.002665027822 	-1.269771674e-07 	0.005710455817 	2.800202887e-07 	1.088571593e-05
0.4968975894 	0.005352642889 	-0.002481248348 	-2.12949633e-07 	0.005312366669 	4.660826116e-07 	1.012684737e-05
0.5012034633 	0.004784974648 	-0.002217531034 	-3.100928751e-07 	0.004742444132 	6.753352774e-07 	9.040416609e-06
0.506068373 	0.003996247065 	-0.001851821282 	-4.000553214e-07 	0.003954533403 	8.67581425e-07 	7.538439771e-06
0.5134203412 	0.003046666373 	-0.001411688401 	-4.097059299e-07 	0.003009809572 	8.829546213e-07 	5.737533577e-06
0.5212948542 	0.002223502658 	-0.001001517147 	-4.035916661e-07 	0.002194355809 	6.743816924e-07 	4.183052062e-06
0.529729052 	0.001709101443 	-0.0006588972195 	-3.400912577e-07 	0.001689654452 	3.717429604e-07 	3.220951001e-06
0.5387627144 	0.001467874775 	-0.0004001833357 	-2.323136445e-07 	0.001458560409 	1.011574887e-07 	2.780421526e-06
0.5484384488 	0.001398920042 	-0.0002133056261 	-2.001586337e-07 	0.001399307948 	-5.319811141e-08 	2.667469866e-06
0.5588018907 	0.001408616997 	-5.191100087e-05 	-1.751254705e-07 	0.001419103037 	-1.170889425e-07 	2.705204808e-06
0.5699019192 	0.001446380521 	8.710592148e-05 	-1.529121403e-07 	0.001466687118 	-1.399796168e-07 	2.795913292e-06
0.5817908876 	0.001492978428 	0.0002065357116 	-1.376921331e-07 	0.001522402574 	-1.474748149e-07 	2.902122436e-06
0.5945248701 	0.001541111346 	0.0003112636182 	-1.269009371e-07 	0.001578898463 	-1.480971841e-07 	3.009819303e-06
0.6081639266 	0.00158757037 	0.0004041507371 	-1.177957644e-07 	0.00163282556 	-1.449406182e-07 	3.112619338e-06
0.6227723857 	0.00163056062 	0.0004865063017 	-1.086434752e-07 	0.001682332682 	-1.391627699e-07 	3.206993672e-06
0.638419148 	0.001668835054 	0.0005587878169 	-9.847903796e-08 	0.001726125411 	-1.311768248e-07 	3.290474784e-06
0.6551780116 	0.001701430778 	0.0006210929019 	-8.68306797e-08 	0.001763155064 	-1.211615702e-07 	3.361063595e-06
0.6731280194 	0.001727642511 	0.000673503376 	-7.364456474e-08 	0.001792598181 	-1.092766261e-07 	3.417190359e-06
0.6923538328 	0.001747116941 	0.000716343216 	-5.928486932e-08 	0.001813969763 	-9.578086141e-08 	3.457930536e-06
0.7129461301 	0.001760008893 	0.0007503660231 	-4.451687438e-08 	0.001827303171 	-8.108526738e-08 	3.483347717e-06
0.7350020349 	0.001767081467 	0.0007763970589 	-3.06281333e-08 	0.001833313361 	-6.598825974e-08 	3.494804809e-06
0.7570579485 	0.001770061683 	0.0007953428113 	-1.918268237e-08 	0.001833929745 	-5.174681748e-08 	3.495979808e-06
0.7776502527 	0.001771499728 	0.0008090510554 	-1.085528541e-08 	0.001832128471 	-3.917957381e-08 	3.492546079e-06
0.7968760713 	0.00177372575 	0.0008196513114 	-5.007609215e-09 	0.001830598484 	-2.810541062e-08 	3.489629498e-06
0.814826083 	0.001778505826 	0.0008286242737 	-3.712825882e-10 	0.001831278042 	-1.782041475e-08 	3.490924926e-06
0.831584949 	0.001787396852 	0.0008379546893 	5.618255996e-09 	0.001835721223 	-7.250322666e-09 	3.499394862e-06
0.8472317127 	0.001802149069 	0.0008474636322 	8.030985404e-09 	0.001845420778 	4.812704236e-09 	3.517884911e-06
0.8618401721 	0.001824917047 	0.0008575662368 	1.078309222e-08 	0.001862415015 	2.024495052e-08 	3.550280649e-06
0.8754792281 	0.001858652871 	0.0008718538411 	2.078123057e-08 	0.001889836217 	4.155604601e-08 	3.602553082e-06
0.8882132094 	0.001908066401 	0.0008932655736 	3.528909891e-08 	0.001932335786 	7.212444102e-08 	3.683569074e-06
0.9001021759 	0.001980897813 	0.0009253111616 	5.683946365e-08 	0.001997285164 	1.174938929e-07 	3.807380639e-06
0.9112022019 	0.002089497572 	0.0009736801853 	8.897847896e-08 	0.002096820895 	1.857351733e-07 	3.997123408e-06
0.9215656407 	0.002252338674 	0.001047054721 	1.351263046e-07 	0.002249811039 	2.84784733e-07 	4.288765143e-06
0.9312413717 	0.002492486442 	0.001156392702 	1.94705354e-07 	0.002480270346 	4.136165283e-07 	4.728084634e-06
0.9402750304 	0.002831068848 	0.001311805939 	2.596233092e-07 	0.00281041284 	5.546035121e-07 	5.357427987e-06
0.9487092242 	0.003272215793 	0.001515507535 	3.085565122e-07 	0.003245281751 	6.616693417e-07 	6.186408998e-06
0.9565837329 	0.003780087023 	0.001751057827 	3.150924945e-07 	0.003749884395 	6.78160293e-07 	7.148321883e-06
0.9639356968 	0.004243562911 	0.001966724138 	2.773491398e-07 	0.004213426231 	5.993298139e-07 	8.031961457e-06
0.9688006083 	0.0045701624 	0.002119138588 	2.231946465e-07 	0.004542314014 	4.840081014e-07 	8.658912982e-06
0.9731064834 	0.004771994506 	0.002213693678 	1.717969979e-07 	0.004747307826 	3.735762215e-07 	9.049688163e-06
0.976917562 	0.004867895869 	0.002259104219 	1.264546092e-07 	0.004846657283 	2.757108265e-07 	9.23907584e-06
0.9802907021 	0.004847234485 	0.00225041414 	9.049377557e-08 	0.00482937177 	1.979521464e-07 	9.206124848e-06
0.9832762282 	0.004693781085 	0.002180291072 	6.416692138e-08 	0.004679031555 	1.413707433e-07 	8.919534614e-06
0.9859186816 	0.004387243188 	0.002040017766 	4.531042119e-08 	0.004375261874 	1.019702915e-07 	8.340465174e-06
0.9882574856 	0.003905028914 	0.001819314659 	3.193757619e-08 	0.003895497377 	7.405867595e-08 	7.425900698e-06
0.990327533 	0.003220849242 	0.001499854003 	2.372311219e-08 	0.003213404811 	5.383225229e-08 	6.125642689e-06
0.9921597073 	0.002341290156 	0.001087648205 	1.730260947e-08 	0.002335943284 	3.738974583e-08 	4.452957141e-06
0.9937813429 	0.001420598428 	0.0006372628572 	8.46298996e-09 	0.001417586389 	2.188571129e-08 	2.702313655e-06
0.9948347186 	0.0006941969263 	0.0002651010816 	1.944919196e-09 	0.0006929171079 	9.951465461e-09 	1.320892594e-06
0.9958880943 	0.0002509766892 	6.625636462e-05 	3.498566666e-10 	0.0002505282424 	3.445441941e-09 	4.775764608e-07
0.9969414701 	5.298881115e-05 	7.154302918e-06 	2.556305804e-11 	5.28880431e-05 	7.147352255e-10 	1.008193096e-07
0.9979948458 	4.523283295e-06 	1.84786388e-07 	5.240459903e-13 	4.514623172e-06 	6.091226786e-11 	8.60612654e-09
0.9990482216 	6.033202605e-08 	2.743100964e-10 	6.867515842e-16 	6.021720114e-08 	8.126243229e-13 	1.147907219e-10
0.9990482216 	6.033202605e-08 	2.743100964e-10 	6.867515842e-16 	6.021720114e-08 	8.126243229e-13 	1.147907219e-10
