0.4690207273 	8.867180284e-08 	-3.806469526e-10 	7.692440626e-14 	8.852054916e-08 	-9.820987507e-12 	1.687447697e-10
0.4690207273 	8.867180284e-08 	-3.806469526e-10 	7.692440626e-14 	8.852054916e-08 	-9.820987507e-12 	1.687447697e-10
0.4700518427 	7.170023752e-06 	-2.71601723e-07 	5.072619583e-11 	7.167531449e-06 	-7.996955267e-10 	1.366330705e-08
0.4710829708 	8.316892229e-05 	-1.018749019e-05 	1.682798701e-09 	8.330711202e-05 	-8.292386477e-09 	1.588065095e-07
0.4721141081 	0.0003912103539 	-9.032710051e-05 	1.206402128e-08 	0.0003910512336 	-2.900741518e-08 	7.454523383e-07
0.4731452512 	0.001060861621 	-0.0003402878864 	3.307652317e-08 	0.001052405488 	-4.433230127e-08 	2.006177362e-06
0.4741763967 	0.002076949001 	-0.0007440283954 	5.036831492e-08 	0.002050625347 	-2.990029611e-08 	3.909061854e-06
0.475763807 	0.003264455637 	-0.001187880596 	5.172474043e-08 	0.003220113259 	2.151649411e-08 	6.138430857e-06
0.4775572933 	0.004330982962 	-0.001579645521 	3.877135329e-08 	0.004272741062 	9.006035278e-08 	8.14503201e-06
0.4795835831 	0.00511969523 	-0.001866976157 	3.114726158e-08 	0.005051176111 	1.399056025e-07 	9.628945568e-06
0.481879263 	0.005655755989 	-0.002058535553 	3.290954619e-08 	0.005579926568 	1.638540759e-07 	1.06368909e-05
0.4844744806 	0.005990610416 	-0.002179513581 	3.272918618e-08 	0.005909898443 	1.726403882e-07 	1.1265909e-05
0.4874065619 	0.006167407268 	-0.002243526839 	3.042700742e-08 	0.006083413335 	1.760080116e-07 	1.159667661e-05
0.4907192246 	0.006220547384 	-0.002262595225 	2.42868888e-08 	0.006134276524 	1.822618393e-07 	1.169363599e-05
0.4944728854 	0.00617233132 	-0.002244712678 	1.50144698e-08 	0.006084437543 	1.91131992e-07 	1.159862904e-05
0.4987143778 	0.006033629637 	-0.002193755586 	2.608573901e-09 	0.00594442201 	2.035697063e-07 	1.133172052e-05
0.5035112163 	0.005782789853 	-0.002101763816 	-1.638918246e-08 	0.005692491826 	2.28329587e-07 	1.085147157e-05
0.5107730215 	0.00536695722 	-0.001949661923 	-4.706595617e-08 	0.005277033592 	2.784345667e-07 	1.00594927e-05
0.5185656539 	0.004796089715 	-0.001741312259 	-8.889968873e-08 	0.004709063343 	3.582261099e-07 	8.976783547e-06
0.5269247196 	0.004121097061 	-0.001495331475 	-1.287136335e-07 	0.00403945895 	4.338879629e-07 	7.700331468e-06
0.5358928449 	0.00339385681 	-0.001230700363 	-1.412001537e-07 	0.003319565233 	4.345208902e-07 	6.328013959e-06
0.5455150046 	0.002704833817 	-0.000980251391 	-1.156227855e-07 	0.002638269156 	3.308432273e-07 	5.029274281e-06
0.5558387535 	0.002111966491 	-0.0007265367769 	-4.431965479e-08 	0.002060066684 	1.877924536e-07 	3.927059665e-06
0.5669144801 	0.001649968326 	-0.0004784275354 	2.110399895e-08 	0.001616835566 	9.315417878e-08 	3.082137965e-06
0.5787956804 	0.00135299155 	-0.0002816981248 	3.067359051e-08 	0.001330451724 	4.26267937e-08 	2.536210767e-06
0.5915392544 	0.001208486849 	-0.0001276428802 	1.492961714e-08 	0.001186804707 	-3.865681179e-08 	2.262379627e-06
0.6052058224 	0.001172413162 	1.297607994e-06 	2.018872683e-08 	0.001143785921 	-1.446156903e-07 	2.180373865e-06
0.6198603429 	0.001197407176 	0.0001116652411 	6.046252217e-08 	0.001157418805 	-2.171667052e-07 	2.206361929e-06
0.6355749705 	0.001251453067 	0.0002016690933 	8.095373793e-08 	0.001198504336 	-2.602823568e-07 	2.284682372e-06
0.6524206021 	0.001318355394 	0.0002738019995 	2.873552185e-08 	0.001252565082 	-3.17278747e-07 	2.387737178e-06
0.6704783553 	0.001386694982 	0.00031718085 	-8.955397121e-08 	0.001313105284 	-3.958435598e-07 	2.503143629e-06
0.6898319307 	0.001450466081 	0.0003120135703 	-1.697858772e-07 	0.001376935689 	-4.739080725e-07 	2.624822123e-06
0.7105714937 	0.001528670029 	0.0003037296249 	-1.565727824e-07 	0.001445753418 	-4.582258325e-07 	2.756007842e-06
0.7327937836 	0.001622256103 	0.0003654444427 	-9.542635483e-08 	0.001514243821 	-2.981047756e-07 	2.886569585e-06
0.7550223282 	0.001706497953 	0.0004874074509 	-2.150031833e-08 	0.001575345566 	-1.718138225e-07 	3.003046494e-06
0.7757797241 	0.001760034985 	0.0005370571001 	-5.818927171e-08 	0.001636598689 	-1.202347408e-07 	3.119811971e-06
0.7951620546 	0.001814839394 	0.0005145442583 	-1.483206462e-07 	0.001711595122 	-8.14066562e-08 	3.262776015e-06
0.8132596963 	0.001918101514 	0.0005387926377 	-1.32150534e-07 	0.001810842781 	-6.835865459e-08 	3.451969639e-06
0.8301574244 	0.002062084434 	0.0006167069038 	-4.13017849e-08 	0.00193856274 	-4.21459777e-08 	3.695439378e-06
0.8459346261 	0.002240066195 	0.0007251295369 	5.391568142e-08 	0.002099369679 	6.470785925e-09 	4.001982097e-06
0.86066544 	0.002458013456 	0.000844791168 	8.49650673e-08 	0.00230225303 	7.1458972e-08 	4.388734153e-06
0.8744192184 	0.002722532959 	0.0009590148302 	8.790482065e-08 	0.002557978504 	1.525075221e-07 	4.876217982e-06
0.8872607168 	0.003048441344 	0.001078368753 	1.178009124e-07 	0.002877473485 	2.318996843e-07 	5.485264216e-06
0.8992504152 	0.003440231994 	0.001220721777 	1.365102722e-07 	0.003258937221 	2.803951912e-07 	6.212440117e-06
0.9104447947 	0.003872079879 	0.001377094966 	1.400519547e-07 	0.00367833682 	2.875444429e-07 	7.011932319e-06
0.9208965944 	0.004307280745 	0.001534635648 	1.300847127e-07 	0.004101384656 	2.584497566e-07 	7.818379075e-06
0.9306550585 	0.004715970187 	0.001682785071 	1.131919593e-07 	0.004499873697 	2.114666587e-07 	8.578009942e-06
0.9397661676 	0.005079714473 	0.001814977156 	9.507175168e-08 	0.004856180828 	1.624665794e-07 	9.257230363e-06
0.9482728542 	0.005385378227 	0.001926488291 	7.882844614e-08 	0.005157547323 	1.203524698e-07 	9.831718663e-06
0.9562152047 	0.00561991233 	0.002012570169 	6.570528931e-08 	0.005391101554 	8.880120232e-08 	1.027693794e-05
0.9636306481 	0.005758360074 	0.00206402967 	5.628953957e-08 	0.005531771596 	6.871016296e-08 	1.054509414e-05
0.9685376396 	0.005804827012 	0.002082180282 	5.044640002e-08 	0.005582776028 	5.897805173e-08 	1.064232276e-05
0.9728808087 	0.005785224016 	0.002076436728 	4.747454098e-08 	0.005569495225 	5.77079648e-08 	1.061700586e-05
0.9767249346 	0.005698012812 	0.002046313549 	4.565604868e-08 	0.005490664775 	6.048893005e-08 	1.046673311e-05
0.9801273551 	0.005529054178 	0.001986725418 	4.308862396e-08 	0.005332509799 	6.21101857e-08 	1.016524577e-05
0.9831388207 	0.00525600269 	0.00188972098 	3.309352369e-08 	0.005073357519 	4.420578918e-08 	9.671229499e-06
0.9858042517 	0.004848667433 	0.001744810719 	1.162497643e-08 	0.004683852906 	-5.104400549e-09 	8.928725449e-06
0.9881634075 	0.004272869103 	0.001540725717 	-1.342872511e-08 	0.004130667766 	-6.812815869e-08 	7.874200821e-06
0.9902514797 	0.003496051009 	0.001260958753 	-3.73811214e-08 	0.00338178363 	-1.226269026e-07 	6.446619516e-06
0.9920996164 	0.00252382982 	0.0009087193675 	-5.169783631e-08 	0.002442597322 	-1.483807853e-07 	4.656269381e-06
0.9937353873 	0.001511764584 	0.0005224518915 	-5.544189362e-08 	0.00146830174 	-1.347395465e-07 	2.79899121e-06
0.9947979485 	0.000719731304 	0.0002083797534 	-4.014333841e-08 	0.0007059762967 	-8.989889898e-08 	1.345787037e-06
0.9958605126 	0.000253008015 	4.999715849e-05 	-1.339628731e-08 	0.0002507811793 	-3.891308484e-08 	4.780586288e-07
0.9969230794 	5.243268025e-05 	5.200766307e-06 	-1.820367949e-09 	5.225067071e-05 	-9.114795126e-09 	9.96043007e-08
0.9979856491 	4.436757169e-06 	1.308170402e-07 	-5.764310814e-11 	4.427606824e-06 	-8.638141949e-10 	8.440249195e-09
0.9990482216 	5.788242715e-08 	1.864385827e-10 	-1.050082795e-13 	5.777207945e-08 	-1.372301217e-11 	1.101296404e-10
