0 	0.1948862064 	-1.323567886e-14 	-4.810818946e-21
0 	0.1948862064 	-1.323567886e-14 	-4.810818946e-21
0.001889880757 	0.1948788749 	-0.0005961112967 	1.630678467e-06
0.003779741465 	0.1949211162 	-0.001119480697 	3.037362664e-06
0.005669582045 	0.1950570206 	-0.001644503785 	4.382892259e-06
0.007559402482 	0.1952573503 	-0.002182674964 	5.721907994e-06
0.009449202822 	0.1955628524 	-0.002801696358 	7.222651162e-06
0.0123584479 	0.1960660117 	-0.003595023286 	9.032321371e-06
0.01564534699 	0.1968236206 	-0.004541334343 	1.107688963e-05
0.01935891766 	0.1978928229 	-0.005611483739 	1.323130588e-05
0.02357816231 	0.1993748095 	-0.006823119402 	1.547157804e-05
0.02835083071 	0.2013958156 	-0.008192201923 	1.775562031e-05
0.0337430193 	0.2041157539 	-0.009735885737 	2.002452873e-05
0.03983513139 	0.2077477753 	-0.01147774264 	2.220824224e-05
0.04675897752 	0.2125678212 	-0.01344358186 	2.419795938e-05
0.05458402359 	0.2189174198 	-0.01565616762 	2.586868743e-05
0.06344293631 	0.2281272392 	-0.01839048393 	2.74175766e-05
0.07687936455 	0.2420841044 	-0.02187340918 	2.751801266e-05
0.09132747402 	0.2609587193 	-0.02580361443 	2.631596117e-05
0.1068517842 	0.2846434984 	-0.02993280178 	2.325782983e-05
0.1235382128 	0.3139847253 	-0.03424107629 	1.815425268e-05
0.1414763202 	0.3499403468 	-0.03868977254 	1.083741497e-05
0.1607597829 	0.3935797524 	-0.04322398546 	1.194828266e-06
0.1630177224 	0.3993024586 	-0.04371613534 	6.230408147e-06
0.1814869171 	0.4459588823 	-0.04782389624 	1.335895228e-05
0.203761246 	0.5089544047 	-0.05230973453 	3.079037561e-05
0.22769211 	0.584476719 	-0.05647242054 	5.046245002e-05
0.2533953163 	0.6744247925 	-0.0600514102 	7.185165804e-05
0.2809948866 	0.7802321459 	-0.06272150346 	9.427090582e-05
0.3106333302 	0.9014821583 	-0.06412810933 	0.0001168581917
0.3424387954 	1.032124158 	-0.06400624785 	0.0001378745083
0.3765679891 	1.15201589 	-0.06219805748 	0.00015315231
0.4131763284 	1.23089714 	-0.05854873936 	0.0001583431124
0.4524319133 	1.265703627 	-0.05366859624 	0.000153923512
0.4945150618 	1.277855733 	-0.04846940055 	0.0001442537665
0.5366248026 	1.279067824 	-0.043455267 	0.0001324964702
0.5759561429 	1.274305387 	-0.03900419442 	0.0001205073668
0.6126864062 	1.266892805 	-0.03513991017 	0.0001095339991
0.6469841783 	1.25795556 	-0.03174169685 	9.97470368e-05
0.6790086872 	1.247445094 	-0.02870685521 	9.102051161e-05
0.7089097018 	1.235017931 	-0.0259639502 	8.322955891e-05
0.7368272602 	1.220269234 	-0.02345468414 	7.628531044e-05
0.7628926911 	1.202610352 	-0.0211287396 	7.004652011e-05
0.7872286785 	1.180974321 	-0.01893428926 	6.436191521e-05
0.8099498676 	1.153643793 	-0.01681423941 	5.90650519e-05
0.8311633612 	1.118930395 	-0.01472898459 	5.401630628e-05
0.8509691787 	1.076008742 	-0.01266391381 	4.913857922e-05
0.8694607163 	1.024785374 	-0.01062238334 	4.435872647e-05
0.8867251805 	0.965346295 	-0.008613846136 	3.962014286e-05
0.9028439947 	0.8978128406 	-0.006657692439 	3.481184204e-05
0.9178931816 	0.8226741151 	-0.004793214503 	2.980560079e-05
0.9319437194 	0.7470082498 	-0.003211255553 	2.493574827e-05
0.9412411842 	0.6815329491 	-0.002075802227 	2.083158726e-05
0.9494702593 	0.624709154 	-0.001259699689 	1.73742051e-05
0.9567537154 	0.5717602411 	-0.00063857728 	1.425838856e-05
0.9632002153 	0.5227930272 	-0.0001898292246 	1.1492598e-05
0.9689059355 	0.4774805555 	0.0001123940342 	9.063548039e-06
0.9739560002 	0.4350829834 	0.0002942647127 	6.954053445e-06
0.9784257521 	0.3944155716 	0.0003779859871 	5.151384226e-06
0.9823818762 	0.3537326085 	0.0003798329295 	3.646418124e-06
0.9858833943 	0.3104328947 	0.0003402859102 	2.438399428e-06
0.9889825462 	0.263547445 	0.0003076964131 	1.545112375e-06
0.9909956813 	0.2145134142 	0.0002535239268 	9.365511266e-07
0.9930088164 	0.1602941498 	0.0001398788941 	5.232410214e-07
0.9950219514 	0.1021448375 	4.159593986e-05 	2.356572652e-07
0.9970350865 	0.04777007433 	7.01364418e-06 	6.127859347e-08
0.9990482216 	0.01266283496 	1.991876409e-07 	3.115880839e-09
0.9990482216 	0.01266283496 	1.991876409e-07 	3.115880839e-09
