0.2638980281 	9.500063889e-09 	9.495950578e-12 	7.893520813e-14 	9.464222439e-09 	8.182816446e-11 	1.804143841e-11
0.2638980281 	9.500063889e-09 	9.495950578e-12 	7.893520813e-14 	9.464222439e-09 	8.182816446e-11 	1.804143841e-11
0.2654533431 	1.122028958e-06 	1.067132141e-08 	1.06021454e-10 	1.099717411e-06 	1.039117078e-08 	2.096367035e-09
0.2670087167 	1.545969153e-05 	4.707756797e-07 	5.150034237e-09 	1.4532189e-05 	1.423923776e-07 	2.770239125e-08
0.2685638061 	8.152193344e-05 	4.618535126e-06 	5.274353869e-08 	7.2484466e-05 	7.139323365e-07 	1.381755382e-07
0.2701182719 	0.0002516211598 	1.929588476e-05 	2.184597233e-07 	0.0002137323222 	2.047451551e-06 	4.0743321e-07
0.2716717782 	0.0005835710545 	4.734176051e-05 	5.237297651e-07 	0.0004885617044 	4.330141042e-06 	9.313343972e-07
0.2740607069 	0.001074481966 	5.524600573e-05 	7.859806446e-07 	0.0009489240199 	7.381292079e-06 	1.808912922e-06
0.2767546051 	0.001596614895 	-9.753697475e-06 	9.691983497e-07 	0.001548787723 	1.046195075e-05 	2.952419864e-06
0.2797895793 	0.002057470814 	-0.0001571579951 	1.287473193e-06 	0.002195056272 	1.317285008e-05 	4.184387339e-06
0.2832304115 	0.002473567348 	-0.000366236207 	1.825645657e-06 	0.00285282756 	1.558867659e-05 	5.438282231e-06
0.287111948 	0.002874591451 	-0.0006256980816 	2.610794407e-06 	0.003518714257 	1.769289135e-05 	6.707647351e-06
0.2914829797 	0.00328505533 	-0.0009419463725 	3.889499577e-06 	0.004207433692 	1.91873904e-05 	8.020538013e-06
0.2964036899 	0.003742043559 	-0.001305977768 	4.797848364e-06 	0.004940077535 	1.978022716e-05 	9.417160805e-06
0.3019811527 	0.004290590446 	-0.001737955564 	5.167344727e-06 	0.005764073938 	1.849196855e-05 	1.098792697e-05
0.3082566829 	0.004978046042 	-0.002258317492 	5.960783628e-06 	0.006734857868 	1.45316923e-05 	1.283851095e-05
0.3153299793 	0.005942209418 	-0.002908595008 	6.443868869e-06 	0.008019584746 	8.665037357e-06 	1.528755745e-05
0.3259983069 	0.007363856399 	-0.003792304695 	6.691271479e-06 	0.009809727009 	2.912488114e-06 	1.870006615e-05
0.3373926531 	0.009090035057 	-0.004864139071 	6.879667408e-06 	0.01188181838 	5.608547933e-06 	2.26500482e-05
0.3495488673 	0.01067520831 	-0.005994879538 	2.215066885e-06 	0.01369818213 	2.436454471e-05 	2.611254236e-05
0.3625213994 	0.01160683893 	-0.006942703953 	-1.18531273e-05 	0.01460798832 	5.713160666e-05 	2.784688582e-05
0.3763660986 	0.01143647768 	-0.007253821711 	-3.418546147e-05 	0.014049029 	9.078775683e-05 	2.6781354e-05
0.391140701 	0.009974851174 	-0.00650084836 	-5.512252204e-05 	0.01189004226 	0.0001108315065 	2.26657252e-05
0.4069054432 	0.007535652975 	-0.004852818548 	-5.668987785e-05 	0.008679856692 	0.0001036196314 	1.65462193e-05
0.423723814 	0.00503389202 	-0.003156378807 	-4.133720353e-05 	0.005603030775 	7.435993766e-05 	1.068093394e-05
0.4416634491 	0.003106577447 	-0.001826042779 	-2.338973394e-05 	0.003313238272 	3.958565073e-05 	6.315953014e-06
0.4607971748 	0.002211140179 	-0.001110256315 	-5.0390374e-06 	0.002193505561 	5.958383917e-06 	4.181431252e-06
0.4812051392 	0.001990767494 	-0.0008861691961 	1.332458656e-06 	0.00190723167 	-3.705516245e-06 	3.63571365e-06
0.5029838614 	0.001603010584 	-0.0006310352746 	-9.22575569e-07 	0.001479160322 	2.382543429e-06 	2.819690685e-06
0.5262183068 	0.00132864488 	-0.0003783989072 	-9.809188624e-07 	0.001048209929 	1.865181959e-06 	1.99817946e-06
0.5510200772 	0.001287817848 	-0.0003123987351 	-8.723557864e-08 	0.0009647187251 	2.68014539e-07 	1.83902202e-06
0.5775021918 	0.001174608985 	-0.0002996425602 	1.0293759e-06 	0.0009226296382 	2.490416456e-06 	1.758788522e-06
0.6057914839 	0.001201111347 	-7.59664496e-06 	-2.257325567e-07 	0.0008837000649 	3.262574218e-06 	1.684577935e-06
0.636028988 	0.001381354605 	0.0001780349579 	-2.664086937e-06 	0.001024080963 	1.734733017e-06 	1.952182945e-06
0.6662252001 	0.001515195504 	7.292843064e-06 	-1.235996494e-06 	0.00119122117 	-1.458171895e-07 	2.270798633e-06
0.6943993079 	0.001657172168 	-5.14156525e-06 	1.288526158e-06 	0.001273198517 	-1.220034043e-06 	2.42707024e-06
0.7207016499 	0.001790361512 	0.0002469290337 	1.548748463e-06 	0.001288212106 	-1.020291247e-06 	2.455690314e-06
0.7452665078 	0.001916348063 	0.0005181240662 	9.360927623e-07 	0.001344262229 	-7.368330463e-07 	2.562537426e-06
0.768215059 	0.002053854953 	0.0007142711329 	4.007327038e-07 	0.001463234762 	-5.95178283e-07 	2.789332142e-06
0.7896577441 	0.002212009266 	0.0008499999202 	5.958682305e-09 	0.001633183448 	-5.423501645e-07 	3.113301572e-06
0.8096954208 	0.00240049772 	0.0009661221168 	-2.520931448e-07 	0.001851700385 	-6.185817259e-07 	3.529855587e-06
0.8284213407 	0.002636486969 	0.001093594533 	-3.709094711e-07 	0.002128593019 	-8.181256821e-07 	4.057689906e-06
0.8459217018 	0.002942052096 	0.001249627964 	-4.674738674e-07 	0.00247403296 	-1.029924266e-06 	4.716194443e-06
0.8622766275 	0.003326884808 	0.001438153147 	-5.412712552e-07 	0.002887307945 	-1.178300779e-06 	5.504011429e-06
0.8775607399 	0.003772422593 	0.001650815096 	-5.519785686e-07 	0.00334871317 	-1.1899188e-06 	6.383578029e-06
0.8918436525 	0.004239642529 	0.001871328474 	-4.768378893e-07 	0.003825207726 	-1.025593095e-06 	7.291909087e-06
0.9051903915 	0.00469565625 	0.002085955152 	-3.336142003e-07 	0.004289940304 	-7.223079755e-07 	8.177818547e-06
0.9176617495 	0.005125242143 	0.002288566371 	-1.502343995e-07 	0.004730954124 	-3.358902452e-07 	9.018513461e-06
0.929314591 	0.005521951165 	0.0024767771 	5.958713549e-08 	0.005143371456 	1.056324394e-07 	9.80469552e-06
0.9402021232 	0.005873268468 	0.002645297745 	2.860714416e-07 	0.005516259989 	5.82960443e-07 	1.051552471e-05
0.950374142 	0.006127665891 	0.002770073806 	4.92053664e-07 	0.005797515499 	1.01985932e-06 	1.105167588e-05
0.957108839 	0.006251156744 	0.002834693438 	6.352061121e-07 	0.005950687926 	1.326500492e-06 	1.13436651e-05
0.963072106 	0.006255639246 	0.002844818527 	7.091265379e-07 	0.005988266518 	1.4897734e-06 	1.141530034e-05
0.9683520561 	0.006137366836 	0.002798900834 	7.229634135e-07 	0.00590735475 	1.52705595e-06 	1.126106002e-05
0.9730267922 	0.005886812551 	0.002692112014 	6.915295376e-07 	0.005696874617 	1.467933708e-06 	1.085982638e-05
0.9771655318 	0.005503176088 	0.002523528884 	6.452522078e-07 	0.005353829839 	1.375538927e-06 	1.020588769e-05
0.98082961 	0.004989052055 	0.002293785259 	6.226034352e-07 	0.004878504732 	1.331226064e-06 	9.299785929e-06
0.9840733699 	0.004344723394 	0.00200250151 	6.495364788e-07 	0.004268976726 	1.391617156e-06 	8.137856141e-06
0.9869449531 	0.003565984822 	0.001647262297 	7.221748611e-07 	0.003518183586 	1.549313546e-06 	6.706635743e-06
0.9894870034 	0.002648778606 	0.001225591196 	7.957452659e-07 	0.002621431437 	1.704447862e-06 	4.997176908e-06
0.9917372914 	0.001672772661 	0.0007355217852 	8.021608601e-07 	0.001660123493 	1.624114074e-06 	3.164656786e-06
0.9931992005 	0.0008430764208 	0.0003037465323 	5.518626791e-07 	0.0008389216926 	1.143231782e-06 	1.599217912e-06
0.9946612482 	0.0003042234026 	7.394043656e-05 	1.793621413e-07 	0.0003032238138 	4.902935939e-07 	5.780288659e-07
0.9961234342 	6.071576849e-05 	6.871276819e-06 	1.804584292e-08 	6.056737151e-05 	9.594616322e-08 	1.154582439e-07
0.9975857587 	4.496513356e-06 	1.274767417e-07 	2.642109284e-10 	4.487595839e-06 	5.405593513e-09 	8.554604932e-09
0.9990482216 	4.28993777e-08 	1.005994645e-10 	6.192822877e-14 	4.281745036e-08 	1.333909419e-11 	8.162196088e-11
