0.4709558481 	0.03108443437 	2.08027029e-06 	-2.966327911e-10
0.4720092239 	0.11917315 	1.675183703e-05 	-1.951439326e-09
0.4730625996 	0.2372733287 	3.8272544e-05 	-3.803191194e-09
0.4741159754 	0.3522845841 	2.527135586e-05 	-6.860145325e-09
0.4751693511 	0.4588428006 	1.042593692e-05 	-1.374405225e-08
0.4762227269 	0.5638491009 	5.817077695e-05 	-2.314981884e-08
0.4778443634 	0.6745201228 	0.0001279378837 	-3.757918785e-08
0.4796765386 	0.7800780216 	0.0001945577108 	-5.911009021e-08
0.4817465869 	0.8742315808 	0.0002782432826 	-8.73429542e-08
0.4840853915 	0.9594387373 	0.0003830989237 	-1.243854229e-07
0.4867278453 	1.037893968 	0.00051744038 	-1.725346944e-07
0.4897133715 	1.111251544 	0.0006874806673 	-2.334690245e-07
0.4930865115 	1.180563884 	0.0008983809269 	-3.076030317e-07
0.4968975894 	1.245965755 	0.001153114782 	-3.899702814e-07
0.5012034633 	1.306273778 	0.001441723134 	-4.598929651e-07
0.506068373 	1.363136684 	0.001760161557 	-5.061573765e-07
0.5134203412 	1.411052663 	0.002066787976 	-4.846351659e-07
0.5212948542 	1.440714922 	0.002262371979 	-3.817817386e-07
0.529729052 	1.454983128 	0.00232608133 	-2.945630345e-07
0.5387627144 	1.46069306 	0.00231263213 	-2.489069512e-07
0.5484384488 	1.462277465 	0.002257966497 	-2.174163585e-07
0.5588018907 	1.461835982 	0.00217915668 	-1.994732029e-07
0.5699019192 	1.460211593 	0.002083777259 	-1.844328413e-07
0.5817908876 	1.457745671 	0.001974154433 	-1.703121316e-07
0.5945248701 	1.454578039 	0.001851278327 	-1.562587515e-07
0.6081639266 	1.450760132 	0.001715177673 	-1.412970222e-07
0.6227723857 	1.446301677 	0.001565300173 	-1.247225118e-07
0.638419148 	1.441191383 	0.001400915195 	-1.060992924e-07
0.6551780116 	1.435405529 	0.00122140401 	-8.527210869e-08
0.6731280194 	1.428909254 	0.001026491934 	-6.241773179e-08
0.6923538328 	1.421651922 	0.0008164209248 	-3.80565929e-08
0.7129461301 	1.413556429 	0.0005920243933 	-1.29812862e-08
0.7350020349 	1.404658975 	0.0003587265813 	1.151398008e-08
0.7570579485 	1.395325104 	0.0001304277422 	3.366683189e-08
0.7776502527 	1.385966273 	-8.067258758e-05 	5.252145514e-08
0.7968760713 	1.376680922 	-0.000272350875 	6.838599778e-08
0.814826083 	1.367410514 	-0.0004464732473 	8.167929346e-08
0.831584949 	1.358094122 	-0.0006052996496 	9.296223651e-08
0.8472317127 	1.34866337 	-0.0007501060849 	1.032047891e-07
0.8618401721 	1.338996579 	-0.0008813341023 	1.127850779e-07
0.8754792281 	1.328894132 	-0.001000223601 	1.225530474e-07
0.8882132094 	1.318142178 	-0.001106864345 	1.32593923e-07
0.9001021759 	1.306517289 	-0.001200371277 	1.431131707e-07
0.9112022019 	1.293680178 	-0.001279015889 	1.569827155e-07
0.9215656407 	1.279017643 	-0.001337932421 	1.783362165e-07
0.9312413717 	1.261424507 	-0.001367839133 	2.117194821e-07
0.9402750304 	1.239044814 	-0.001354313748 	2.595644471e-07
0.9487092242 	1.209100655 	-0.001279930031 	3.16123592e-07
0.9565837329 	1.168127876 	-0.001131257167 	3.622103478e-07
0.9639356968 	1.117287238 	-0.0009300285885 	3.693031671e-07
0.9688006083 	1.06472865 	-0.0007340879471 	3.362611166e-07
0.9731064834 	1.011865433 	-0.0005658841178 	2.836649844e-07
0.976917562 	0.9553676359 	-0.0004205030648 	2.242483994e-07
0.9802907021 	0.8954844777 	-0.0003022146231 	1.67829853e-07
0.9832762282 	0.8318738265 	-0.0002107030349 	1.196128043e-07
0.9859186816 	0.7637120646 	-0.0001433037131 	8.129841024e-08
0.9882574856 	0.6898309716 	-9.518734757e-05 	5.218956471e-08
0.990327533 	0.6087850901 	-6.127682417e-05 	3.096504692e-08
0.9921597073 	0.5193851197 	-2.651279155e-05 	1.816932735e-08
0.9937813429 	0.4278495468 	5.260643132e-06 	1.156086225e-08
0.9948347186 	0.3435301211 	4.989562438e-06 	6.552294905e-09
0.9958880943 	0.2613033184 	-1.527173915e-05 	2.992780603e-09
0.9969414701 	0.1752220809 	-1.707159776e-05 	1.284797246e-09
0.9979948458 	0.08786326146 	-5.23126468e-06 	3.942211177e-10
0.9990482216 	0.02515331113 	-3.783648705e-07 	3.875369219e-11
0.9990482216 	0.02515331113 	-3.783648705e-07 	3.875369219e-11
