0 	0.01332875038 	-9.052208611e-16 	-3.290238238e-22 	6.147799188e-29 	2.234562286e-35 	8.122042469e-42
0 	0.01332875038 	-9.052208611e-16 	-3.290238238e-22 	6.147799188e-29 	2.234562286e-35 	8.122042469e-42
0.001889880757 	0.01328642047 	6.006131923e-05 	-6.195400875e-07 	0.02132127198 	-1.956298367e-05 	4.064427033e-05
0.003779741465 	0.01327194715 	-0.0002647315561 	7.789334446e-08 	0.02164134943 	-2.003974046e-05 	4.125442691e-05
0.005669582045 	0.01329593628 	-0.0004498360498 	3.114534338e-07 	0.02168163305 	-1.981570228e-05 	4.133121868e-05
0.007559402482 	0.01329448771 	-0.0006104804702 	4.508716564e-07 	0.02171910444 	-1.960065457e-05 	4.140264958e-05
0.009449202822 	0.01330258529 	-0.0007863019046 	5.785643547e-07 	0.02173435729 	-1.931122659e-05 	4.143172575e-05
0.0123584479 	0.0133188007 	-0.001010167664 	7.279085917e-07 	0.02175401543 	-1.885448374e-05 	4.146919963e-05
0.01564534699 	0.01334567327 	-0.001279212445 	9.032954161e-07 	0.02178742459 	-1.835618872e-05 	4.153288678e-05
0.01935891766 	0.01338601033 	-0.001583660662 	1.091179053e-06 	0.02183106323 	-1.780024374e-05 	4.161607415e-05
0.02357816231 	0.01344430606 	-0.001926111755 	1.283541485e-06 	0.02188861544 	-1.717453872e-05 	4.172578465e-05
0.02835083071 	0.01352625092 	-0.002309986902 	1.475567639e-06 	0.02196416516 	-1.647921035e-05 	4.186980342e-05
0.0337430193 	0.0136386187 	-0.002740241476 	1.665515715e-06 	0.02206272978 	-1.570941183e-05 	4.205769499e-05
0.03983513139 	0.01379011188 	-0.003221584658 	1.846858848e-06 	0.02219051256 	-1.485725527e-05 	4.230128448e-05
0.04675897752 	0.01399156954 	-0.003759783224 	2.010466161e-06 	0.02235481428 	-1.390488541e-05 	4.261448922e-05
0.05458402359 	0.01425487055 	-0.004356968401 	2.14231691e-06 	0.02256480705 	-1.285957897e-05 	4.301479381e-05
0.06344293631 	0.01462933662 	-0.005081211426 	2.260566244e-06 	0.02285614588 	-1.171493289e-05 	4.357016659e-05
0.07687936455 	0.01517810088 	-0.005988581433 	2.253535138e-06 	0.02327314234 	-9.995189897e-06 	4.436507774e-05
0.09132747402 	0.01588339893 	-0.006992178172 	2.142204839e-06 	0.02379283572 	-8.200988139e-06 	4.535575776e-05
0.1068517842 	0.01670366832 	-0.008018808561 	1.882499527e-06 	0.02437028886 	-6.321932529e-06 	4.645654394e-05
0.1235382128 	0.01761901487 	-0.009051029447 	1.44541056e-06 	0.02497314001 	-4.357065276e-06 	4.760574578e-05
0.1414763202 	0.01859051403 	-0.0100549226 	8.357220281e-07 	0.02554847261 	-2.319296319e-06 	4.870248962e-05
0.1607597829 	0.01955022242 	-0.01099333417 	8.972994286e-08 	0.026012774 	-2.282343885e-07 	4.958757711e-05
0.1630177224 	0.01964171974 	-0.01108343157 	2.898766781e-06 	0.02603680017 	-1.513441699e-05 	4.963337769e-05
0.1814869171 	0.02038833091 	-0.01182129105 	7.72664498e-07 	0.02623404853 	-1.896984486e-06 	5.000938787e-05
0.203761246 	0.02094688926 	-0.01245228888 	1.758476655e-06 	0.02602246399 	-3.800694771e-06 	4.960604894e-05
0.22769211 	0.02098260201 	-0.01273036303 	2.75125689e-06 	0.02513572651 	-5.309676529e-06 	4.791568084e-05
0.2533953163 	0.02016013368 	-0.01242817853 	3.569630828e-06 	0.02327376602 	-6.243225193e-06 	4.436626665e-05
0.2809948866 	0.01807688604 	-0.01126349409 	4.008481969e-06 	0.0201181308 	-6.464999403e-06 	3.835074886e-05
0.3106333302 	0.01440779288 	-0.008990799258 	3.947470994e-06 	0.01548749489 	-5.945839212e-06 	2.952346978e-05
0.3424387954 	0.009386379025 	-0.005740559519 	3.412393191e-06 	0.009775991239 	-4.803104467e-06 	1.86357564e-05
0.3765679891 	0.004668815211 	-0.002674223975 	2.535626299e-06 	0.00470479517 	-3.3781552e-06 	8.968647224e-06
0.4131763284 	0.002133109822 	-0.001022678253 	1.545467681e-06 	0.002029757846 	-1.770698558e-06 	3.869282596e-06
0.4524319133 	0.001394360305 	-0.0004630080832 	8.728921726e-07 	0.001206262145 	-3.351167964e-07 	2.299470912e-06
0.4945150618 	0.001231696215 	-0.0002023801494 	6.383396481e-07 	0.0009637767585 	4.1743463e-07 	1.83722637e-06
0.5366248026 	0.001268411099 	-1.95077755e-05 	5.267798476e-07 	0.0009361049145 	7.270010534e-07 	1.784476144e-06
0.5759561429 	0.001361750247 	0.000125621755 	4.410774007e-07 	0.0009872531063 	8.437840887e-07 	1.881978813e-06
0.6126864062 	0.001471963077 	0.0002412110915 	4.069460139e-07 	0.001067896916 	8.863650955e-07 	2.035708329e-06
0.6469841783 	0.001587171248 	0.0003544069969 	3.974890974e-07 	0.001165351703 	9.080670313e-07 	2.221484239e-06
0.6790086872 	0.00171061528 	0.0004781394006 	3.775569206e-07 	0.00128553627 	9.197023371e-07 	2.450589428e-06
0.7089097018 	0.001851263024 	0.0006101083218 	3.532280173e-07 	0.001436902114 	9.30151728e-07 	2.739134795e-06
0.7368272602 	0.002021987105 	0.0007478853253 	3.555463349e-07 	0.001627749831 	9.555452723e-07 	3.102943588e-06
0.7628926911 	0.002240016001 	0.0009076052282 	4.2392739e-07 	0.001867095095 	1.013087696e-06 	3.559202183e-06
0.7872286785 	0.002521865844 	0.001082925478 	4.349862535e-07 	0.002174669967 	1.123552235e-06 	4.145525376e-06
0.8099498676 	0.00289156579 	0.001271068835 	4.392296381e-07 	0.002572297353 	1.282789484e-06 	4.903513687e-06
0.8311633612 	0.003370112613 	0.001499438155 	5.484517581e-07 	0.003067579814 	1.485606569e-06 	5.847659715e-06
0.8509691787 	0.003948737796 	0.001771431484 	6.707927196e-07 	0.003651714805 	1.730436587e-06 	6.961183361e-06
0.8694607163 	0.00459521639 	0.002072854813 	7.917540477e-07 	0.004298389869 	1.988910707e-06 	8.193925766e-06
0.8867251805 	0.005268439007 	0.002385278147 	8.851665627e-07 	0.004972189883 	2.198995176e-06 	9.478375865e-06
0.9028439947 	0.005914028 	0.002685060728 	8.930369055e-07 	0.005623892635 	2.229512684e-06 	1.072070244e-05
0.9178931816 	0.006445528572 	0.002934444085 	7.502478313e-07 	0.006173102677 	1.935190581e-06 	1.176764943e-05
0.9319437194 	0.00673513793 	0.003075210649 	4.755909326e-07 	0.006493739039 	1.349893322e-06 	1.237887145e-05
0.9412411842 	0.006761672191 	0.003095650654 	1.828205912e-07 	0.006556464841 	7.159032495e-07 	1.249844426e-05
0.9494702593 	0.006601907271 	0.003029900603 	-6.600668968e-08 	0.006433150414 	1.685537891e-07 	1.226337269e-05
0.9567537154 	0.006295890752 	0.002896403575 	-2.653981456e-07 	0.006164108897 	-2.789616583e-07 	1.175050478e-05
0.9632002153 	0.005878126626 	0.002710581178 	-4.038359228e-07 	0.005781797149 	-6.011721994e-07 	1.102171233e-05
0.9689059355 	0.005379073958 	0.002486086859 	-4.797417362e-07 	0.005314654822 	-7.948311455e-07 	1.013120922e-05
0.9739560002 	0.004820004765 	0.002232445901 	-4.954379572e-07 	0.004782431721 	-8.656309848e-07 	9.116644068e-06
0.9784257521 	0.004209029176 	0.001953158934 	-4.559574995e-07 	0.004192110371 	-8.242277692e-07 	7.991327503e-06
0.9823818762 	0.003537370531 	0.001643802415 	-3.704396254e-07 	0.00353301859 	-6.881939001e-07 	6.734915383e-06
0.9858833943 	0.002774117813 	0.00129001835 	-2.551132609e-07 	0.002774034943 	-4.857849147e-07 	5.288081604e-06
0.9889825462 	0.001916925476 	0.0008602955962 	-1.617155861e-07 	0.001917302034 	-2.881510106e-07 	3.654910564e-06
0.9909956813 	0.001077272769 	0.0004197901729 	-7.875394178e-08 	0.001077599323 	-1.44302831e-07 	2.054203812e-06
0.9930088164 	0.000420084644 	0.000120976746 	-1.284003023e-08 	0.0004200899734 	-5.053253983e-08 	8.008082473e-07
0.9950219514 	8.307970106e-05 	1.192689402e-05 	5.502189141e-10 	8.298881612e-05 	-8.759280296e-09 	1.581997491e-07
0.9970350865 	5.391312256e-06 	1.869016754e-07 	5.633823697e-11 	5.381643989e-06 	-5.257882723e-10 	1.025890919e-08
0.9990482216 	3.822229279e-08 	9.493875183e-11 	6.174789897e-14 	3.814968361e-08 	-3.566199245e-12 	7.272390012e-11
0.9990482216 	3.822229279e-08 	9.493875183e-11 	6.174789897e-14 	3.814968361e-08 	-3.566199245e-12 	7.272390012e-11
