1.640171017e-35 	0.01198429461 	-8.273768549e-16 	-5.88172275e-19 	2.494275188e-15 	1.089024066e-16 	4.754781757e-18
0.001912604907 	0.01197776186 	-7.364107867e-05 	-1.226026772e-09 	0.01381302281 	-4.1392726e-06 	2.633146062e-05
0.003825194192 	0.01197709994 	-0.0001992699261 	6.685182256e-08 	0.01389594367 	-4.141078182e-06 	2.648953081e-05
0.005737767794 	0.01198385037 	-0.0003039174109 	1.07279212e-07 	0.01390718821 	-4.089127807e-06 	2.651096603e-05
0.007650325701 	0.01198731413 	-0.0004054590027 	1.425763031e-07 	0.01391659006 	-4.035879561e-06 	2.652888858e-05
0.00956286795 	0.0119943103 	-0.0005206221148 	1.807373529e-07 	0.01392246626 	-3.979610223e-06 	2.654009025e-05
0.01250713205 	0.01200592668 	-0.0006679032309 	2.267523682e-07 	0.01393133538 	-3.892802115e-06 	2.655699725e-05
0.01583360909 	0.01202331692 	-0.0008437431949 	2.793404607e-07 	0.01394600812 	-3.798180932e-06 	2.658496756e-05
0.01959191156 	0.01204761639 	-0.001042081326 	3.35138744e-07 	0.01396631263 	-3.69452508e-06 	2.662367361e-05
0.02385649769 	0.01208099584 	-0.001265417043 	3.930518144e-07 	0.01399421052 	-3.577953787e-06 	2.667685474e-05
0.02867914987 	0.01212615765 	-0.001516220863 	4.521120443e-07 	0.01403203317 	-3.450858342e-06 	2.674895523e-05
0.03412783817 	0.01218641213 	-0.001797087513 	5.110133144e-07 	0.01408264217 	-3.312971119e-06 	2.684543004e-05
0.04028381842 	0.01226599958 	-0.00211093121 	5.679339288e-07 	0.01414960695 	-3.162968165e-06 	2.697308352e-05
0.04727081711 	0.01237014829 	-0.002460938972 	6.199542254e-07 	0.01423722989 	-2.995892827e-06 	2.71401172e-05
0.05516671354 	0.01250472429 	-0.00284892536 	6.639909248e-07 	0.01435069675 	-2.813486413e-06 	2.735641658e-05
0.0641017149 	0.01269446166 	-0.003317012702 	7.046018134e-07 	0.01451034624 	-2.616905059e-06 	2.766075288e-05
0.07764239172 	0.01297021537 	-0.003898234242 	7.10431545e-07 	0.01474126503 	-2.308331011e-06 	2.810094828e-05
0.09218964228 	0.01332138314 	-0.004534736327 	6.861417958e-07 	0.01503242872 	-1.981123832e-06 	2.865598719e-05
0.1078092542 	0.01372602323 	-0.005177185766 	6.193624301e-07 	0.01536181284 	-1.622306255e-06 	2.928388487e-05
0.1245847907 	0.01417270613 	-0.005816153263 	5.073053354e-07 	0.01571553998 	-1.224762076e-06 	2.995818711e-05
0.1426038343 	0.01464138478 	-0.006438570497 	3.48456508e-07 	0.01606946751 	-7.844653358e-07 	3.063287134e-05
0.1619584402 	0.01510027223 	-0.007023248018 	1.437395502e-07 	0.01638606913 	-3.048321441e-07 	3.123640203e-05
0.17459936 	0.01534354423 	-0.007335818877 	5.963319773e-06 	0.01652472882 	-2.862163046e-05 	3.150072594e-05
0.1827456333 	0.01550061284 	-0.007537482843 	1.026925579e-07 	0.01661439013 	-2.09426417e-07 	3.167164532e-05
0.2050679472 	0.01577113305 	-0.007941898299 	3.761291701e-07 	0.01668460625 	-7.303660562e-07 	3.180549676e-05
0.229034003 	0.01581329165 	-0.00819031611 	6.406767547e-07 	0.01649679368 	-1.178127821e-06 	3.14474738e-05
0.2547591248 	0.01549187554 	-0.008214426935 	8.411115553e-07 	0.01591880415 	-1.452250395e-06 	3.034566511e-05
0.2823668212 	0.01462188694 	-0.007909892341 	8.844650645e-07 	0.01478296648 	-1.406721461e-06 	2.818044283e-05
0.3119969157 	0.0129624951 	-0.007132690846 	6.335045334e-07 	0.01288100001 	-8.49170524e-07 	2.455476612e-05
0.3437800877 	0.01023921992 	-0.00568784971 	-1.077030097e-07 	0.009987822819 	3.62513539e-07 	1.903956626e-05
0.3778714604 	0.006359789894 	-0.00340355353 	-9.952340012e-07 	0.006100773785 	1.705507738e-06 	1.162977046e-05
0.4144274988 	0.002842435124 	-0.001298276758 	-8.92296693e-07 	0.002703880509 	1.506713518e-06 	5.154347755e-06
0.4536170638 	0.001307097159 	-0.0003320357786 	-2.400140716e-07 	0.001248724844 	3.473416354e-07 	2.380416618e-06
0.4956212291 	0.00107312475 	9.554820793e-06 	-3.305532694e-08 	0.001022161368 	-2.033547286e-08 	1.948523663e-06
0.5376461177 	0.001116056686 	0.0001943030204 	3.077049005e-08 	0.001057891637 	-4.329139203e-08 	2.016635487e-06
0.5768947117 	0.001209800752 	0.0003265589241 	4.290287483e-08 	0.001145884093 	-2.847518234e-08 	2.184373563e-06
0.6135457513 	0.00132325521 	0.0004420411146 	5.067910396e-08 	0.001254528588 	-5.243337488e-09 	2.391480168e-06
0.6477684763 	0.001454268956 	0.0005545902537 	5.574153416e-08 	0.001382133859 	2.46718241e-08 	2.63473128e-06
0.6797223209 	0.001609062946 	0.000668934052 	5.540364981e-08 	0.00153561537 	6.0476188e-08 	2.927309698e-06
0.7095570023 	0.001797002071 	0.0007908774142 	6.409441619e-08 	0.001724279085 	1.010525617e-07 	3.286955175e-06
0.7374124644 	0.002031204917 	0.0009224715778 	7.251248586e-08 	0.001960261128 	1.527069043e-07 	3.736802537e-06
0.7634198193 	0.002336503782 	0.001071348382 	9.58808113e-08 	0.00226667692 	2.34544644e-07 	4.3209162e-06
0.7877015329 	0.002747243618 	0.001262803326 	1.550179452e-07 	0.002676019382 	3.569108886e-07 	5.101236703e-06
0.8103720244 	0.0032873859 	0.00151394903 	2.257557059e-07 	0.003212324996 	5.069910695e-07 	6.123584261e-06
0.8315381713 	0.003954742554 	0.001823567527 	2.936534506e-07 	0.003874862188 	6.544831832e-07 	7.386564293e-06
0.851299777 	0.004706411682 	0.002172035708 	3.306377045e-07 	0.004623405462 	7.382826114e-07 	8.81349582e-06
0.8697500334 	0.005453389769 	0.002518807883 	3.01307723e-07 	0.005372772622 	6.805958984e-07 	1.02419979e-05
0.8869759541 	0.006087720077 	0.002815010786 	1.930283239e-07 	0.00601830966 	4.519122906e-07 	1.147257091e-05
0.9030587819 	0.006512734223 	0.003016680648 	2.632639798e-08 	0.006464373689 	9.536569944e-08 	1.232289293e-05
0.9180743698 	0.006662418829 	0.003092812994 	-1.561711583e-07 	0.006643346187 	-2.980908224e-07 	1.266406425e-05
0.9320935383 	0.006533936601 	0.003040284043 	-2.977214217e-07 	0.006545967489 	-6.0717829e-07 	1.247843339e-05
0.9413702454 	0.006239728951 	0.002909350574 	-3.712995084e-07 	0.006276936028 	-7.725572942e-07 	1.196558465e-05
0.9495809481 	0.00587367521 	0.002743332007 	-3.921840615e-07 	0.005928875269 	-8.259067075e-07 	1.130208411e-05
0.9568481429 	0.005457765888 	0.002552627736 	-3.756579189e-07 	0.005524412368 	-7.998117334e-07 	1.05310654e-05
0.9632802503 	0.005022263397 	0.002351087401 	-3.329588796e-07 	0.005092786914 	-7.175773089e-07 	9.708267325e-06
0.9689732317 	0.004583106901 	0.002146044629 	-2.761465686e-07 	0.004649538494 	-6.036952366e-07 	8.863312641e-06
0.9740120216 	0.004140405274 	0.00193777007 	-2.156229425e-07 	0.004195803396 	-4.788167482e-07 	7.998367436e-06
0.9784717943 	0.003677743792 	0.001719240274 	-1.589919463e-07 	0.003717998363 	-3.58194191e-07 	7.087538245e-06
0.9824190858 	0.003160958393 	0.001475356692 	-1.11466975e-07 	0.003185319236 	-2.529246514e-07 	6.072103777e-06
0.9859127864 	0.002536216626 	0.001181804843 	-7.572904149e-08 	0.002546781784 	-1.709115082e-07 	4.854873921e-06
0.9890050191 	0.001790947957 	0.0008227211064 	-2.28125384e-08 	0.001793433717 	-1.003600625e-07 	3.418783124e-06
0.9910136596 	0.001029443784 	0.000432225783 	1.516267916e-08 	0.001029615815 	-4.157586928e-08 	1.962733911e-06
0.9930223001 	0.0004095342997 	0.0001332365483 	9.16736535e-09 	0.0004093902502 	-1.095331728e-08 	7.80411601e-07
0.9950309406 	8.196007799e-05 	1.452556637e-05 	1.696663467e-09 	8.185636303e-05 	-1.586281416e-09 	1.560409787e-07
0.9970395811 	5.328035219e-06 	2.542525298e-07 	3.909158734e-11 	5.318228185e-06 	-9.858105108e-11 	1.013802105e-08
0.9990482216 	3.784105152e-08 	1.456210831e-10 	2.673080803e-14 	3.776906713e-08 	-6.363969647e-13 	7.199833932e-11
0.9990482216 	3.784105152e-08 	1.456210831e-10 	2.673080803e-14 	3.776906713e-08 	-6.363969647e-13 	7.199833932e-11
