0.3176601022 	1.354782431e-07 	-1.440919683e-09 	-1.423672689e-12 	1.340613302e-07 	2.75831396e-10 	2.555581558e-10
0.3188608126 	1.312341886e-05 	-1.217331651e-06 	1.597353201e-10 	1.212304448e-05 	1.588378027e-08 	2.310989221e-08
0.3200616632 	0.0001688092415 	-4.192963712e-05 	2.513518691e-09 	0.0001348040047 	1.700080127e-07 	2.569738999e-07
0.3212624417 	0.0007486071451 	-0.0002617147244 	-2.844637767e-07 	0.0005377342123 	8.187000579e-07 	1.025070864e-06
0.3224629377 	0.001658531028 	-0.0006334876062 	-9.180020871e-07 	0.001149268618 	2.196714187e-06 	2.19082541e-06
0.3236629424 	0.002562223788 	-0.001026495576 	-2.176859879e-06 	0.001740131682 	4.311794166e-06 	3.31717463e-06
0.3255088723 	0.003008886354 	-0.001241002477 	-4.110997749e-06 	0.002026265741 	5.901562062e-06 	3.862625674e-06
0.327591533 	0.002794572853 	-0.001125324469 	-4.034279758e-06 	0.001928111595 	4.768917482e-06 	3.67551659e-06
0.3299395659 	0.002387672666 	-0.0009069585242 	-2.006383412e-06 	0.0017484718 	1.213219503e-06 	3.333073214e-06
0.3325842128 	0.002104223927 	-0.0007208183261 	-1.406089463e-06 	0.001724322347 	-2.539975209e-06 	3.287037644e-06
0.3356287836 	0.001935143636 	-0.0005231926807 	-1.476435035e-06 	0.001882412645 	-4.893932555e-06 	3.58840169e-06
0.3390846671 	0.001836175981 	-0.0003458505718 	-1.041217318e-06 	0.002130342966 	-5.622969363e-06 	4.061025792e-06
0.3429748198 	0.001772261902 	-0.000212036852 	-7.00551774e-07 	0.002383201477 	-5.38518757e-06 	4.543044392e-06
0.3473522547 	0.001719418511 	-0.0001051326985 	-5.396746054e-07 	0.002595276043 	-4.2551013e-06 	4.947317458e-06
0.3523763078 	0.001668870739 	-9.736589159e-06 	-4.119986679e-07 	0.00272612495 	-2.594776056e-06 	5.196751841e-06
0.3580735657 	0.001618292893 	7.76393514e-05 	-1.567192697e-07 	0.002757785898 	-1.495053648e-06 	5.257106408e-06
0.3666947432 	0.001567538459 	0.0001475896494 	9.861310723e-08 	0.002729088331 	-8.782496659e-07 	5.202400871e-06
0.3760330498 	0.0015239195 	0.0001898235708 	1.74536011e-07 	0.002685256398 	-5.049533542e-07 	5.118845023e-06
0.3861248366 	0.001491476085 	0.000210121786 	1.114394702e-07 	0.002648077043 	-2.3476212e-07 	5.047970838e-06
0.3969939915 	0.001467007552 	0.0002228864462 	5.288118847e-10 	0.002622833408 	-9.718926338e-10 	4.999849455e-06
0.3970449088 	0.001466927729 	0.0002229390534 	5.198731666e-10 	0.002622769893 	-1.648852419e-08 	4.999728377e-06
0.40862673 	0.001448259934 	0.0002348041236 	1.142433571e-07 	0.002607486991 	-2.059649608e-07 	4.970594917e-06
0.4212554461 	0.001434343874 	0.0002478383389 	2.365485609e-07 	0.002601077986 	-3.95401221e-07 	4.958377573e-06
0.4349065359 	0.001424466386 	0.0002624986217 	3.648647571e-07 	0.002602266108 	-5.703204332e-07 	4.960642465e-06
0.4496703284 	0.001418015947 	0.0002790175865 	4.972816427e-07 	0.002609929535 	-7.344393405e-07 	4.975251086e-06
0.465635286 	0.001414370973 	0.0002974548172 	6.299939086e-07 	0.00262293208 	-8.901802247e-07 	5.00003755e-06
0.4829304922 	0.001412970692 	0.0003177911628 	7.580964887e-07 	0.002640168979 	-1.039051064e-06 	5.03289587e-06
0.5016158678 	0.001413202477 	0.00033996828 	8.752679148e-07 	0.002660240889 	-1.181078304e-06 	5.07115851e-06
0.5217709233 	0.00141446787 	0.0003639696142 	9.746341967e-07 	0.002681668997 	-1.315450754e-06 	5.112006439e-06
0.5435505126 	0.001416209147 	0.0003900470869 	9.490997141e-07 	0.00270260626 	-1.303943988e-06 	5.151918682e-06
0.5670029 	0.001417963553 	0.0004187784243 	8.301298712e-07 	0.002720491136 	-1.186324634e-06 	5.186012226e-06
0.592242101 	0.00141935478 	0.0004505325595 	7.114300418e-07 	0.002732391514 	-1.087022065e-06 	5.208697655e-06
0.6193729967 	0.00141976116 	0.0004851893265 	5.944285585e-07 	0.002734339711 	-1.003110968e-06 	5.212411459e-06
0.6485002409 	0.001418655553 	0.0005218530748 	4.82863214e-07 	0.002721736363 	-9.302459242e-07 	5.188385976e-06
0.6776651358 	0.001416061137 	0.00055789432 	3.83030874e-07 	0.002692475835 	-8.686769147e-07 	5.132607276e-06
0.7049135212 	0.001412910457 	0.0005908813765 	2.969414535e-07 	0.002649073379 	-8.143376789e-07 	5.049870133e-06
0.7303637708 	0.001410516728 	0.0006204860078 	2.23452778e-07 	0.002595092055 	-7.593886932e-07 	4.946966725e-06
0.7541322613 	0.001410188624 	0.00064722718 	1.61083727e-07 	0.002533671834 	-6.991437489e-07 	4.829882713e-06
0.7763305871 	0.001413041124 	0.0006714447561 	1.091558185e-07 	0.002468347624 	-6.314429015e-07 	4.705356613e-06
0.7970645851 	0.001419823306 	0.0006933373161 	6.802011243e-08 	0.002402844816 	-5.573309327e-07 	4.580490055e-06
0.8164316561 	0.001431076853 	0.0007132322593 	3.790714501e-08 	0.002340617508 	-4.801568183e-07 	4.46186751e-06
0.8345233061 	0.001447344048 	0.0007317198929 	1.820824631e-08 	0.002284432322 	-4.022703273e-07 	4.354762931e-06
0.8514240754 	0.001469310174 	0.0007496039831 	8.304339208e-09 	0.002236462996 	-3.243857959e-07 	4.263320064e-06
0.8672128418 	0.001498157737 	0.0007679641416 	8.731246475e-09 	0.002198476006 	-2.466712029e-07 	4.190906302e-06
0.8819628947 	0.001536313277 	0.0007883880296 	2.023649624e-08 	0.002171935632 	-1.683801453e-07 	4.140312973e-06
0.8957424737 	0.001587918211 	0.0008129969622 	4.207520631e-08 	0.002158429048 	-8.640987548e-08 	4.114565671e-06
0.9086152595 	0.001658257267 	0.0008441091763 	7.105796372e-08 	0.002160733266 	2.433242643e-09 	4.118958149e-06
0.9206406786 	0.001752138148 	0.0008837682096 	1.009227119e-07 	0.002183772615 	9.467693035e-08 	4.162877552e-06
0.9318742292 	0.00187164838 	0.0009332183779 	1.20810527e-07 	0.002233472225 	1.702857809e-07 	4.257618822e-06
0.942367767 	0.002013075688 	0.0009916446969 	1.136116884e-07 	0.002311511634 	1.862961897e-07 	4.406383626e-06
0.952169758 	0.00215180443 	0.001049246266 	6.732384662e-08 	0.002400214281 	1.057546251e-07 	4.575475525e-06
0.9586584556 	0.002260045068 	0.001093954605 	-2.641564402e-09 	0.002472608908 	-4.082150023e-08 	4.713479806e-06
0.9644032374 	0.002336826058 	0.001124575666 	-7.17067059e-08 	0.002519936626 	-1.963927299e-07 	4.803699589e-06
0.9694892196 	0.002385313869 	0.001141896774 	-1.239349462e-07 	0.002540108611 	-3.229894027e-07 	4.842153e-06
0.9739918181 	0.002400959478 	0.001143586088 	-1.469955054e-07 	0.002527056232 	-3.878650579e-07 	4.817271536e-06
0.9779778424 	0.00237723949 	0.001126716989 	-1.393385205e-07 	0.00247436816 	-3.807602896e-07 	4.716833428e-06
0.9815064743 	0.002300876602 	0.001085936899 	-1.074212761e-07 	0.002370350258 	-3.202358334e-07 	4.518546396e-06
0.9846301336 	0.002147921565 	0.001012740155 	-7.867123434e-08 	0.002193212681 	-2.555985989e-07 	4.180872942e-06
0.9873952463 	0.001879791806 	0.0008839620204 	-8.57500774e-08 	0.001905821772 	-2.436294824e-07 	3.633025994e-06
0.9898429272 	0.001464911109 	0.0006848150192 	-1.157217048e-07 	0.001477330943 	-2.778919755e-07 	2.81620338e-06
0.9920095855 	0.0009637568984 	0.000449304768 	-1.192528147e-07 	0.000968509231 	-2.688353187e-07 	1.846247778e-06
0.9934171184 	0.0005103384528 	0.0002232976044 	-7.870105091e-08 	0.0005117288017 	-1.81064929e-07 	9.754973236e-07
0.9948247484 	0.0001926232488 	6.570830644e-05 	-2.762549765e-08 	0.0001927928584 	-7.32482687e-08 	3.675167721e-07
0.9962324756 	3.963188455e-05 	7.658245562e-06 	-2.835791769e-09 	3.960043921e-05 	-1.186188103e-08 	7.54894435e-08
0.9976403 	2.993915626e-06 	1.819999804e-07 	-9.049388414e-12 	2.988947325e-06 	-1.308706546e-10 	5.697764337e-09
0.9990482216 	2.941165991e-08 	1.878636595e-10 	1.415134513e-13 	2.935566726e-08 	1.580374382e-11 	5.596006078e-11
0.9990482216 	2.941165991e-08 	1.878636595e-10 	1.415134513e-13 	2.935566726e-08 	1.580374382e-11 	5.596006078e-11
