0.31958763 	0.00023539895 	-4.7430218e-05 	1.1981989e-07 	0.00019761429 	-2.3162281e-07 	8.5463915e-05
0.32989691 	0.0043942873 	-0.0015207706 	-4.6701439e-06 	0.0033074287 	3.4875289e-06 	0.00015075086
0.34020619 	0.0027546054 	-0.00034841946 	-3.9074374e-07 	0.0030679139 	-1.2210011e-06 	0.0012697785
0.35051546 	0.0025470701 	8.1560952e-06 	4.9175852e-07 	0.0036258784 	7.3722282e-07 	0.0011002981
0.36082474 	0.0023855974 	0.00014307313 	3.432308e-07 	0.0038859143 	1.0584052e-07 	0.00072068349
0.37113402 	0.0022420855 	0.00020869701 	6.2147269e-07 	0.003880546 	-2.0172261e-06 	0.00047984181
0.3814433 	0.0021206521 	0.00023970988 	2.0552036e-07 	0.0037586429 	-3.7646553e-06 	0.00027608046
0.39175258 	0.0020259032 	0.00025277751 	-2.0165152e-08 	0.0036253632 	-4.4573485e-06 	9.358303e-05
0.40206186 	0.0019509487 	0.0002606334 	-6.5282876e-08 	0.0035157427 	-3.7316239e-06 	8.6322856e-05
0.41237113 	0.0018908733 	0.00026816688 	-8.2168927e-09 	0.0034303867 	-1.8058691e-06 	0.00024145562
0.42268041 	0.0018421583 	0.00027765522 	6.0114524e-08 	0.0033638946 	-3.3856912e-08 	0.00032090776
0.43298969 	0.0018037523 	0.00028913383 	8.4083599e-08 	0.0033148059 	-4.1623735e-08 	0.0004344567
0.44329897 	0.0017725924 	0.00030227141 	4.9168382e-08 	0.0032772771 	-1.4784601e-06 	0.00065191872
0.45360825 	0.001745868 	0.00031630977 	2.984364e-08 	0.003245785 	-1.3198739e-08 	0.00074397515
0.46391753 	0.0017239991 	0.0003306199 	5.3383763e-07 	0.0032199919 	-2.1731188e-07 	0.00033221676
0.4742268 	0.0017063407 	0.00034673912 	7.4705324e-08 	0.0032044577 	-1.0294129e-06 	0.0010061183
0.48453608 	0.0016906899 	0.0003618594 	8.0279544e-07 	0.003185464 	-3.1269319e-07 	0.00026701645
0.49484536 	0.0016784038 	0.00037880364 	8.9289765e-08 	0.0031781912 	-3.4744801e-08 	0.0011221908
0.50515464 	0.0016673445 	0.00039415142 	7.1610301e-07 	0.003165564 	-2.7865295e-07 	0.00054701918
0.51546392 	0.0016582938 	0.00041044879 	3.8418632e-07 	0.0031602106 	-1.5561775e-07 	0.00098448375
0.5257732 	0.0016501065 	0.00042529665 	8.2442563e-07 	0.0031518625 	-3.339402e-07 	0.0005825045
0.53608247 	0.0016432171 	0.00044099689 	3.9710465e-07 	0.0031488624 	-1.7343586e-07 	0.0010981578
0.54639175 	0.0016366713 	0.00045468943 	9.2993786e-07 	0.0031407664 	-4.0615132e-07 	0.00039404808
0.55670103 	0.0016311986 	0.00047035547 	3.6782015e-08 	0.0031405937 	-1.7871676e-08 	0.0014350521
0.56701031 	0.0016254741 	0.00048272319 	1.0912852e-06 	0.0031293523 	-5.3023454e-07 	6.9275728e-06
0.57731959 	0.0016211185 	0.00049832576 	4.7002692e-08 	0.0031303933 	-2.2837707e-08 	0.0013456809
0.58762887 	0.0016160699 	0.00051116912 	5.2391989e-07 	0.0031204076 	-2.904887e-07 	0.00061457509
0.59793814 	0.0016117514 	0.00052507427 	4.3940421e-07 	0.0031141479 	-2.4362877e-07 	0.00071104303
0.60824742 	0.0016074027 	0.00053909766 	8.8583704e-09 	0.0031083164 	-1.8314553e-07 	0.0013161997
0.6185567 	0.0016029551 	0.00055165545 	7.2861027e-07 	0.0030935298 	-4.7002436e-07 	0.00010858071
0.62886598 	0.0015992945 	0.00056623688 	9.6612338e-08 	0.0030876919 	-6.2324338e-08 	0.0011280508
0.63917526 	0.0015950309 	0.00057899939 	7.3141542e-08 	0.0030746782 	-5.5263197e-08 	0.0011261764
0.64948454 	0.0015911943 	0.00059149645 	5.9524483e-07 	0.0030568448 	-4.4974623e-07 	0.0001248422
0.65979381 	0.0015876018 	0.00060605361 	1.0222382e-08 	0.0030462165 	-2.6324676e-07 	0.0012572129
0.67010309 	0.0015838872 	0.00061826136 	1.376172e-07 	0.0030273901 	-1.2066942e-07 	0.00093417415
0.68041237 	0.0015808455 	0.00063097704 	3.8679392e-07 	0.0030068342 	-3.3915964e-07 	0.0003687914
0.69072165 	0.0015777904 	0.00064504449 	4.2614852e-08 	0.0029894233 	-1.0248315e-06 	0.0012566167
0.70103093 	0.0015757322 	0.00065747386 	2.649086e-07 	0.0029651605 	-2.6086263e-07 	0.00052569375
0.71134021 	0.0015741272 	0.00067139035 	1.2372744e-07 	0.0029433748 	-1.2183774e-07 	0.00093115574
0.72164948 	0.0015734483 	0.00068499157 	2.0188735e-09 	0.0029201085 	-2.0836185e-09 	0.0012755875
0.73195876 	0.0015751747 	0.00069871302 	3.1053984e-07 	0.002892276 	-3.2049881e-07 	0.00025552449
0.74226804 	0.0015774007 	0.0007140211 	7.2348931e-08 	0.0028696178 	-9.679264e-07 	0.0013201142
0.75257732 	0.0015837155 	0.0007292706 	2.7281691e-07 	0.0028416815 	-2.5928028e-07 	0.00025174749
0.7628866 	0.0015908379 	0.00074638903 	2.4830324e-08 	0.0028192486 	-1.9927082e-07 	0.0013704213
0.77319588 	0.001604721 	0.00076459801 	1.8694024e-07 	0.002794934 	-1.2642834e-07 	0.00054588242
0.78350515 	0.0016204668 	0.00078469823 	1.9722447e-08 	0.0027753015 	-1.333836e-08 	0.0013465104
0.79381443 	0.0016456323 	0.00080720806 	1.7240273e-07 	0.0027586882 	-3.4991225e-08 	0.00061805007
0.80412371 	0.0016742356 	0.00083202381 	1.2939778e-08 	0.0027482649 	-2.6262849e-09 	0.0014602379
0.81443299 	0.0017159355 	0.00086055436 	2.2406485e-07 	0.0027450655 	8.8223038e-08 	0.00042037464
0.82474227 	0.0017629814 	0.00089233087 	1.2192958e-07 	0.0027527886 	-9.2855332e-08 	0.0016397006
0.83505155 	0.001826708 	0.00092900811 	3.0578368e-07 	0.0027704899 	2.9751594e-07 	0.00014178692
0.84536082 	0.0018997834 	0.0009708524 	4.1787982e-08 	0.0028064014 	5.9204305e-08 	0.0015821568
0.8556701 	0.001990573 	0.0010188263 	1.3083877e-07 	0.0028564996 	1.8536953e-07 	0.0012542123
0.86597938 	0.0020991104 	0.0010737248 	3.3413697e-07 	0.0029240798 	5.7098634e-07 	0.00037044064
0.87628866 	0.0022236393 	0.0011365246 	4.4937551e-08 	0.0030156967 	8.5007834e-08 	0.0019319012
0.88659794 	0.002370065 	0.001207466 	1.0480933e-07 	0.0031253245 	1.9826657e-07 	0.0018127755
0.89690722 	0.0025359602 	0.0012857016 	3.7068142e-07 	0.003251146 	7.4328401e-07 	0.00053113171
0.90721649 	0.0027189205 	0.0013715185 	3.4389757e-07 	0.003397122 	7.1452984e-07 	0.00063968315
0.91752577 	0.0029164514 	0.0014633515 	1.7932658e-07 	0.003559245 	3.819543e-07 	0.0016322507
0.92783505 	0.003121459 	0.0015570999 	7.9162744e-08 	0.0037271474 	1.6724454e-07 	0.0024201366
0.93814433 	0.0033274004 	0.0016484704 	3.3536741e-08 	0.0038808539 	7.7194236e-08 	0.002871799
0.94845361 	0.0035178618 	0.0017245485 	7.655358e-09 	0.0040067196 	6.0101374e-08 	0.0028364087
0.95876289 	0.0036865286 	0.0017452943 	-6.5893681e-08 	0.0040861386 	1.0533832e-07 	0.00014954895
0.96907216 	0.0038311008 	0.001770637 	1.6154416e-08 	0.0041206126 	4.4848061e-08 	0.00065654086
0.97938144 	0.0039125651 	0.0017950865 	6.4584856e-08 	0.004080193 	8.4194832e-08 	0.003177299
0.98969072 	0.0032992953 	0.0015409204 	5.8253572e-07 	0.0033242666 	1.1521947e-06 	0.0004490032
