0 	0.52014928 	-3.5325912e-14 	-1.2840026e-20
0.010869565 	0.52146065 	-0.00092730427 	3.058157e-07
0.02173913 	0.5252278 	-0.0018249861 	1.1315196e-07
0.032608696 	0.53142052 	-0.0027060251 	4.913285e-08
0.043478261 	0.53999468 	-0.0035589197 	4.8050407e-07
0.054347826 	0.55076982 	-0.0043851284 	2.3335041e-06
0.065217391 	0.56447877 	-0.0052118091 	2.569971e-06
0.076086957 	0.57827867 	-0.0059046847 	3.7242426e-06
0.086956522 	0.59416715 	-0.0065770834 	1.3377104e-07
0.097826087 	0.61192322 	-0.0071676256 	5.3035901e-07
0.10869565 	0.63134102 	-0.0076490425 	6.0045117e-06
0.11956522 	0.65091076 	-0.0080688403 	2.9081666e-06
0.13043478 	0.67159674 	-0.0085045193 	1.8041958e-06
0.14130435 	0.69379978 	-0.008917755 	1.0197901e-05
0.15217391 	0.71499742 	-0.0092624947 	4.1329623e-07
0.16304348 	0.73889112 	-0.0095125506 	1.0568563e-05
0.17391304 	0.76148839 	-0.009697648 	2.2823283e-06
0.18478261 	0.78619998 	-0.0098208064 	9.3442377e-06
0.19565217 	0.80976496 	-0.0098883957 	1.3468173e-06
0.20652174 	0.83523458 	-0.0098775159 	9.230606e-06
0.2173913 	0.85910405 	-0.0098248561 	2.7367917e-06
0.22826087 	0.8849494 	-0.009696483 	1.0337503e-05
0.23913043 	0.90850839 	-0.0095367174 	1.9984355e-06
0.25 	0.9332078 	-0.0093186534 	5.3448055e-06
0.26086957 	0.95665477 	-0.0090708404 	2.8870566e-06
0.27173913 	0.97936579 	-0.0088355008 	1.6936945e-06
0.2826087 	1.0017832 	-0.0086270689 	7.7016631e-06
0.29347826 	1.0221734 	-0.0083971777 	5.6342198e-06
0.30434783 	1.0419662 	-0.0081458405 	1.6145649e-06
0.31521739 	1.0605281 	-0.0078720398 	4.3908941e-06
0.32608696 	1.0774465 	-0.0076026776 	1.275143e-05
0.33695652 	1.0936131 	-0.0073496797 	1.8604653e-06
0.34782609 	1.1083314 	-0.0071056324 	3.184945e-06
0.35869565 	1.1215445 	-0.0068914368 	1.2108521e-05
0.36956522 	1.1342657 	-0.0067036843 	2.8000091e-07
0.38043478 	1.145524 	-0.0065689929 	3.7731551e-06
0.39130435 	1.155433 	-0.0064051248 	8.7708011e-06
0.40217391 	1.16475 	-0.0062302894 	5.3652052e-06
0.41304348 	1.1732629 	-0.0060454175 	4.6900761e-06
0.42391304 	1.1804076 	-0.0058443901 	3.0889463e-06
0.43478261 	1.1864287 	-0.0056556347 	1.4030473e-05
0.44565217 	1.1924498 	-0.0054668792 	2.2025281e-07
0.45652174 	1.1969831 	-0.0052981001 	2.3505324e-06
0.4673913 	1.2004067 	-0.0051212862 	8.5679738e-06
0.47826087 	1.2033277 	-0.0049456401 	1.11088e-05
0.48913043 	1.2061342 	-0.0047710864 	4.742831e-07
0.5 	1.20766 	-0.0045983252 	9.8396204e-07
0.51086957 	1.2082941 	-0.0044235079 	1.0273403e-05
0.52173913 	1.2087483 	-0.0042508172 	9.4081039e-06
0.5326087 	1.2090377 	-0.0040815806 	7.8946452e-07
0.54347826 	1.2083435 	-0.0039134019 	6.2436171e-07
0.55434783 	1.2069595 	-0.0037396109 	1.2019904e-05
0.56521739 	1.2055754 	-0.00356582 	5.6439887e-06
0.57608696 	1.2038438 	-0.0034010026 	2.3419785e-06
0.58695652 	1.2013257 	-0.0032200569 	5.4802215e-06
0.59782609 	1.1985336 	-0.0030432652 	9.6907758e-06
0.60869565 	1.1957291 	-0.0028669292 	1.0367637e-07
0.61956522 	1.1921486 	-0.0026939692 	1.9386742e-06
0.63043478 	1.1880952 	-0.0025153417 	1.1137265e-05
0.64130435 	1.1840419 	-0.0023367142 	1.6820386e-06
0.65217391 	1.1793926 	-0.0021614472 	8.0187144e-07
0.66304348 	1.1740553 	-0.0019806235 	1.0435465e-05
0.67391304 	1.1687181 	-0.0017997999 	1.4400096e-06
0.68478261 	1.1626727 	-0.0016221178 	1.6283904e-06
0.69565217 	1.1559621 	-0.0014379401 	8.3033489e-06
0.70652174 	1.1492157 	-0.0012550392 	2.8933758e-07
0.7173913 	1.1414055 	-0.0010695171 	4.142354e-06
0.72826087 	1.1332105 	-0.0008810962 	4.598175e-06
0.73913043 	1.1246536 	-0.00069716501 	3.9420233e-07
0.75 	1.1149041 	-0.00050720444 	7.9791659e-06
0.76086957 	1.1050779 	-0.00031946591 	2.2596273e-07
0.77173913 	1.0939402 	-0.00012864238 	4.721882e-06
0.7826087 	1.0824242 	6.6919866e-05 	1.7033598e-06
0.79347826 	1.0698639 	0.00026326709 	2.7431425e-06
0.80434783 	1.0564758 	0.00045987283 	2.5370538e-06
0.81521739 	1.0421291 	0.00064524935 	1.934877e-06
0.82608696 	1.0267011 	0.00082913636 	2.0457894e-06
0.83695652 	1.0101616 	0.0010021016 	2.1226864e-06
0.84782609 	0.9926102 	0.0011675003 	6.9990489e-07
0.85869565 	0.97359861 	0.0013164105 	3.0082636e-06
0.86956522 	0.95390328 	0.0014623017 	3.8126607e-07
0.88043478 	0.93225719 	0.0015961572 	1.9863226e-06
0.89130435 	0.90967333 	0.0016942228 	3.5074647e-07
0.90217391 	0.88573313 	0.0017399031 	3.2759679e-08
0.91304348 	0.85970975 	0.001729129 	-4.0947866e-07
0.92391304 	0.83293571 	0.0016950088 	-1.4042028e-06
0.93478261 	0.80412157 	0.001600517 	-1.3622349e-06
0.94565217 	0.76999862 	0.001405987 	-2.7847412e-06
0.95652174 	0.73340508 	0.0011636812 	-1.5021278e-07
0.9673913 	0.68854605 	0.00085187316 	-1.2776939e-06
0.97826087 	0.62587818 	0.00048012333 	-9.7169447e-08
0.98913043 	0.4910237 	8.7537612e-05 	-2.4821233e-08
