0.43820225 	0.0038439933 	-0.0018070942 	-1.4716479e-06 	0.0045517006 	3.1322137e-06 	0.0029176499
0.4494382 	0.007864422 	-0.003822193 	-3.4843523e-07 	0.0091216172 	2.4302603e-06 	0.0012463672
0.46067416 	0.0076515616 	-0.0036178287 	-2.3179197e-07 	0.0085672099 	1.2442171e-06 	0.0013249891
0.47191011 	0.0072043923 	-0.00332722 	-2.0426258e-08 	0.0078024579 	9.1634714e-08 	0.0038897849
0.48314607 	0.0067406903 	-0.0030322867 	9.9242857e-07 	0.0070805582 	-2.3396301e-06 	0.0039859301
0.49438202 	0.0062531994 	-0.0027360691 	-7.1781624e-08 	0.0063598686 	-2.0846622e-07 	0.00096140912
0.50561798 	0.0057648966 	-0.0024523867 	-7.5121932e-08 	0.0056781501 	-2.0916384e-07 	0.0012416057
0.51685393 	0.0052743039 	-0.0021752643 	-2.921384e-08 	0.0050315042 	-6.4097144e-08 	0.0020149862
0.52808989 	0.0047879667 	-0.0019021029 	-1.7816769e-08 	0.0044150483 	-2.9688344e-08 	0.0018662814
0.53932584 	0.0043156329 	-0.0016326264 	-8.8240338e-08 	0.0038357865 	-1.1291061e-07 	0.0011274508
0.5505618 	0.0038706769 	-0.0013659576 	-2.839082e-07 	0.0033055535 	-2.9193471e-07 	9.1585597e-05
0.56179775 	0.0034709709 	-0.001103784 	-6.5666621e-09 	0.0028424698 	-5.9806529e-09 	0.0012800421
0.57303371 	0.0031359213 	-0.00085233681 	3.3699649e-06 	0.0024508687 	-5.3440587e-06 	0.0010731894
0.58426966 	0.0028656227 	-0.00061226926 	3.1150922e-06 	0.0021217934 	-4.1891242e-06 	0.0008913856
0.59550562 	0.0026637176 	-0.00038600446 	-1.5779566e-07 	0.0018493679 	-1.7225336e-07 	0.00039241534
0.60674157 	0.0025546145 	-0.00017772788 	1.5824944e-06 	0.0016491546 	-1.7151236e-06 	0.00074066261
0.61797753 	0.0025201426 	1.362553e-05 	3.2251367e-06 	0.0015028637 	-2.4511278e-06 	0.00068462125
0.62921348 	0.0025369978 	0.00019252988 	-2.9829261e-07 	0.001399438 	-5.0368278e-07 	5.790554e-05
0.64044944 	0.0026130969 	0.0003533216 	3.0865738e-06 	0.0013592154 	-1.1400794e-06 	0.00066620289
0.65168539 	0.0027099347 	0.00050169607 	3.4201964e-07 	0.0013469863 	6.9360369e-08 	0.00069347913
0.66292135 	0.0028273305 	0.00063043964 	1.5046261e-06 	0.0013950488 	3.0513283e-07 	0.00069266062
0.6741573 	0.0029477246 	0.00074071871 	8.4180985e-07 	0.0014830899 	8.845755e-07 	0.0007388454
0.68539326 	0.0030808088 	0.00084392701 	9.3563186e-07 	0.0016033577 	9.8316385e-07 	0.00074634881
0.69662921 	0.0032226525 	0.00094147405 	7.7432501e-07 	0.0017469588 	1.2910534e-06 	0.0008195565
0.70786517 	0.0033767039 	0.001037352 	1.105817e-06 	0.0019096788 	1.843759e-06 	0.00083608351
0.71910112 	0.0035447997 	0.0011385056 	3.7231529e-07 	0.0020841025 	6.867681e-07 	0.00094202079
0.73033708 	0.0037292871 	0.0012428558 	1.5311739e-06 	0.0022763227 	2.8243842e-06 	0.0009684084
0.74157303 	0.0039244953 	0.0013524136 	-8.5473631e-09 	0.0024790193 	-1.5503576e-08 	0.001078522
0.75280899 	0.0041416695 	0.0014689372 	1.5820645e-06 	0.0027055537 	3.1157096e-06 	0.0011408878
0.76404494 	0.0043677697 	0.001590281 	1.1531368e-07 	0.002942486 	2.3703287e-07 	0.0013048426
0.7752809 	0.0046141073 	0.0017181494 	1.0070436e-06 	0.0032004262 	2.070027e-06 	0.0013518495
0.78651685 	0.0048734185 	0.0018523036 	9.147054e-07 	0.0034728151 	1.9325437e-06 	0.001545608
0.79775281 	0.0051467879 	0.0019906261 	-3.3416466e-08 	0.0037586639 	-1.2478338e-07 	0.0012923482
0.80898876 	0.0054360821 	0.0021365167 	2.4068037e-06 	0.0040628665 	5.1814816e-06 	0.0018246613
0.82022472 	0.0057302771 	0.0022832258 	-5.8076821e-08 	0.0043712592 	-2.8694641e-07 	0.0011305381
0.83146067 	0.0060359671 	0.002435071 	2.6345005e-07 	0.0046939564 	5.7559531e-07 	0.0021365942
0.84269663 	0.0063405264 	0.0025865104 	1.917253e-06 	0.0050181626 	4.2536173e-06 	0.002387784
0.85393258 	0.0066428748 	0.0027372696 	-4.3888443e-09 	0.0053436423 	-4.043221e-08 	0.0024702635
0.86516854 	0.006937962 	0.0028843737 	-3.9346583e-08 	0.0056637215 	-5.0806112e-07 	0.00048659789
0.87640449 	0.0072319712 	0.0030333475 	-1.1381721e-09 	0.0059966155 	-8.9934945e-09 	0.0029524223
0.88764045 	0.0075096883 	0.0031695602 	5.8293504e-07 	0.0063306893 	1.6208913e-06 	0.003259822
0.8988764 	0.0077774441 	0.0032946885 	8.0340552e-07 	0.0066742567 	2.4788745e-06 	0.0035202015
0.91011236 	0.0080419276 	0.0034236714 	8.2690773e-07 	0.0070181779 	2.476609e-06 	0.0037831402
0.92134831 	0.0082990719 	0.003550314 	5.6642447e-07 	0.0073618118 	1.7502465e-06 	0.0040453687
0.93258427 	0.0085441519 	0.0036750283 	1.2304898e-07 	0.0077034779 	3.8624244e-07 	0.0043053334
0.94382022 	0.0087671708 	0.0037945318 	1.3365819e-07 	0.0080303588 	-6.5900614e-08 	0.0015719222
0.95505618 	0.0089589521 	0.0039149041 	4.4007677e-08 	0.0083380242 	6.1507534e-09 	0.0041286799
0.96629213 	0.009043102 	0.0039635452 	3.4400719e-07 	0.0085592492 	2.3281158e-07 	0.00025464108
0.97752809 	0.008870447 	0.00392786 	-1.2232515e-07 	0.0085565769 	-2.1967932e-07 	0.0052019126
0.98876404 	0.0072819324 	0.0032797192 	-1.1500345e-06 	0.0071933478 	-2.5165668e-06 	0.0044828536
