0.4742268 	0.0019598998 	-0.00070580536 	2.1776331e-08 	0.0019643407 	-5.1479064e-08 	0.00057662935
0.48453608 	0.0095169473 	-0.0043245203 	1.6013649e-08 	0.0094921233 	-2.6624358e-08 	0.003262903
0.49484536 	0.0089328387 	-0.0040756647 	2.0193801e-06 	0.0088826588 	-4.7564934e-06 	0.0041759479
0.50515464 	0.0076307563 	-0.0035161391 	-5.8206196e-08 	0.0075586393 	1.3501152e-07 	0.0029725633
0.51546392 	0.0062046993 	-0.0028664917 	6.4137576e-07 	0.0061280059 	-1.3766657e-06 	0.002773875
0.5257732 	0.0047610291 	-0.0021713865 	6.3126399e-06 	0.0046760645 	-1.2005983e-05 	0.0022359569
0.53608247 	0.0035573635 	-0.0014750303 	1.6581603e-06 	0.0035005296 	-2.7055741e-06 	0.0017388042
0.54639175 	0.0027315464 	-0.00093219202 	-5.1760124e-08 	0.0026991318 	6.2854979e-08 	0.0012228914
0.55670103 	0.0022840114 	-0.00055624134 	-5.4011509e-08 	0.0022641635 	3.9932126e-08 	0.00095812869
0.56701031 	0.0020899695 	-0.0003019289 	3.1059252e-07 	0.002085403 	-2.2264531e-07 	0.00098264074
0.57731959 	0.0020292936 	-0.0001098717 	1.2790216e-06 	0.0020385282 	-4.1140726e-07 	0.00094504182
0.58762887 	0.0020229966 	4.5195826e-05 	1.6761394e-06 	0.0020464087 	-1.5430316e-07 	0.00094443597
0.59793814 	0.0020402775 	0.00017429494 	9.9115992e-08 	0.0020756673 	1.4824167e-09 	0.00095993812
0.60824742 	0.0020687918 	0.00028383304 	-1.7641668e-07 	0.0021128038 	-1.6938562e-07 	2.7864439e-05
0.6185567 	0.0020998182 	0.0003785303 	2.9668145e-07 	0.0021546043 	1.5748592e-08 	0.00098234058
0.62886598 	0.002132355 	0.00046304837 	7.3072052e-07 	0.0021946855 	2.769284e-08 	0.0010075655
0.63917526 	0.0021646141 	0.00053938438 	-1.0617545e-07 	0.0022317574 	-1.3598289e-07 	0.00020214934
0.64948454 	0.0021947084 	0.00060672276 	4.2428208e-07 	0.0022686688 	-8.1681743e-09 	0.0010335405
0.65979381 	0.0022239678 	0.00066855949 	7.7815658e-08 	0.0023023545 	-9.0217249e-09 	0.0010589489
0.67010309 	0.0022512556 	0.00072398854 	-2.2621475e-08 	0.0023325212 	-3.4710479e-08 	0.00076853152
0.68041237 	0.0022773392 	0.00077454351 	4.2326433e-07 	0.0023618383 	-1.0280738e-07 	0.0010835731
0.69072165 	0.0023026506 	0.00082142056 	-3.5217791e-08 	0.0023877498 	-5.9766017e-08 	0.00039849779
0.70103093 	0.0023271675 	0.0008644933 	4.7007277e-07 	0.0024148159 	-1.7121174e-07 	0.0011079207
0.71134021 	0.0023522115 	0.00090538576 	-1.8440545e-08 	0.0024389664 	-3.73097e-08 	0.00037473876
0.72164948 	0.0023775269 	0.00094369258 	3.5134293e-07 	0.0024656359 	-1.4853631e-07 	0.001133775
0.73195876 	0.002404118 	0.00098025547 	-4.1738639e-11 	0.0024906791 	-5.4657473e-09 	0.00067495484
0.74226804 	0.0024335815 	0.001016717 	1.8808086e-07 	0.0025198635 	-4.8780094e-08 	0.0011634001
0.75257732 	0.0024650632 	0.001051827 	3.2282932e-09 	0.0025493357 	3.849814e-09 	0.0010172569
0.7628866 	0.0025020305 	0.0010881225 	9.2550104e-08 	0.0025843073 	1.341787e-08 	0.0011986135
0.77319588 	0.0025429252 	0.0011245593 	3.376392e-09 	0.0026223682 	5.2017234e-09 	0.0011151416
0.78350515 	0.0025910208 	0.0011627338 	1.3654694e-07 	0.00266769 	8.4349141e-08 	0.0012407347
0.79381443 	0.0026450375 	0.001201791 	2.1554628e-08 	0.0027175952 	3.7104052e-08 	0.00085083915
0.80412371 	0.0027089752 	0.0012442005 	3.6217117e-07 	0.0027784535 	3.7580126e-07 	0.0012916257
0.81443299 	0.0027811259 	0.0012884628 	8.2363871e-08 	0.0028434931 	1.4586627e-07 	0.00012644068
0.82474227 	0.002867042 	0.0013379996 	4.0012058e-07 	0.0029259512 	5.7617647e-07 	0.0013531204
0.83505155 	0.0029653819 	0.0013888257 	5.9545303e-09 	0.0030181427 	1.157753e-08 	0.0013485727
0.84536082 	0.0030817095 	0.0014437762 	6.3117923e-08 	0.0031268371 	1.3306746e-07 	0.00073518367
0.8556701 	0.0032209917 	0.0015072288 	5.6222358e-07 	0.0032603704 	1.1605082e-06 	0.001513879
0.86597938 	0.0033855222 	0.0015818045 	2.6679568e-07 	0.0034162683 	5.5289617e-07 	0.0016192304
0.87628866 	0.0035826247 	0.0016706959 	1.5054053e-07 	0.0036011888 	3.1710152e-07 	0.00047860314
0.88659794 	0.0038211308 	0.0017792844 	1.1588859e-07 	0.0038296308 	2.450436e-07 	0.00095322558
0.89690722 	0.0041105958 	0.0019115352 	2.0556728e-07 	0.0041091464 	4.3169516e-07 	0.001894239
0.90721649 	0.0044632156 	0.0020726527 	8.6489905e-07 	0.0044498071 	1.8254365e-06 	0.0020684446
0.91752577 	0.0048858888 	0.0022664597 	1.2383474e-06 	0.0048611007 	2.6266969e-06 	0.0022681061
0.92783505 	0.0053833145 	0.0024954838 	1.0355295e-06 	0.0053490571 	2.2071418e-06 	0.0024897724
0.93814433 	0.005947601 	0.0027567718 	2.3730087e-08 	0.0059094001 	5.1048795e-08 	0.0027255221
0.94845361 	0.0065522464 	0.0030367843 	2.9430094e-07 	0.0065092224 	6.3473577e-07 	0.00039574059
0.95876289 	0.0071591451 	0.0033127296 	3.4109052e-07 	0.0071196561 	9.0444956e-07 	0.0033978013
0.96907216 	0.0076729918 	0.0034992073 	1.0822895e-07 	0.0076458317 	2.9743372e-07 	0.00099121403
0.97938144 	0.0079506854 	0.0036001969 	-1.3279713e-08 	0.0079350512 	-3.36465e-09 	0.0037267491
0.98969072 	0.0069122234 	0.0031588441 	-9.1367713e-07 	0.006924567 	-2.087708e-06 	0.0033126319
