0.47777778 	0.76198094 	0.00053688514 	-1.6778199e-09
0.48888889 	1.0439437 	9.7379069e-05 	8.839778e-08
0.5 	1.1600656 	0.00017070094 	1.8107659e-07
0.51111111 	1.234328 	0.00025715541 	9.5289315e-07
0.52222222 	1.2883098 	0.00036857987 	9.4761233e-08
0.53333333 	1.3304935 	0.00046032367 	1.2007684e-06
0.54444444 	1.3649782 	0.00056624089 	1.19963e-06
0.55555556 	1.3933735 	0.00068336593 	1.1098586e-06
0.56666667 	1.41674 	0.00080938018 	1.046996e-06
0.57777778 	1.4356524 	0.00091304753 	9.659519e-07
0.58888889 	1.4503131 	0.00098543699 	7.4493835e-07
0.6 	1.4609527 	0.001024996 	1.4221944e-09
0.61111111 	1.4680647 	0.0010358074 	-2.250115e-07
0.62222222 	1.4720769 	0.0010248126 	-2.3029733e-08
0.63333333 	1.4733794 	0.00099616259 	-7.4728557e-07
0.64444444 	1.4734692 	0.00095837928 	-1.1668488e-06
0.65555556 	1.4726353 	0.00091376546 	-2.62901e-08
0.66666667 	1.4707298 	0.0008626124 	-1.3467157e-06
0.67777778 	1.4683907 	0.00080858701 	-9.3344673e-07
0.68888889 	1.4655057 	0.00075091457 	-5.8763857e-07
0.7 	1.4620534 	0.00069057002 	-1.7963626e-06
0.71111111 	1.4583307 	0.0006289324 	-1.2070763e-07
0.72222222 	1.453974 	0.00056854315 	-2.1116531e-06
0.73333333 	1.4494889 	0.00050890801 	-4.3606381e-08
0.74444444 	1.4442421 	0.00045120846 	-2.0309735e-06
0.75555556 	1.4388802 	0.00039354179 	1.6234284e-12
0.76666667 	1.432585 	0.00033407911 	-2.1098831e-06
0.77777778 	1.4261103 	0.00027427519 	8.3597769e-09
0.78888889 	1.4186246 	0.00022671273 	-1.2750221e-06
0.8 	1.4107212 	0.00018741957 	-2.4247469e-07
0.81111111 	1.4018265 	0.00015748548 	-3.1245698e-07
0.82222222 	1.3917949 	0.00012615461 	-8.4735018e-07
0.83333333 	1.380875 	9.3812688e-05 	-6.2956684e-08
0.84444444 	1.3683311 	7.1313947e-05 	-1.5779948e-07
0.85555556 	1.3542433 	6.2390016e-05 	-1.3575265e-07
0.86666667 	1.3387253 	5.9785872e-05 	1.2154504e-08
0.87777778 	1.3215599 	6.1608484e-05 	-1.1928666e-08
0.88888889 	1.3025147 	5.8982744e-05 	4.4675031e-09
0.9 	1.2812815 	6.1338897e-05 	2.1952491e-08
0.91111111 	1.2574931 	7.6846395e-05 	2.2569e-08
0.92222222 	1.2303889 	7.7649371e-05 	1.8373206e-10
0.93333333 	1.1987188 	7.0822487e-05 	2.956133e-08
0.94444444 	1.1610541 	6.5992222e-05 	-4.4277807e-07
0.95555556 	1.1150934 	4.5966931e-05 	-6.9642957e-09
0.96666667 	1.0550619 	6.1735244e-05 	-4.1806402e-07
0.97777778 	0.96373996 	2.9197547e-05 	-8.4247316e-08
0.98888889 	0.78154977 	-0.00017194886 	-2.8140983e-06
