0.37113402 	0.0034448486 	-0.0012519952 	-3.3809847e-06 	0.0027230043 	5.8961445e-06 	0.0023649485
0.3814433 	0.0048144792 	-0.0018417845 	-2.6832479e-06 	0.0038245871 	4.1413466e-06 	0.0015779739
0.39175258 	0.0026450996 	-0.00053152505 	-7.0273193e-07 	0.0026731466 	-8.0139177e-07 	0.0016598614
0.40206186 	0.0024246297 	-0.00010755771 	-1.9417793e-07 	0.003120395 	-8.377166e-07 	0.0015222762
0.41237113 	0.0023479863 	9.8914513e-05 	-7.3998612e-07 	0.0034671742 	-4.107639e-06 	0.00023858008
0.42268041 	0.0022647918 	0.00024596402 	-1.1334918e-07 	0.0036851225 	-7.9946478e-07 	0.00089730094
0.43298969 	0.0021703673 	0.00035907983 	2.734035e-07 	0.0037865003 	-1.543786e-07 	0.00090770616
0.44329897 	0.0020962213 	0.00041997937 	2.2454024e-07 	0.0037404756 	-9.1773876e-07 	0.00073991361
0.45360825 	0.0020344227 	0.00045240888 	5.2527078e-08 	0.0036625789 	-9.4657209e-07 	0.00057610696
0.46391753 	0.0019843863 	0.00047007249 	1.4433164e-09 	0.0035855688 	-2.6121947e-07 	0.00042327992
0.4742268 	0.0019428413 	0.0004833919 	1.5069836e-07 	0.0035204207 	-8.2212494e-08 	7.4797125e-05
0.48453608 	0.0019099212 	0.00049653809 	6.6109963e-09 	0.0034714205 	-1.5282889e-06 	0.00015668101
0.49484536 	0.0018823104 	0.00051077627 	6.0698156e-08 	0.0034294948 	-3.0444053e-06 	3.7114189e-05
0.50515464 	0.0018583869 	0.00052555118 	2.2353446e-08 	0.0033936203 	-7.7284562e-07 	9.3096056e-05
0.51546392 	0.0018391196 	0.00054072732 	2.9041507e-08 	0.0033649211 	-1.0040779e-06 	0.00020264518
0.5257732 	0.00182283 	0.00055555677 	5.7515465e-08 	0.0033402897 	-2.0378394e-06 	0.0003060308
0.53608247 	0.0018081036 	0.00056999098 	2.3974043e-07 	0.0033162414 	-1.2798638e-07 	1.2594716e-05
0.54639175 	0.0017962058 	0.00058379386 	3.7395152e-08 	0.0033000071 	-1.9355536e-06 	0.00049401174
0.55670103 	0.0017847353 	0.00059679175 	1.339177e-07 	0.0032813579 	-7.424539e-08 	0.00035084898
0.56701031 	0.0017749244 	0.00060923595 	7.872358e-09 	0.0032674696 	-1.3271791e-06 	0.00065833204
0.57731959 	0.0017652176 	0.00062072301 	1.7932741e-07 	0.0032507168 	-1.0541614e-07 	0.000404939
0.58762887 	0.0017566322 	0.00063211405 	-7.227043e-09 	0.0032382895 	-1.280069e-06 	0.00080011932
0.59793814 	0.0017478517 	0.00064247426 	3.3304822e-07 	0.0032206034 	-2.119323e-07 	0.000203968
0.60824742 	0.0017399749 	0.00065311921 	-2.3609328e-08 	0.0032090198 	-1.7024297e-06 	0.00092061111
0.6185567 	0.001731871 	0.0006628915 	3.316673e-07 	0.003190569 	-2.3237621e-07 	0.00025442595
0.62886598 	0.001724202 	0.00067274257 	-1.0821066e-08 	0.003177362 	-5.6016805e-07 	0.0010211819
0.63917526 	0.0017168313 	0.0006825284 	5.2197012e-08 	0.0031603264 	-4.0683681e-08 	0.00093248933
0.64948454 	0.0017090633 	0.00069130095 	2.1320251e-07 	0.0031396147 	-1.6617547e-07 	0.00058764356
0.65979381 	0.0017020969 	0.00070067334 	-3.3161692e-08 	0.0031228386 	-1.3403336e-06 	0.001126234
0.67010309 	0.0016950805 	0.00070915969 	3.040769e-07 	0.003098903 	-2.6228976e-07 	0.00033718353
0.68041237 	0.0016879527 	0.00071813209 	1.5518376e-08 	0.0030794391 	-1.3385795e-08 	0.0011365125
0.69072165 	0.0016818885 	0.00072724987 	-4.4333746e-09 	0.0030572375 	-1.7843494e-07 	0.0011899881
0.70103093 	0.0016761131 	0.00073519524 	3.2470809e-07 	0.0030289523 	-3.0247821e-07 	0.00022629604
0.71134021 	0.0016705961 	0.00074474623 	-1.8928345e-08 	0.0030064265 	-1.1504307e-06 	0.0012148909
0.72164948 	0.0016668539 	0.00075376866 	2.0686621e-07 	0.0029781547 	-1.9789809e-07 	0.00052313581
0.73195876 	0.0016635113 	0.00076344923 	1.8262447e-08 	0.0029526391 	-1.7470729e-08 	0.0011632329
0.74226804 	0.0016628147 	0.00077412692 	3.6440701e-08 	0.002925671 	-3.2863985e-08 	0.0010853054
0.75257732 	0.0016646859 	0.00078515165 	1.4105023e-07 	0.0028975257 	-1.2720591e-07 	0.00070156027
0.7628866 	0.0016689169 	0.00079805346 	1.4117668e-08 	0.0028730291 	-3.6028177e-07 	0.0012113809
0.77319588 	0.0016783097 	0.00081198557 	1.9038726e-07 	0.0028471742 	-1.4151034e-07 	0.00046109602
0.78350515 	0.0016911699 	0.00082845817 	5.2410925e-08 	0.0028275586 	-4.8644525e-07 	0.0011985372
0.79381443 	0.0017115066 	0.00084687763 	1.7264157e-07 	0.0028090894 	-8.2685765e-08 	0.00048739787
0.80412371 	0.001737496 	0.00086859532 	6.2233963e-08 	0.0027989021 	-2.5553406e-07 	0.0011844246
0.81443299 	0.0017737494 	0.0008935734 	8.2650372e-08 	0.0027947906 	-1.1178826e-08 	0.00084279005
0.82474227 	0.0018188425 	0.00092262689 	3.8554304e-08 	0.0028003705 	9.1553514e-09 	0.0010101211
0.83505155 	0.0018778004 	0.00095702729 	1.7866606e-07 	0.0028196828 	-5.44422e-08 	0.0011946978
0.84536082 	0.0019495485 	0.00099606744 	2.4453795e-07 	0.0028489928 	1.4288572e-07 	0.00012795588
0.8556701 	0.0020371885 	0.0010428084 	2.9078864e-07 	0.0029004294 	1.4752531e-07 	0.0011954712
0.86597938 	0.0021426551 	0.0010962802 	1.5608897e-07 	0.0029681125 	1.5603906e-07 	0.0012363223
0.87628866 	0.0022657486 	0.0011564656 	2.6517488e-07 	0.0030512233 	2.8654567e-07 	6.1297416e-06
0.88659794 	0.0024091635 	0.0012265097 	6.7520107e-08 	0.0031615975 	8.7534568e-08 	0.0012438075
0.89690722 	0.0025729805 	0.0013042307 	8.5871964e-07 	0.0032895854 	1.2598822e-06 	0.0012910972
0.90721649 	0.0027521737 	0.0013880718 	5.3971003e-07 	0.0034320999 	8.4389705e-07 	0.001336118
0.91752577 	0.0029435341 	0.0014763626 	1.0806838e-07 	0.0035861688 	1.7316225e-07 	0.0013730919
0.92783505 	0.0031408386 	0.0015657984 	2.2215292e-08 	0.0037424347 	2.708839e-08 	0.001191254
0.93814433 	0.0033379248 	0.001652636 	1.3096847e-08 	0.003885201 	1.3102495e-08 	0.0012240085
0.94845361 	0.0035256926 	0.001714604 	2.9449033e-08 	0.0040029324 	9.9357744e-08 	0.0013990957
0.95876289 	0.0036960828 	0.0017399484 	4.3882971e-08 	0.0040878265 	2.3114599e-07 	0.001369362
0.96907216 	0.0038738118 	0.001785113 	2.5190213e-07 	0.0041472014 	5.9264138e-08 	0.0013502625
0.97938144 	0.0040649845 	0.0018726729 	2.8484546e-07 	0.0042108518 	4.5836069e-07 	0.00014609839
0.98969072 	0.0036801496 	0.0017196631 	-1.7963215e-06 	0.0037073747 	-4.0702904e-06 	0.0011706727
