0.47777778 	0.0072547061 	-0.0033285287 	-2.2296554e-06 	0.0072712343 	5.1815725e-06 	0.0011656977
0.48888889 	0.0092416729 	-0.0041713075 	3.4364707e-09 	0.0092935585 	-4.9027995e-09 	0.0015502443
0.5 	0.0088623052 	-0.0040012611 	1.4429597e-07 	0.0089189981 	-3.2152209e-07 	0.001634046
0.51111111 	0.00821386 	-0.0037353913 	1.0662116e-06 	0.0082596955 	-2.5112409e-06 	0.001640809
0.52222222 	0.0074756102 	-0.0034009087 	1.5919871e-06 	0.0075207421 	-3.5495604e-06 	0.0015263588
0.53333333 	0.0067106224 	-0.0030528341 	5.5512282e-06 	0.0067450423 	-1.2281427e-05 	0.0014771955
0.54444444 	0.0059476764 	-0.0027000495 	2.9086349e-06 	0.0059733324 	-6.328418e-06 	0.0013977979
0.55555556 	0.0052056125 	-0.0023476123 	1.4116074e-06 	0.0052215944 	-3.0050972e-06 	0.0012919229
0.56666667 	0.0045038054 	-0.0019955876 	1.1091407e-06 	0.0045098529 	-2.2380558e-06 	0.0011641963
0.57777778 	0.0038657985 	-0.0016445054 	1.9907169e-06 	0.0038651666 	-3.6689154e-06 	0.0010227725
0.58888889 	0.0033131486 	-0.001305991 	3.8897092e-06 	0.003308938 	-6.4362432e-06 	0.00088001081
0.6 	0.0028582041 	-0.00099294871 	6.1310415e-06 	0.0028524014 	-8.8772649e-06 	0.0007497576
0.61111111 	0.0025038203 	-0.00071165828 	2.2970695e-06 	0.0024976243 	-2.730139e-06 	0.00064710507
0.62222222 	0.0022517423 	-0.00046537361 	-1.2272065e-08 	0.0022439837 	6.834296e-08 	0.0001837032
0.63333333 	0.0021085639 	-0.00025638797 	1.4532381e-06 	0.0021005974 	-1.1910435e-06 	0.00058949398
0.64444444 	0.0020447433 	-6.8051101e-05 	3.5235166e-06 	0.0020351572 	-1.3040649e-06 	0.00056516783
0.65555556 	0.0020312766 	0.00010862592 	1.7471791e-08 	0.0020184227 	-7.167626e-09 	0.0003555738
0.66666667 	0.0020721713 	0.00026926791 	1.721246e-06 	0.0020555758 	4.977507e-08 	0.00057796216
0.67777778 	0.0021407277 	0.00042114603 	1.6923783e-06 	0.0021198779 	6.0271285e-07 	0.00061171446
0.68888889 	0.0022310398 	0.00056713297 	1.2105293e-08 	0.0022045985 	-7.4101078e-09 	0.00054332023
0.7 	0.0023460504 	0.00070478959 	2.9095254e-06 	0.0023151433 	1.8715156e-06 	0.00066314683
0.71111111 	0.0024732106 	0.00084173428 	9.3262686e-08 	0.0024346791 	-4.3655534e-08 	0.00019102147
0.72222222 	0.0026168699 	0.00097071855 	3.277122e-06 	0.0025746176 	3.00853e-06 	0.00072881786
0.73333333 	0.0027702341 	0.0010996603 	1.1123005e-07 	0.0027207812 	-3.2808595e-08 	0.00017517229
0.74444444 	0.0029422472 	0.001226353 	3.1596248e-06 	0.0028897148 	3.7561999e-06 	0.00080551852
0.75555556 	0.0031219029 	0.0013517762 	1.2253819e-07 	0.0030612474 	-1.7377513e-08 	0.00017179654
0.76666667 	0.0033259911 	0.0014800665 	3.0618586e-06 	0.0032599627 	4.3996965e-06 	0.00088671994
0.77777778 	0.0035379979 	0.0016087139 	7.957966e-08 	0.0034614113 	2.6613044e-09 	0.00036349394
0.78888889 	0.00377327 	0.0017334605 	1.809582e-06 	0.0036919917 	3.3097608e-06 	0.00096641298
0.8 	0.0040202371 	0.001852945 	5.9881475e-07 	0.0039355028 	1.2899519e-06 	0.0010586352
0.81111111 	0.0042890978 	0.0019766857 	2.9312309e-07 	0.004201148 	6.3143849e-07 	0.0010421793
0.82222222 	0.004581894 	0.0021114244 	2.6075267e-06 	0.0044892978 	5.57664e-06 	0.0011348845
0.83333333 	0.0048890044 	0.0022527036 	2.0937958e-07 	0.0047906427 	4.4884419e-07 	0.0012270453
0.84444444 	0.0052126001 	0.0024020068 	1.6434117e-07 	0.005110063 	3.5229595e-07 	0.0012042717
0.85555556 	0.0055461291 	0.0025566123 	1.9365846e-06 	0.005442663 	4.1857133e-06 	0.0012871096
0.86666667 	0.0058831771 	0.0027131924 	1.8175989e-06 	0.0057802831 	3.9326744e-06 	0.0013604523
0.87777778 	0.0062214826 	0.0028704222 	6.2311332e-07 	0.006118888 	1.3441255e-06 	0.0014230738
0.88888889 	0.0065579855 	0.0030266946 	1.1814748e-08 	0.0064545798 	1.0103226e-08 	0.0012203118
0.9 	0.0068892503 	0.0031691721 	4.7362705e-08 	0.006788606 	3.9135517e-08 	0.0003440746
0.91111111 	0.0072170808 	0.003301604 	4.2662559e-08 	0.0071242228 	3.4195564e-08 	0.00034272149
0.92222222 	0.0075411457 	0.0034318655 	2.4433097e-09 	0.0074563933 	1.8987315e-09 	0.0014905649
0.93333333 	0.0078531748 	0.0035553136 	4.3269571e-07 	0.0077747493 	1.2338968e-06 	0.0015830328
0.94444444 	0.0081438254 	0.003670711 	8.4924923e-07 	0.008076619 	2.4429273e-06 	0.0015869054
0.95555556 	0.0084019121 	0.0037763658 	2.9510667e-08 	0.008338189 	7.4137023e-08 	0.0015821871
0.96666667 	0.0085651707 	0.0038261136 	-1.4432875e-07 	0.0085172189 	2.5787619e-07 	0.0015817633
0.97777778 	0.0085362096 	0.003813335 	-3.9747069e-07 	0.0084981888 	-9.5260498e-07 	0.0015306274
0.98888889 	0.0074001184 	0.0033593283 	-3.1034961e-06 	0.0073989639 	-7.1850546e-06 	0.0012801855
