0.4742268 	0.0019811822 	-0.00071503 	1.995092e-08 	0.0019855705 	-4.6920817e-08 	0.00058262923
0.48453608 	0.0095349869 	-0.0043353669 	1.1206655e-08 	0.0095085719 	-1.7392247e-08 	0.0032674093
0.49484536 	0.0088821745 	-0.0040579887 	2.3151427e-06 	0.0088285135 	-5.4507984e-06 	0.0038307652
0.50515464 	0.0074946813 	-0.0034581318 	-3.9729993e-08 	0.0074180369 	9.3473915e-08 	0.0029280752
0.51546392 	0.0059888439 	-0.0027643822 	1.1608766e-06 	0.005906869 	-2.4373162e-06 	0.0024614862
0.5257732 	0.0045093004 	-0.0020303808 	6.9906658e-06 	0.0044264606 	-1.2862781e-05 	0.0019526317
0.53608247 	0.0033347274 	-0.0013332898 	2.0825885e-06 	0.0032833831 	-3.3024171e-06 	0.0015016151
0.54639175 	0.0025841112 	-0.00081754416 	-7.5130364e-09 	0.0025552707 	8.4987292e-09 	0.0011499021
0.55670103 	0.0022175524 	-0.00047198172 	-2.03018e-08 	0.0022012474 	1.1445088e-08 	0.00092345133
0.56701031 	0.0020764489 	-0.00023715515 	4.7774329e-07 	0.0020758487 	-2.7335744e-07 	0.00089692547
0.57731959 	0.0020410841 	-5.5892224e-05 	1.3535256e-06 	0.0020548458 	-3.0514897e-07 	0.00087655126
0.58762887 	0.0020468663 	9.0954254e-05 	1.7121853e-06 	0.0020746071 	-7.2382148e-08 	0.00088228785
0.59793814 	0.0020698619 	0.00021411093 	2.0382424e-07 	0.0021095275 	7.199857e-09 	0.00089914321
0.60824742 	0.0021005774 	0.00031944541 	-1.6141291e-07 	0.0021488339 	-1.6769333e-07 	2.8312338e-05
0.6185567 	0.0021322739 	0.00041050492 	3.748525e-07 	0.0021909244 	1.838783e-08 	0.00092063415
0.62886598 	0.0021641936 	0.00049183553 	7.7626972e-07 	0.0022301854 	8.9769796e-09 	0.00094362266
0.63917526 	0.0021950493 	0.00056523421 	-9.6235645e-08 	0.0022658549 	-1.2814871e-07 	0.00020491966
0.64948454 	0.0022231482 	0.00062956329 	4.6723591e-07 	0.0023004997 	-3.3778381e-08 	0.0009664815
0.65979381 	0.0022499389 	0.00068849059 	1.311968e-07 	0.002331595 	-2.6923817e-08 	0.00098813363
0.67010309 	0.0022743598 	0.00074112642 	-1.6249275e-08 	0.0023589545 	-2.5708018e-08 	0.00077737854
0.68041237 	0.0022972913 	0.00078873413 	4.3617472e-07 	0.0023848183 	-1.6640653e-07 	0.0010084597
0.69072165 	0.0023191746 	0.00083282344 	-3.0750143e-08 	0.0024073537 	-5.4112639e-08 	0.00040202576
0.70103093 	0.0023401787 	0.00087305431 	4.6399993e-07 	0.0024305965 	-2.6056634e-07 	0.0010279937
0.71134021 	0.0023614177 	0.00091122068 	-1.5846694e-08 	0.0024509979 	-3.428314e-08 	0.00037690928
0.72164948 	0.0023830519 	0.00094683774 	3.4767148e-07 	0.0024736602 	-2.3362924e-07 	0.0010484455
0.73195876 	0.0024057016 	0.00098088033 	3.4212625e-10 	0.0024948085 	-5.0830586e-09 	0.00067658542
0.74226804 	0.0024313439 	0.0010147963 	1.9956187e-07 	0.0025198242 	-1.008989e-07 	0.0010721133
0.75257732 	0.0024587511 	0.0010475916 	1.2945527e-09 	0.0025453193 	1.3634326e-09 	0.0010161846
0.7628866 	0.0024917855 	0.0010815492 	1.1524619e-07 	0.0025761073 	-5.560842e-09 	0.0011009385
0.77319588 	0.0025284664 	0.0011158288 	3.0674896e-09 	0.00260995 	-1.4801205e-10 	0.0011010031
0.78350515 	0.0025725754 	0.0011518904 	1.587749e-07 	0.0026508203 	7.6267343e-08 	0.0011363525
0.79381443 	0.0026220922 	0.0011889667 	1.6039317e-08 	0.0026963236 	2.6626737e-08 	0.00084472007
0.80412371 	0.0026815645 	0.0012292885 	3.7065633e-07 	0.0027526119 	3.5424788e-07 	0.0011797369
0.81443299 	0.0027484908 	0.0012710463 	7.2303567e-08 	0.0028129072 	1.2626054e-07 	0.00012518505
0.82474227 	0.0028289699 	0.0013182175 	4.184173e-07 	0.0028898424 	5.6349492e-07 	0.0012325995
0.83505155 	0.0029208048 	0.0013676733 	1.2794298e-08 	0.0029754753 	2.3000938e-08 	0.0012957146
0.84536082 	0.0030292506 	0.001419908 	4.9521331e-08 	0.0030765117 	1.0434007e-07 	0.00072402755
0.8556701 	0.0031592233 	0.0014790834 	5.6168238e-07 	0.003201001 	1.1586072e-06 	0.0013710196
0.86597938 	0.0033121658 	0.0015484052 	3.0851106e-07 	0.0033459467 	6.3810524e-07 	0.0014613402
0.87628866 	0.0034950606 	0.0016308501 	1.261555e-07 	0.0035172929 	2.653788e-07 	0.00046656999
0.88659794 	0.003717064 	0.001731819 	9.1245218e-08 	0.0037293907 	1.9260849e-07 	0.00092922641
0.89690722 	0.0039882844 	0.001855526 	2.8816144e-07 	0.0039903784 	6.0389551e-07 	0.0016976615
0.90721649 	0.0043212763 	0.0020074173 	9.3283829e-07 	0.0043109691 	1.9645484e-06 	0.0018488682
0.91752577 	0.0047263757 	0.0021928282 	1.3295059e-06 	0.0047037426 	2.8145227e-06 	0.0020247807
0.92783505 	0.0052128313 	0.0024163854 	1.1766023e-06 	0.0051792082 	2.50227e-06 	0.0022240507
0.93814433 	0.0057780749 	0.0026776197 	1.9135519e-07 	0.0057382737 	4.1091631e-07 	0.0024410659
0.94845361 	0.006399507 	0.0029653473 	2.9475599e-07 	0.0063549483 	6.3728319e-07 	0.00038576979
0.95876289 	0.0070360746 	0.0032604213 	4.9630338e-07 	0.0069928583 	1.2525914e-06 	0.0030848624
0.96907216 	0.0075888436 	0.0034673891 	1.1295415e-07 	0.0075590336 	3.0492544e-07 	0.00098153922
0.97938144 	0.0079067583 	0.0035844353 	-7.6231335e-09 	0.0078888981 	2.7217851e-08 	0.0034182258
0.98969072 	0.0069001079 	0.0031543932 	-1.130243e-06 	0.0069109996 	-2.5776215e-06 	0.003051443
