0.46067416 	0.0065038715 	-0.0031319521 	-7.5676216e-07 	0.0071659829 	1.8103153e-06 	0.00010484886
0.47191011 	0.0084063075 	-0.0039362567 	3.3848541e-07 	0.0091228402 	-7.0025157e-07 	0.00052730495
0.48314607 	0.0080476305 	-0.0036922096 	9.9060569e-07 	0.0085870208 	-2.2117295e-06 	0.00086345361
0.49438202 	0.0075100358 	-0.0034025299 	2.0416437e-06 	0.0078778266 	-4.8857124e-06 	0.0011166316
0.50561798 	0.0069271783 	-0.0030807783 	8.3197481e-07 	0.0071530413 	-1.9066674e-06 	0.0012419759
0.51685393 	0.0063246376 	-0.0027595229 	4.4825611e-06 	0.0064190003 	-1.0256672e-05 	0.0013626705
0.52808989 	0.0057206267 	-0.0024423844 	3.8871581e-06 	0.0057028952 	-8.7667372e-06 	0.001423548
0.53932584 	0.005126135 	-0.0021302801 	2.5848311e-06 	0.0050138943 	-5.7145134e-06 	0.0014282165
0.5505618 	0.0045534908 	-0.0018233107 	2.3771933e-06 	0.0043616942 	-5.056508e-06 	0.0013819299
0.56179775 	0.0040179462 	-0.0015206547 	3.2286124e-06 	0.00376156 	-6.3844473e-06 	0.0012933416
0.57303371 	0.0035367699 	-0.0012237123 	5.024561e-06 	0.0032291483 	-8.9249024e-06 	0.0011766066
0.58426966 	0.0031235021 	-0.00093795159 	3.0656504e-06 	0.0027727415 	-4.7471579e-06 	0.0010514445
0.59550562 	0.002786898 	-0.00066785908 	1.2111557e-08 	0.0023945095 	-5.7343891e-08 	0.00079791215
0.60674157 	0.0025482234 	-0.00042191876 	2.996205e-08 	0.0021049298 	-1.7000076e-07 	0.0005957579
0.61797753 	0.0024035056 	-0.00019885346 	3.0932294e-06 	0.0018989442 	-3.1019263e-06 	0.00088707573
0.62921348 	0.002332171 	8.9635561e-06 	1.0919745e-06 	0.0017538715 	-6.9285131e-07 	0.0008588725
0.64044944 	0.0023351353 	0.00020121089 	6.731628e-08 	0.0016688549 	-4.1105944e-07 	0.00038556548
0.65168539 	0.0023932877 	0.00037686458 	3.3105949e-06 	0.0016465197 	-7.7512194e-07 	0.00088912328
0.66292135 	0.002481554 	0.00054220966 	4.4275938e-08 	0.0016568773 	-3.1718565e-07 	0.00060865087
0.6741573 	0.0025981104 	0.00069215167 	1.2938664e-06 	0.0017091059 	2.4605878e-07 	0.00094428682
0.68539326 	0.0027302149 	0.00083393469 	4.0885558e-07 	0.0017893637 	2.9416646e-07 	0.0010202721
0.69662921 	0.0028748703 	0.00096060386 	4.7115139e-07 	0.0018997013 	3.3898751e-07 	0.0010140214
0.70786517 	0.0030311755 	0.0010834156 	6.0594471e-07 	0.0020325248 	9.0808185e-07 	0.001105523
0.71910112 	0.003189887 	0.0011852141 	4.2412536e-07 	0.0021917937 	6.3560343e-07 	0.0010917828
0.73033708 	0.0033594332 	0.0012775356 	4.5806775e-07 	0.002376145 	9.5769233e-07 	0.0011891056
0.74157303 	0.0035420629 	0.0013734528 	5.4346535e-07 	0.0025719525 	1.136235e-06 	0.0011671378
0.75280899 	0.0037424276 	0.0014746196 	5.251768e-07 	0.0027835909 	1.1221729e-06 	0.0012707742
0.76404494 	0.0039601372 	0.0015833344 	4.0150202e-07 	0.0030100812 	8.5791053e-07 	0.0012401625
0.7752809 	0.0041964159 	0.0016983115 	1.1665522e-06 	0.0032530465 	2.5259537e-06 	0.0013411854
0.78651685 	0.0044462664 	0.0018197223 	-1.085623e-08 	0.0035095292 	-1.3623534e-07 	0.00095122064
0.79775281 	0.0047187189 	0.0019513355 	2.5159658e-06 	0.0037907152 	5.4969068e-06 	0.0013941936
0.80898876 	0.0050017092 	0.0020867697 	-9.9765463e-10 	0.0040800668 	-1.7966612e-07 	0.00084828831
0.82022472 	0.0053026357 	0.0022315032 	9.5421585e-07 	0.0043908837 	2.0964253e-06 	0.0014242093
0.83146067 	0.0056130575 	0.0023796479 	1.9909267e-06 	0.0047101403 	4.399108e-06 	0.0014908795
0.84269663 	0.0059286814 	0.0025300369 	7.2483652e-09 	0.005034763 	-7.4635384e-08 	0.0011821071
0.85393258 	0.0062464526 	0.0026827279 	2.264134e-07 	0.0053667557 	5.0488969e-07 	0.0014666161
0.86516854 	0.0065619464 	0.0028346976 	1.6203271e-06 	0.005699322 	3.6502855e-06 	0.0014891467
0.87640449 	0.0068725423 	0.0029853366 	1.9186709e-06 	0.0060307487 	4.3776701e-06 	0.0014927384
0.88764045 	0.0071756255 	0.0031319682 	9.832247e-07 	0.00636304 	2.5871106e-06 	0.0014784467
0.8988764 	0.0074683387 	0.0032649755 	5.4029188e-07 	0.0067011465 	1.6360866e-06 	0.0014475044
0.91011236 	0.0077536269 	0.003391041 	4.7685134e-07 	0.0070415777 	1.4441233e-06 	0.0014025213
0.92134831 	0.0080316584 	0.0035147035 	6.2617352e-07 	0.0073780961 	1.9622826e-06 	0.0013441401
0.93258427 	0.0082963266 	0.0036336859 	9.5657128e-07 	0.0077085595 	3.0858984e-06 	0.0012731659
0.94382022 	0.0085396957 	0.0037471531 	5.6842642e-07 	0.0080271664 	1.8483169e-06 	0.0011902394
0.95505618 	0.0087502504 	0.0038550563 	2.5909667e-08 	0.0083107531 	-1.4918448e-08 	0.00047804257
0.96629213 	0.0088633172 	0.0039064999 	-5.2927414e-08 	0.0085247783 	3.5593271e-07 	0.0010024446
0.97752809 	0.0087578547 	0.0038872378 	-9.0925669e-07 	0.0085280963 	-1.8063988e-06 	0.00087385832
0.98876404 	0.0073866914 	0.0033367845 	-5.6479504e-06 	0.0073130255 	-1.2581301e-05 	0.00063954862
