0.47777778 	0.0080497733 	-0.0037163743 	1.9297629e-08 	0.0082284647 	2.4043012e-07 	0.0015103893
0.48888889 	0.009068711 	-0.0041089675 	4.5617326e-07 	0.0092402592 	-9.4046471e-07 	0.0048908392
0.5 	0.0086318255 	-0.0038985612 	3.1983648e-08 	0.0087885179 	-7.8204758e-08 	0.0044269246
0.51111111 	0.0079870626 	-0.0036198937 	2.7991473e-07 	0.0081050706 	-1.641064e-07 	0.00061302101
0.52222222 	0.0072746454 	-0.0032867675 	2.6955816e-06 	0.0073775373 	-6.0041348e-06 	0.0034484544
0.53333333 	0.0065393522 	-0.0029424279 	9.3904334e-07 	0.0066115385 	-2.0801992e-06 	0.0030592314
0.54444444 	0.0058055802 	-0.002594095 	1.1883895e-07 	0.0058503706 	-4.4162255e-08 	0.0014365192
0.55555556 	0.005095278 	-0.0022487766 	1.8714733e-07 	0.0051133366 	-4.4651059e-08 	0.00035567501
0.56666667 	0.0044263531 	-0.0019067599 	1.5561147e-07 	0.0044219924 	-1.3714333e-08 	0.00026004741
0.57777778 	0.0038188872 	-0.0015682998 	7.3651818e-08 	0.0037983575 	3.5006319e-09 	0.00074894549
0.58888889 	0.0032903994 	-0.0012415884 	3.2565636e-07 	0.0032585738 	-5.4899212e-07 	0.0013629538
0.6 	0.0028588728 	-0.00093716737 	3.2613357e-06 	0.0028157558 	-4.8161241e-06 	0.0011202425
0.61111111 	0.0025246311 	-0.00066187197 	3.3171646e-06 	0.0024708183 	-4.0479912e-06 	0.0009349154
0.62222222 	0.0022843323 	-0.00041703062 	1.9537821e-08 	0.0022179734 	-1.4526447e-08 	0.00065991981
0.63333333 	0.002145625 	-0.00020293139 	2.6077319e-08 	0.0020658932 	-3.1388653e-08 	0.00065142287
0.64444444 	0.0020934371 	-1.0942612e-05 	3.6401614e-06 	0.0019967041 	-1.5574635e-06 	0.00075482574
0.65555556 	0.0020900645 	0.00017078381 	5.9553032e-09 	0.0019739294 	-8.6605947e-09 	0.00073123194
0.66666667 	0.0021367896 	0.00033725924 	4.2527166e-07 	0.0020036147 	-9.8683242e-09 	0.00075369364
0.67777778 	0.0022182717 	0.00049337351 	2.1767163e-06 	0.0020665568 	6.9840333e-07 	0.0007947937
0.68888889 	0.0023198048 	0.00064386022 	1.737077e-07 	0.0021492972 	-2.6333986e-07 	0.00023126206
0.7 	0.0024417957 	0.00078447283 	3.2778505e-06 	0.0022599723 	2.0883068e-06 	0.00086723443
0.71111111 	0.0025800506 	0.00092407151 	2.2980519e-07 	0.0023821531 	-3.3191311e-07 	0.00012851204
0.72222222 	0.0027299829 	0.0010545326 	2.9285195e-06 	0.0025255437 	2.7537964e-06 	0.00097319993
0.73333333 	0.0028943807 	0.0011838381 	2.3921678e-07 	0.0026757754 	-3.2784904e-07 	0.00014476933
0.74444444 	0.0030726725 	0.0013102237 	2.6884478e-06 	0.0028487797 	3.329845e-06 	0.0011130209
0.75555556 	0.0032613108 	0.0014320519 	1.7326696e-07 	0.0030249215 	-2.9174298e-07 	0.00017224818
0.76666667 	0.0034698941 	0.001552905 	1.9350118e-06 	0.0032313878 	3.2664878e-06 	0.0012792956
0.77777778 	0.0036872036 	0.001661821 	4.8161059e-08 	0.0034456293 	-1.2398631e-07 	0.00077808402
0.78888889 	0.003925424 	0.001774528 	8.8543703e-07 	0.0036852698 	1.8835667e-06 	0.0014668836
0.8 	0.0041814393 	0.0018929969 	5.0045681e-07 	0.0039395825 	1.083312e-06 	0.0016554402
0.81111111 	0.0044566222 	0.0020189821 	4.8103979e-08 	0.0042090809 	-6.3913984e-08 	0.0010225959
0.82222222 	0.0047542151 	0.0021566446 	1.9564328e-06 	0.0045053204 	4.2278764e-06 	0.0018920568
0.83333333 	0.005063904 	0.0022998799 	3.8155208e-09 	0.0048137495 	-3.4104664e-09 	0.0020542817
0.84444444 	0.0053861089 	0.0024483591 	7.8750491e-08 	0.0051322252 	-5.724411e-08 	0.00099026498
0.85555556 	0.0057173317 	0.0026032246 	9.4080525e-07 	0.0054685445 	2.0506819e-06 	0.002376647
0.86666667 	0.0060494242 	0.0027581862 	1.4250129e-06 	0.0058047268 	3.1128981e-06 	0.0026023482
0.87777778 	0.0063807761 	0.0029129482 	2.362693e-07 	0.0061402174 	5.1581373e-07 	0.0028230438
0.88888889 	0.0067083713 	0.0030655229 	5.4388159e-08 	0.0064696533 	-4.606326e-08 	0.0018275286
0.9 	0.0070300135 	0.0032043719 	9.2544337e-08 	0.0068010354 	-8.1809451e-08 	0.0009463204
0.91111111 	0.0073469622 	0.0033341116 	9.0656634e-08 	0.0071344371 	-7.9772543e-08 	0.00094123412
0.92222222 	0.0076587546 	0.0034609888 	5.026317e-08 	0.0074647679 	-4.3277193e-08 	0.0020825086
0.93333333 	0.0079592186 	0.0035821368 	1.3708832e-07 	0.0077862743 	4.0645638e-07 	0.0038290889
0.94444444 	0.0082367218 	0.0036943896 	4.3808907e-07 	0.0080887388 	1.3145007e-06 	0.0040043844
0.95555556 	0.0084793698 	0.0037953222 	6.4701232e-08 	0.0083417172 	-2.5056738e-08 	0.0014125652
0.96666667 	0.0086310199 	0.0038426793 	-5.9228298e-08 	0.0085331677 	1.1481077e-07 	0.0043533845
0.97777778 	0.0085876254 	0.0038318702 	-1.0866758e-07 	0.00851782 	-2.5466753e-07 	0.0044060542
0.98888889 	0.0074355387 	0.003376236 	-1.1302541e-06 	0.0074299636 	-2.6015918e-06 	0.0038527734
