/*--------------------------------*- C++ -*----------------------------------*\
  =========                 |
  \\      /  F ield         | OpenFOAM: The Open Source CFD Toolbox
   \\    /   O peration     | Website:  https://openfoam.org
    \\  /    A nd           | Version:  7
     \\/     M anipulation  |
\*---------------------------------------------------------------------------*/
FoamFile
{
    version     2.0;
    format      ascii;
    class       volScalarField;
    location    "2000";
    object      p;
}
// * * * * * * * * * * * * * * * * * * * * * * * * * * * * * * * * * * * * * //

dimensions      [0 2 -2 0 0 0 0];

internalField   nonuniform List<scalar> 
15296
(
0.2632688
0.26139388
0.26059702
0.25992449
0.25913995
0.25833899
0.25757264
0.25683649
0.25613077
0.25545871
0.25481937
0.25420932
0.2536247
0.25306159
0.25251604
0.25198424
0.25146251
0.25094728
0.25043502
0.24992299
0.24941134
0.24890874
0.24844926
0.24808927
0.24801626
0.24793634
0.24770856
0.24790997
0.24943615
0.25225226
0.25588125
0.26147969
0.2704117
0.28471849
0.30865156
0.34953431
0.42415061
0.58168766
0.26325154
0.26139329
0.2605964
0.25992464
0.25914089
0.2583403
0.2575741
0.25683803
0.25613233
0.25546025
0.25482087
0.2542108
0.25362617
0.25306307
0.25251757
0.25198584
0.25146422
0.25094913
0.25043705
0.24992522
0.24941367
0.24891088
0.24845032
0.24808793
0.24801277
0.24793038
0.24769954
0.24788987
0.24939401
0.25220847
0.25582576
0.26139178
0.27026083
0.28445517
0.30818548
0.34867908
0.42253048
0.57717286
0.26324511
0.26139451
0.26059695
0.25992558
0.25914219
0.25834187
0.25757591
0.25684007
0.25613457
0.25546267
0.25482345
0.25421353
0.25362905
0.25306609
0.25252073
0.25198916
0.25146771
0.25095279
0.25044091
0.24992928
0.2494179
0.24891511
0.24845418
0.24809026
0.24801402
0.24793278
0.24770006
0.24788021
0.24937158
0.25217481
0.25577057
0.26130039
0.27010572
0.28418795
0.30774703
0.34786683
0.42086125
0.57214326
0.26323773
0.26139561
0.26059721
0.25992636
0.25914337
0.25834333
0.2575776
0.25684199
0.25613668
0.25546494
0.25482587
0.25421608
0.25363173
0.2530689
0.25252368
0.25199226
0.25147097
0.25095623
0.25044455
0.24993312
0.24942191
0.24891909
0.24845772
0.24809216
0.24801477
0.24793423
0.24769923
0.24786831
0.24934439
0.25214257
0.25571619
0.26120969
0.26995068
0.28391821
0.30728427
0.34705335
0.41922217
0.5673534
0.26323004
0.26139681
0.26059728
0.25992703
0.25914446
0.2583447
0.25757921
0.25684381
0.25613869
0.25546711
0.25482818
0.25421853
0.25363431
0.25307162
0.25252654
0.25199526
0.25147413
0.25095958
0.25044809
0.24993687
0.24942582
0.24892297
0.24846114
0.24809393
0.24801538
0.24793541
0.24769786
0.24785531
0.249313
0.25211347
0.25566332
0.26112003
0.26979718
0.28365062
0.30678905
0.3462376
0.41760066
0.56280819
0.26321958
0.26139859
0.26059708
0.25992773
0.25914574
0.25834633
0.25758115
0.25684604
0.25614117
0.25546979
0.25483105
0.25422157
0.25363752
0.253075
0.2525301
0.25199902
0.2514781
0.25096378
0.25045255
0.24994159
0.24943075
0.24892786
0.24846541
0.24809606
0.24801602
0.24793666
0.2476956
0.24783869
0.24926975
0.2520789
0.25559646
0.2610055
0.26960193
0.2833122
0.30613603
0.34519029
0.41553446
0.55715629
0.26320683
0.26140086
0.26059645
0.2599284
0.25914718
0.2583482
0.25758341
0.25684868
0.25614413
0.25547302
0.25483452
0.25422527
0.25364144
0.25307915
0.25253448
0.25200365
0.251483
0.25096898
0.25045808
0.24994746
0.2494369
0.24893396
0.24847071
0.24809862
0.24801675
0.24793817
0.24769256
0.24781934
0.24921616
0.25203772
0.25551116
0.26086017
0.26935708
0.28289245
0.30534894
0.3438493
0.41295367
0.55023147
0.26319267
0.26140353
0.26059525
0.25992887
0.25914853
0.25835003
0.25758569
0.25685139
0.2561472
0.25547641
0.25483818
0.2542292
0.25364563
0.2530836
0.2525392
0.25200865
0.25148832
0.25097464
0.25046412
0.24995389
0.24944363
0.24894063
0.24847648
0.2481013
0.24801745
0.24793974
0.24768897
0.24779937
0.24915877
0.25200381
0.25541248
0.26069516
0.26908327
0.28242718
0.30460198
0.34223598
0.41009969
0.54272054
0.26317681
0.26140669
0.26059327
0.25992902
0.2591497
0.25835172
0.25758788
0.25685408
0.25615031
0.25547987
0.25484197
0.25423329
0.25365002
0.25308829
0.2525442
0.25201398
0.25149401
0.25098072
0.25047062
0.24996083
0.24945091
0.24894785
0.24848268
0.24810399
0.24801798
0.2479412
0.24768444
0.2477787
0.24909723
0.25203012
0.25529802
0.26050723
0.2687759
0.28191103
0.30390078
0.3404046
0.40695393
0.53458999
0.26315985
0.26141044
0.26059027
0.25992868
0.25915057
0.25835315
0.25758989
0.25685666
0.25615337
0.25548335
0.25484583
0.2542375
0.25365458
0.25309319
0.25254947
0.25201963
0.25150006
0.25098723
0.25047762
0.24996832
0.24945879
0.24895564
0.24848931
0.24810663
0.24801818
0.24794216
0.24767775
0.24775722
0.24903091
0.25215599
0.25516447
0.26029222
0.26842835
0.28133589
0.30289686
0.33850031
0.40348926
0.52573405
0.26314159
0.26141503
0.26058603
0.25992772
0.25915107
0.25835424
0.25759163
0.25685906
0.25615633
0.25548678
0.2548497
0.2542418
0.25365928
0.2530983
0.25255499
0.25202559
0.2515065
0.25099417
0.25048512
0.24997639
0.2494673
0.24896406
0.2484964
0.24810913
0.24801776
0.24794157
0.24766855
0.24773435
0.24895722
0.25222129
0.25501107
0.2600484
0.26803723
0.28069187
0.30156422
0.33645075
0.399659
0.51608258
0.26312088
0.26142061
0.26058029
0.25992592
0.25915097
0.25835475
0.25759286
0.25686105
0.25615896
0.25548996
0.25485339
0.25424597
0.25366392
0.25310341
0.25256058
0.25203169
0.25151314
0.25100141
0.25049299
0.24998491
0.24947631
0.24897296
0.2485038
0.24811132
0.24801638
0.24793642
0.24766638
0.2477093
0.24887403
0.25194824
0.25484005
0.25977907
0.2676048
0.27998406
0.30023077
0.33418718
0.39544892
0.50570527
0.26309833
0.26142741
0.26057274
0.259923
0.25915005
0.25835442
0.25759334
0.25686239
0.25616102
0.25549265
0.25485667
0.25424981
0.25366831
0.25310834
0.25256607
0.25203776
0.25151983
0.25100877
0.25050108
0.24999373
0.24948569
0.24898221
0.24851135
0.24811304
0.24801349
0.2479227
0.24773167
0.24768145
0.2487792
0.25147305
0.25465435
0.25948618
0.26713006
0.27920885
0.29887653
0.33170923
0.39086577
0.49464591
0.26307343
0.26143582
0.2605631
0.25991867
0.25914809
0.25835302
0.2575928
0.25686284
0.2561623
0.25549466
0.25485936
0.25425316
0.25367229
0.25311296
0.25257134
0.2520437
0.25152649
0.2510162
0.25050934
0.25000283
0.24949543
0.2489918
0.24851897
0.24811417
0.24800898
0.24789336
0.24794921
0.2476517
0.24868372
0.25121694
0.25445009
0.25916258
0.26660334
0.27832679
0.29739322
0.3289622
0.38583755
0.48280786
0.26304294
0.26144647
0.26055114
0.25991255
0.25914485
0.25835023
0.25759092
0.25686207
0.25616247
0.25549566
0.25486116
0.25425572
0.2536756
0.253117
0.25257613
0.25204928
0.2515329
0.2510235
0.25051759
0.25001204
0.24950538
0.24900157
0.24852638
0.24811457
0.24800126
0.24784813
0.24813283
0.247644
0.24854404
0.25106202
0.25422514
0.25880149
0.26601624
0.27733679
0.29574101
0.32592538
0.38032831
0.4701913
0.26300043
0.26146132
0.26053413
0.25990235
0.25913883
0.25834457
0.25758632
0.25685891
0.25616056
0.25549486
0.25486143
0.25425704
0.25367794
0.25312036
0.25258052
0.25205474
0.25153948
0.2510313
0.25052668
0.25002243
0.24951677
0.24901274
0.24853398
0.24811405
0.24798879
0.24778375
0.24784939
0.24772958
0.24841849
0.25087663
0.25392781
0.2583276
0.26524737
0.27606074
0.29359787
0.32199899
0.37323275
0.4545047
0.2629554
0.26147446
0.26051281
0.25988739
0.25912894
0.25833481
0.25757761
0.25685189
0.25615504
0.2554907
0.25485861
0.25425553
0.25367772
0.25312143
0.2525829
0.25205846
0.25154463
0.25103796
0.25053496
0.25003233
0.24952794
0.24902377
0.24854013
0.24811068
0.24796754
0.2477154
0.24763485
0.24778989
0.24833126
0.25063334
0.25356
0.25775698
0.26432782
0.27454817
0.29105768
0.31738926
0.36495151
0.4369624
0.26290837
0.26148346
0.26048977
0.25986865
0.2591157
0.25832147
0.25756505
0.25684098
0.25614565
0.25548272
0.25485206
0.2542504
0.253674
0.25311911
0.252582
0.25205903
0.25154673
0.25104171
0.25054046
0.2500396
0.24953658
0.24903245
0.24854275
0.24810806
0.24787474
0.24759826
0.24759482
0.24752962
0.24825647
0.25038267
0.25317791
0.2571662
0.26337914
0.2729889
0.28845762
0.31272815
0.35660117
0.42009649
0.262857
0.2614887
0.26046467
0.2598457
0.25909875
0.25830422
0.25754824
0.25682575
0.25613196
0.25547047
0.2548413
0.25424116
0.25366627
0.25311289
0.25257731
0.25205592
0.25154528
0.25104202
0.25054265
0.25004369
0.24954218
0.2490383
0.24854186
0.24809952
0.24772207
0.24748316
0.247595
0.24710978
0.24819747
0.25013549
0.25278101
0.25655013
0.26239609
0.27138496
0.28580581
0.30804212
0.34822836
0.40397152
0.2628013
0.2614902
0.2604373
0.25981826
0.25907772
0.25828275
0.25752684
0.25680584
0.25611359
0.25545357
0.25482594
0.25422741
0.25365413
0.25310236
0.25256842
0.25204872
0.25153984
0.25103846
0.2505411
0.25004421
0.24954433
0.24904093
0.24853791
0.24808428
0.24760306
0.24756988
0.24748208
0.24673931
0.24813327
0.24988019
0.25237427
0.25592249
0.26139541
0.2697531
0.28311747
0.30336233
0.33987448
0.38861791
0.26274093
0.26148789
0.26040771
0.2597862
0.2590523
0.25825681
0.25750055
0.25678094
0.25609023
0.2554317
0.25480569
0.25420886
0.25363728
0.25308723
0.25255504
0.25203713
0.25153012
0.25103074
0.25053551
0.25004084
0.24954277
0.24904008
0.24853137
0.24806571
0.24757823
0.24746716
0.2471005
0.24698459
0.24806494
0.24961225
0.25193157
0.25525467
0.2603571
0.26808191
0.28038565
0.29869459
0.33155271
0.37398964
0.26267633
0.26148199
0.2603762
0.25974958
0.25902223
0.25822614
0.25746908
0.2567507
0.25606156
0.25540455
0.25478022
0.25418517
0.25361541
0.25306719
0.25253685
0.25202084
0.25151581
0.25101852
0.25052557
0.25003328
0.24953722
0.2490354
0.24852251
0.24803983
0.24755064
0.2473069
0.24700611
0.2469794
0.24770968
0.2494154
0.25151797
0.25457877
0.25929767
0.26638674
0.27762898
0.29407614
0.32333799
0.36012318
0.26260895
0.26147276
0.26034305
0.25970857
0.25898733
0.25819052
0.25743215
0.25671481
0.25602724
0.25537179
0.25474921
0.25415608
0.25358825
0.25304197
0.25251359
0.25199958
0.25149662
0.25100155
0.25051099
0.25002126
0.24952751
0.24902667
0.24851121
0.24800883
0.24751609
0.24717185
0.24705462
0.24674921
0.24752302
0.2492842
0.25112026
0.25390112
0.25822435
0.2646767
0.27485908
0.28952818
0.31527945
0.34704813
0.26253971
0.26146066
0.26030876
0.25966358
0.25894763
0.25814992
0.25738964
0.25667308
0.25598708
0.25533324
0.25471251
0.2541214
0.25355565
0.25301144
0.25248513
0.25197323
0.25147246
0.25097971
0.25049167
0.25000468
0.24951359
0.24901401
0.24849701
0.24797541
0.24746724
0.24706874
0.24683661
0.24662391
0.24760704
0.24900999
0.25063585
0.25318222
0.25711775
0.26294376
0.2720765
0.28505865
0.30741148
0.33471198
0.26246709
0.26144593
0.26027391
0.25961518
0.25890331
0.25810439
0.25734157
0.25662546
0.255941
0.25528882
0.25467002
0.25408109
0.25351755
0.25297556
0.25245146
0.25194178
0.25144329
0.25095297
0.25046759
0.24998354
0.24949554
0.24899772
0.24848009
0.24794051
0.24741338
0.24691708
0.24645926
0.24650634
0.24759069
0.24868702
0.25015922
0.25247557
0.25601311
0.26121788
0.26931255
0.28070199
0.29980974
0.32311097
0.26239512
0.26143121
0.26023994
0.2595644
0.25885484
0.25805419
0.2572881
0.256572
0.25588904
0.25523856
0.25462181
0.2540352
0.25347405
0.25293443
0.25241268
0.25190534
0.25140925
0.25092146
0.25043888
0.24995799
0.24947351
0.24897836
0.24846089
0.24790535
0.24736253
0.24670457
0.24594899
0.2464652
0.24765009
0.24842988
0.24969354
0.25174821
0.25488167
0.25947847
0.26655654
0.27644926
0.29250225
0.31226238
0.26232481
0.26141783
0.26020803
0.25951236
0.25880288
0.25799967
0.25722947
0.25651293
0.25583137
0.25518263
0.25456804
0.25398392
0.25342535
0.25288826
0.25236902
0.25186415
0.25137056
0.25088541
0.25040576
0.24992827
0.24944783
0.24895649
0.24844109
0.24786859
0.24730921
0.24633656
0.24573438
0.24686356
0.24767636
0.24815917
0.24922092
0.25101215
0.2537462
0.25774893
0.26383415
0.27231869
0.28551692
0.30218102
0.26226174
0.26140934
0.26018016
0.25946058
0.2587483
0.2579413
0.2571661
0.25644857
0.25576831
0.25512138
0.25450908
0.25392765
0.25337185
0.2528375
0.25232091
0.25181866
0.25132767
0.25084525
0.25036865
0.24989482
0.24941895
0.24893322
0.24842099
0.2478463
0.24716886
0.24610191
0.24628306
0.24714265
0.24742444
0.24779662
0.24872155
0.25025834
0.2525981
0.25602137
0.26114477
0.26830562
0.27886223
0.29276225
0.26220898
0.26140841
0.26015782
0.25941035
0.258692
0.25787958
0.25709839
0.25637938
0.2557003
0.25505526
0.25444544
0.25386693
0.25331414
0.25278273
0.25226899
0.25176947
0.25128119
0.25080158
0.25032815
0.24985822
0.24938746
0.24890949
0.2484033
0.24784578
0.24704738
0.24637091
0.24668899
0.24691377
0.24705838
0.24744655
0.24822742
0.24950168
0.25145214
0.25431436
0.2585187
0.26444028
0.27260423
0.28397796
0.26217228
0.2614197
0.26014349
0.25936345
0.25863505
0.25781493
0.25702667
0.25630576
0.25562778
0.25498477
0.25437768
0.25380237
0.25325288
0.25272467
0.25221397
0.25171735
0.25123188
0.25075515
0.25028494
0.24981906
0.24935408
0.24888525
0.24839357
0.24785818
0.24707241
0.24661666
0.24670654
0.24673549
0.24683811
0.24713517
0.24772762
0.24873979
0.25031073
0.25263122
0.25596583
0.26072941
0.26676637
0.27587329
0.26216188
0.26144919
0.26013989
0.25932177
0.25857851
0.25774765
0.25695122
0.25622812
0.25555123
0.25491046
0.25430647
0.25373474
0.2531889
0.2526642
0.2521568
0.25166325
0.25118069
0.25070689
0.25023993
0.24977817
0.24931927
0.24886121
0.24839049
0.24789863
0.24720063
0.24684823
0.24675258
0.24662137
0.24660604
0.24677185
0.24719461
0.2479649
0.24916983
0.250968
0.25348537
0.25716829
0.26133195
0.26844153
0.26219165
0.26150229
0.26014855
0.25928639
0.25852248
0.25767695
0.25687148
0.25614632
0.25547071
0.25483262
0.25423231
0.25366471
0.253123
0.25260223
0.25209845
0.25160817
0.25112866
0.25065782
0.25019406
0.24973626
0.24928344
0.24883591
0.24839316
0.24796029
0.24757026
0.24716178
0.24662488
0.24636603
0.24631596
0.24639534
0.24666418
0.24720026
0.24805055
0.24934646
0.25110233
0.25377962
0.25631498
0.26162007
0.2622761
0.26158135
0.26016843
0.2592587
0.25846842
0.25760399
0.25678947
0.25606312
0.25538923
0.25475442
0.2541585
0.25359561
0.25305851
0.25254205
0.25204213
0.25155527
0.2510788
0.25061082
0.25015
0.24969567
0.24924792
0.24880885
0.24838674
0.24799967
0.24779139
0.24736295
0.24660727
0.24613746
0.24603516
0.24603622
0.24614738
0.24645786
0.24698154
0.24781929
0.24890252
0.25068888
0.25188783
0.25561075
0.26241472
0.26168241
0.26019367
0.25923705
0.25841726
0.25753126
0.25670945
0.25598367
0.25531221
0.25468137
0.25409042
0.2535326
0.25300031
0.25248826
0.2519922
0.25150861
0.25103495
0.25056946
0.25011105
0.24965935
0.24921501
0.24878103
0.24836601
0.24798902
0.24772202
0.24746492
0.24683364
0.24607184
0.24576183
0.24569946
0.24569675
0.24581383
0.24605217
0.24649484
0.247018
0.24806597
0.24823142
0.25069546
0.26259882
0.26180363
0.26022232
0.25922202
0.25837083
0.25746156
0.25663474
0.25591111
0.25524257
0.25461608
0.25403032
0.25347755
0.25294996
0.25244214
0.25194966
0.25146902
0.25099776
0.25053429
0.25007769
0.24962774
0.2491854
0.24875347
0.24834045
0.24795886
0.24765397
0.24742783
0.24700907
0.24620849
0.24553911
0.24534262
0.245276
0.2452514
0.245251
0.24536546
0.24543614
0.24589075
0.24526832
0.24675351
0.26283145
0.26194153
0.26025035
0.25921228
0.25832809
0.25739461
0.25656546
0.25584528
0.25517984
0.25455784
0.2539772
0.25342924
0.25290609
0.25240219
0.25191295
0.25143487
0.25096562
0.25050373
0.25004839
0.2495995
0.24915803
0.24872645
0.24831188
0.24792281
0.24758887
0.24729323
0.24698981
0.24637782
0.24556993
0.24506966
0.24490645
0.24478148
0.24457607
0.24441114
0.24411199
0.24408968
0.24285585
0.24359186
0.26313548
0.26209851
0.26027963
0.25920994
0.25828824
0.25732928
0.25650036
0.25578438
0.25512206
0.25450457
0.25392887
0.25338546
0.2528665
0.25236626
0.25187997
0.25140414
0.25093656
0.25047588
0.25002141
0.24957304
0.24913168
0.24869936
0.24828156
0.24788477
0.24752451
0.24719811
0.24685376
0.2464439
0.24573401
0.24493083
0.24457009
0.24437741
0.24400979
0.2436057
0.24299685
0.24259091
0.24087133
0.24106204
0.26351019
0.2622495
0.2602951
0.25920684
0.25824406
0.25726053
0.25643548
0.25572478
0.25506598
0.25445334
0.2538826
0.25334367
0.25282884
0.25233214
0.25184863
0.25137486
0.25090872
0.25044901
0.24999509
0.24954689
0.24910513
0.2486714
0.2482498
0.24784463
0.2474652
0.24710675
0.24673641
0.24636469
0.24582956
0.24498612
0.24430739
0.24400598
0.24352069
0.24292912
0.24206108
0.2413439
0.23923495
0.23904147
0.2639796
0.2623878
0.2602905
0.25919721
0.25818925
0.25718415
0.25636744
0.25566338
0.25500899
0.25440181
0.25383624
0.25330191
0.25279128
0.25229814
0.25181734
0.2513455
0.25088065
0.25042171
0.24996814
0.24951983
0.24907732
0.24864179
0.24821612
0.24780305
0.24740749
0.24702403
0.24663166
0.24620953
0.24579779
0.24505651
0.24424338
0.24371192
0.24309084
0.24235475
0.24127683
0.24030908
0.23787141
0.23745548
0.26447145
0.26247742
0.26025321
0.25917427
0.25811908
0.25709824
0.25629487
0.25559895
0.25495006
0.25434898
0.25378879
0.2532592
0.25275286
0.25226327
0.25178511
0.25131506
0.25085134
0.25039298
0.24993952
0.24949083
0.24904729
0.24860968
0.24817991
0.24775946
0.24735016
0.24694698
0.24652944
0.24609098
0.24563851
0.24506666
0.2443666
0.24354875
0.24274241
0.2418673
0.24061019
0.23945
0.23672529
0.23603587
0.26500842
0.26253014
0.26019633
0.2591445
0.25803679
0.2570059
0.25621958
0.25553252
0.25488985
0.25429515
0.25374027
0.25321537
0.25271326
0.25222708
0.25175137
0.2512829
0.25082003
0.25036196
0.24990831
0.24945894
0.24901406
0.24857414
0.24814028
0.24771298
0.24729199
0.24687197
0.24643441
0.24597415
0.24547157
0.24498443
0.24430061
0.24336378
0.24243443
0.24143338
0.2400012
0.23862566
0.23561865
0.23457116
0.26559743
0.26253494
0.26012306
0.25911006
0.25794464
0.25691026
0.25614362
0.25546556
0.25482946
0.25424095
0.25369101
0.25317049
0.25267233
0.25218926
0.25171566
0.25124838
0.25078598
0.2503278
0.24987355
0.2494231
0.24897655
0.2485341
0.24809622
0.24766263
0.24723161
0.24679736
0.24634291
0.24586091
0.24533143
0.24478356
0.24401953
0.24307943
0.24207572
0.24097105
0.23938768
0.23784042
0.23462045
0.2333607
0.26625478
0.26248314
0.26003949
0.25907335
0.25784499
0.25681408
0.2560686
0.25539925
0.25476968
0.25418679
0.2536411
0.25312446
0.25262978
0.25214936
0.25167737
0.25121076
0.25074829
0.25028947
0.24983412
0.24938217
0.24893366
0.24848857
0.24804688
0.24760766
0.24716811
0.24672202
0.24625323
0.24575307
0.24519771
0.24459779
0.24378581
0.24280496
0.24172583
0.24054823
0.23886517
0.237239
0.23387219
0.23255836
0.26698555
0.26236087
0.2599493
0.25903392
0.25773893
0.25671893
0.25599507
0.25533389
0.25471051
0.25413231
0.25359001
0.25307658
0.25258481
0.25210644
0.25163546
0.2511689
0.25070571
0.25024566
0.24978875
0.24933501
0.24888444
0.24843688
0.24799186
0.24754791
0.24710141
0.24664571
0.24616514
0.24564986
0.24507344
0.24443877
0.24360356
0.24259818
0.24145911
0.24021537
0.23844502
0.23675335
0.23325406
0.23192404
0.26779361
0.26215681
0.25985736
0.25899062
0.25762747
0.25662558
0.25592273
0.25526899
0.25465113
0.25407649
0.25353665
0.2530258
0.25253636
0.25205945
0.25158881
0.25112157
0.25065704
0.2501953
0.24973663
0.2492812
0.24882896
0.24837955
0.24793209
0.24748462
0.24703282
0.24656969
0.24607982
0.2455524
0.24495958
0.2442988
0.24345028
0.242429
0.24124277
0.23994393
0.23809757
0.23634955
0.23273428
0.23139159
0.26867781
0.26186089
0.25976862
0.25894128
0.25751102
0.25653342
0.25584976
0.25520241
0.25458917
0.25401701
0.25347897
0.25297027
0.25248274
0.25200673
0.25153574
0.25106722
0.25060095
0.25013753
0.24967752
0.24922115
0.24876824
0.2483181
0.24786942
0.24741977
0.24696428
0.24649569
0.24599875
0.24546194
0.24485664
0.24417624
0.24331804
0.24228814
0.2410699
0.23973184
0.2378247
0.23603503
0.23231809
0.23097612
0.26963765
0.26146692
0.25968925
0.25888364
0.2573901
0.25644107
0.2557737
0.25513179
0.25452253
0.25395232
0.25341602
0.25290946
0.25242354
0.25194786
0.25147597
0.25100591
0.25053825
0.25007409
0.24961411
0.24915835
0.24870624
0.2482567
0.24780797
0.24735728
0.24689942
0.24642698
0.24592486
0.24538102
0.24476641
0.24407152
0.2432059
0.24217033
0.24092872
0.23956261
0.23760783
0.2357908
0.23198687
0.23066179
0.27067181
0.26096904
0.25962365
0.25881221
0.2572615
0.25634258
0.25568788
0.25505126
0.25444655
0.25387915
0.25334545
0.25284136
0.25235679
0.25188101
0.25140814
0.25093726
0.25046969
0.25000674
0.24954878
0.2490953
0.24864522
0.24819708
0.2477489
0.24729778
0.24683837
0.24636322
0.2458574
0.24530846
0.24468709
0.24398177
0.24311061
0.2420713
0.24081252
0.2394268
0.23743483
0.23560225
0.23172359
0.23043246
0.27178052
0.26036345
0.25957661
0.25872194
0.25712216
0.25623365
0.25558973
0.25496114
0.25436408
0.25380177
0.25327178
0.25277006
0.25228627
0.2518103
0.25133753
0.25086799
0.2504032
0.24994394
0.24948976
0.24903948
0.24859171
0.24814492
0.24769721
0.24724579
0.24678531
0.24630833
0.24579999
0.24524755
0.24462144
0.24390885
0.24303374
0.24199207
0.24072049
0.23932136
0.23730001
0.23546153
0.2315165
0.23027949
0.27278901
0.25975146
0.25955047
0.25862273
0.25698842
0.25612764
0.25549604
0.25488034
0.25429397
0.25373767
0.25321058
0.25270982
0.2522262
0.25175102
0.25128059
0.25081497
0.25035489
0.24990007
0.24944935
0.24900135
0.24855481
0.24810853
0.24766088
0.24720919
0.24674811
0.24627018
0.24576048
0.24520609
0.24457719
0.24386035
0.24298287
0.24194009
0.24066014
0.23925379
0.23721155
0.23537611
0.23137513
0.23020638
0.27359714
0.25922419
0.2595217
0.25851977
0.2568661
0.25603145
0.25541649
0.25481668
0.2542409
0.25368906
0.25316302
0.25266213
0.25217889
0.25170565
0.25123876
0.25077743
0.25032133
0.24986944
0.24942044
0.24897319
0.24852682
0.24808047
0.24763267
0.24718082
0.24671948
0.2462411
0.24573072
0.24517527
0.24454478
0.24382548
0.2429467
0.24190341
0.2406184
0.23920782
0.23715284
0.23532014
0.23128416
0.23016291
0.27435248
0.25870231
0.25947693
0.25839926
0.25674039
0.25593877
0.25534669
0.25476446
0.25419773
0.25364812
0.25312151
0.25262001
0.2521377
0.25166727
0.25120432
0.25074684
0.25029359
0.24984329
0.24939483
0.2489475
0.24850087
0.24805431
0.24760642
0.24715456
0.24669315
0.24621459
0.24570383
0.24514772
0.24451617
0.2437952
0.24291563
0.24187215
0.2405836
0.23917011
0.23710608
0.23527607
0.23121431
0.2301322
0.27505001
0.25818709
0.25941064
0.25826817
0.25662385
0.2558624
0.25529489
0.25472736
0.25416578
0.25361561
0.25308704
0.25258478
0.25210379
0.25163638
0.25117691
0.25072223
0.25027059
0.24982079
0.24937216
0.24892447
0.24847754
0.2480309
0.24758311
0.24713141
0.24667013
0.24619156
0.24568064
0.24512415
0.24449193
0.24376985
0.24288989
0.24184645
0.24055543
0.23914006
0.23706963
0.23524237
0.23116121
0.23011295
0.27568521
0.2576753
0.25932198
0.25814062
0.25653106
0.2558106
0.25526265
0.25470345
0.25414237
0.25358923
0.25305797
0.25255508
0.2520757
0.25161115
0.25115443
0.25070154
0.25025056
0.24980065
0.24935162
0.24890358
0.24845655
0.24801004
0.24756253
0.24711113
0.24665008
0.24617164
0.24566068
0.24510399
0.24447135
0.24374859
0.24286848
0.24182521
0.24053255
0.23911598
0.23704117
0.23521655
0.23112091
0.23010222
0.27624627
0.25716532
0.2592232
0.25803868
0.25647449
0.25578545
0.25524667
0.25468852
0.25412433
0.25356718
0.25303344
0.25253052
0.25205311
0.25159124
0.25113668
0.2506849
0.25023413
0.24978396
0.24933462
0.24888649
0.24843961
0.24799344
0.24754633
0.24709532
0.24663455
0.24615626
0.24564533
0.24508854
0.24445567
0.24373249
0.24285241
0.24180938
0.24051564
0.23909834
0.2370207
0.23519842
0.23109219
0.23009954
0.27672521
0.25666117
0.25913636
0.25798046
0.25645455
0.2557787
0.255238
0.25467615
0.254108
0.2535477
0.25301277
0.25251088
0.25203596
0.25157673
0.25112401
0.25067304
0.25022234
0.24977201
0.2493226
0.24887461
0.24842808
0.24798235
0.24753568
0.24708502
0.24662449
0.24614633
0.24563543
0.24507857
0.24444554
0.2437221
0.24284212
0.24179931
0.24050487
0.23908711
0.23700777
0.23518741
0.23107362
0.2301039
0.27712643
0.25618047
0.25909023
0.25797236
0.2564599
0.25577887
0.25523084
0.25466585
0.25409614
0.25353514
0.25300099
0.25250148
0.2520297
0.2515732
0.25112215
0.25067184
0.25022124
0.24977089
0.2493216
0.24887392
0.2484278
0.2479825
0.24753618
0.24708579
0.24662542
0.2461473
0.24563638
0.24507945
0.24444627
0.24372265
0.24284277
0.24180011
0.24050519
0.23908709
0.23700686
0.2351879
0.23106894
0.23011926
0.27731426
0.25569661
0.25908899
0.25798927
0.2564629
0.25576998
0.25521884
0.25465637
0.25408937
0.25353043
0.25299879
0.2525026
0.25203421
0.25158026
0.25113059
0.25068075
0.25023024
0.24977994
0.24933082
0.24888342
0.24843761
0.24799257
0.24754643
0.24709612
0.24663573
0.24615753
0.24564648
0.24508938
0.244456
0.24373215
0.24285225
0.24180952
0.24051415
0.23909561
0.23701489
0.23519653
0.23107423
0.23014026
0.2772529
0.25528776
0.25916608
0.25804129
0.25649053
0.25579253
0.25524677
0.254692
0.2541303
0.25357479
0.25304641
0.25255373
0.25208844
0.25163655
0.25118789
0.25073839
0.25028796
0.24983776
0.24938882
0.24894162
0.24849599
0.24805106
0.24760495
0.24715458
0.24669407
0.2462157
0.24570444
0.2451471
0.24451344
0.24378929
0.2429092
0.24186619
0.24057029
0.23915119
0.23707009
0.23525155
0.23112721
0.23020364
0.27731328
0.25510878
0.25930848
0.25814836
0.25659549
0.25590739
0.25537161
0.25482379
0.25426621
0.25371392
0.25318889
0.25269945
0.25223669
0.25178636
0.25133847
0.25088928
0.25043902
0.24998899
0.24954025
0.24909325
0.24864776
0.2482029
0.24775681
0.2473064
0.24684579
0.24636728
0.24585583
0.24529824
0.24466428
0.24393977
0.24305934
0.2420159
0.24071948
0.23929973
0.23721819
0.23539881
0.23127324
0.23035311
0.27766065
0.25507421
0.25950933
0.25833194
0.25678379
0.25610394
0.25557199
0.25502411
0.25446563
0.2539138
0.2533906
0.25290331
0.2524422
0.25199287
0.25154554
0.25109675
0.25064693
0.25019743
0.24974926
0.24930283
0.24885789
0.24841353
0.2479679
0.24751791
0.24705768
0.24657951
0.24606837
0.24551105
0.24487733
0.24415301
0.24327281
0.2422296
0.24093352
0.23951394
0.23743312
0.23561329
0.23148936
0.23056687
0.27827609
0.25534577
0.25980968
0.25856161
0.25699097
0.25630438
0.25576708
0.25521293
0.25464923
0.25409475
0.25357111
0.25308436
0.25262382
0.25217485
0.25172779
0.25127941
0.25083023
0.25038155
0.24993429
0.24948879
0.24904476
0.24860131
0.24815655
0.24770741
0.24724802
0.24677069
0.24626038
0.24570389
0.24507103
0.2443476
0.24346841
0.24242628
0.24113158
0.2397133
0.23763455
0.23581573
0.23169566
0.23076944
0.27888551
0.25573307
0.26000668
0.25866996
0.25707552
0.25638147
0.25583975
0.25528166
0.25471473
0.2541583
0.25363385
0.25314689
0.25268631
0.25223731
0.25179029
0.25134209
0.25089324
0.25044498
0.24999819
0.24955317
0.24910962
0.24866664
0.24822234
0.24777367
0.24731475
0.24683789
0.24632807
0.24577209
0.24513978
0.24441694
0.24353841
0.24249703
0.24120322
0.23978588
0.23770846
0.23589062
0.23177295
0.23084438
0.2792481
0.25587487
0.26003582
0.25866996
0.25707232
0.2563781
0.25583637
0.25527821
0.25471114
0.25415458
0.25363006
0.25314305
0.25268245
0.25223344
0.25178642
0.25133825
0.25088943
0.25044121
0.24999444
0.24954945
0.24910593
0.24866297
0.2482187
0.24777006
0.24731118
0.24683436
0.24632459
0.24576867
0.24513643
0.24441368
0.24353527
0.24249402
0.24120036
0.23978321
0.23770604
0.2358885
0.23177121
0.23084152
0.93138558
0.30623863
0.20753471
0.17880998
0.13981044
0.11322723
0.092520764
0.075214428
0.057229218
0.037189293
0.018634724
0.0015497301
-0.015179503
-0.03172974
-0.047905392
-0.063533544
-0.078476109
-0.092594819
-0.10575133
-0.11781195
-0.12864167
-0.13809446
-0.14599019
-0.15209521
-0.15606593
-0.15695498
0.9298522
0.31166241
0.20853831
0.17911439
0.14011748
0.11344827
0.092688022
0.075366144
0.057388875
0.037340617
0.018764151
0.0016642925
-0.01507436
-0.031633611
-0.047819023
-0.063457347
-0.078410197
-0.092539092
-0.10570547
-0.11777542
-0.12861374
-0.13807423
-0.14597658
-0.15208689
-0.15606136
-0.15695173
0.92859229
0.31881414
0.2108003
0.17970214
0.14051199
0.1137077
0.092877296
0.075441101
0.057479302
0.037486443
0.018886586
0.0017710927
-0.014977227
-0.03154529
-0.047739863
-0.063387513
-0.07834965
-0.092487652
-0.10566279
-0.11774099
-0.12858689
-0.13805417
-0.14596235
-0.15207735
-0.15605521
-0.15694709
0.92603703
0.3253882
0.2139939
0.18077909
0.14112261
0.11407444
0.093140972
0.075388722
0.05751349
0.037646542
0.019023539
0.0018883837
-0.014871931
-0.031450318
-0.04765508
-0.063312765
-0.078284683
-0.092432131
-0.10561626
-0.11770287
-0.12855648
-0.13803064
-0.14594478
-0.15206465
-0.15604617
-0.15694026
0.92212751
0.33124572
0.21739041
0.18218764
0.14196913
0.11458203
0.093506191
0.075293513
0.057705175
0.03783525
0.019183066
0.0020234506
-0.014752233
-0.031343221
-0.047559835
-0.063228835
-0.078211546
-0.092369257
-0.10556305
-0.11765863
-0.12852042
-0.13800189
-0.14592237
-0.15204751
-0.15603314
-0.15693037
0.91576264
0.33787438
0.22160903
0.1841386
0.14326858
0.11541745
0.094116425
0.075472565
0.058177565
0.038131964
0.019424685
0.0022256459
-0.014575365
-0.031186314
-0.04742081
-0.063106312
-0.078104397
-0.092276468
-0.10548361
-0.11759147
-0.12846438
-0.13795578
-0.14588493
-0.15201739
-0.15600899
-0.15691179
0.90629656
0.34518777
0.22681249
0.18668878
0.14510318
0.11670241
0.0950745
0.076335685
0.058771298
0.038589832
0.019807436
0.0025437003
-0.014300222
-0.030944079
-0.047206833
-0.062917535
-0.077938494
-0.092131504
-0.1053578
-0.11748308
-0.12837169
-0.13787706
-0.14581847
-0.15196153
-0.1559623
-0.15687543
0.89406617
0.3520836
0.23235975
0.18948191
0.14718068
0.11824564
0.0962585
0.077588418
0.059429864
0.039199172
0.020328043
0.0029781365
-0.01392542
-0.030615084
-0.046916322
-0.062660528
-0.077711266
-0.091931057
-0.10518151
-0.11732851
-0.12823653
-0.13775913
-0.14571577
-0.15187228
-0.15588536
-0.15681468
0.87909915
0.35847421
0.23821207
0.19250921
0.14945876
0.11997653
0.097614667
0.078888285
0.060285898
0.039989467
0.021002042
0.0035476791
-0.013430662
-0.030179086
-0.046529764
-0.062316689
-0.077405002
-0.091658216
-0.10493849
-0.11711208
-0.12804371
-0.1375872
-0.14556241
-0.15173562
-0.15576487
-0.15671836
0.86107351
0.36423684
0.24437172
0.19580971
0.15196516