/*--------------------------------*- C++ -*----------------------------------*\
  =========                 |
  \\      /  F ield         | OpenFOAM: The Open Source CFD Toolbox
   \\    /   O peration     | Website:  https://openfoam.org
    \\  /    A nd           | Version:  7
     \\/     M anipulation  |
\*---------------------------------------------------------------------------*/
FoamFile
{
    version     2.0;
    format      ascii;
    class       volScalarField;
    location    "2000";
    object      k;
}
// * * * * * * * * * * * * * * * * * * * * * * * * * * * * * * * * * * * * * //

dimensions      [0 2 -2 0 0 0 0];

internalField   nonuniform List<scalar> 
15296
(
0.0094706971
0.0094409516
0.0094113142
0.0093862952
0.0093659018
0.009349807
0.009337703
0.0093293408
0.0093245261
0.0093231062
0.0093249611
0.0093299973
0.0093381446
0.0093493548
0.0093635998
0.0093808713
0.0094011634
0.0094245068
0.0094509322
0.0094804784
0.0095131906
0.0095491185
0.0095883173
0.0096308523
0.0096768095
0.0097263199
0.0097796154
0.0098371327
0.0098998422
0.0099690612
0.010048941
0.010149655
0.010303348
0.010592412
0.011222919
0.011363727
0.018360846
0.0030550821
0.0094715118
0.0094412202
0.0094117261
0.0093867566
0.0093663955
0.0093503248
0.0093382388
0.0093298897
0.0093250841
0.0093236701
0.0093255282
0.0093305653
0.0093387113
0.0093499177
0.0093641562
0.0093814183
0.0094016971
0.0094250233
0.0094514275
0.0094809484
0.0095136316
0.0095495273
0.0095886914
0.0096311901
0.00967711
0.009726582
0.009779837
0.0098373073
0.0098999577
0.0099690868
0.010048794
0.010149089
0.010301689
0.010587859
0.011218532
0.011326075
0.018403073
0.00020038243
0.0094728547
0.0094419301
0.0094126104
0.009387741
0.0093674501
0.0093514343
0.0093393923
0.0093310787
0.009326302
0.0093249118
0.0093267899
0.0093318439
0.0093400041
0.0093512217
0.0093654678
0.0093827332
0.0094030095
0.0094263276
0.0094527173
0.0094822178
0.009514875
0.0095507401
0.0095898709
0.0096323353
0.0096782217
0.0097276619
0.0097808857
0.0098383206
0.0099009244
0.0099699741
0.010049506
0.010149348
0.010300737
0.010583653
0.011213766
0.011289971
0.01841241
0.00030260291
0.0094745803
0.0094430848
0.0094139479
0.0093892219
0.009369037
0.0093531057
0.0093411326
0.0093328762
0.0093281476
0.009326799
0.0093287137
0.0093338007
0.0093419908
0.0093532351
0.0093675037
0.0093847866
0.0094050735
0.0094283949
0.0094547801
0.0094842681
0.0095169056
0.0095527451
0.0095918467
0.0096342809
0.0096801392
0.0097295552
0.0097827585
0.0098401721
0.0099027461
0.0099717362
0.010051114
0.010150521
0.010300722
0.010580271
0.011209291
0.011260158
0.018383341
0.0004415515
0.0094766437
0.009444683
0.0094157388
0.0093911957
0.0093711523
0.0093553345
0.0093434549
0.0093352769
0.0093306153
0.0093293253
0.0093312927
0.0093364283
0.0093446637
0.0093559498
0.009370256
0.0093875707
0.0094078826
0.00943122
0.0094576118
0.0094870968
0.009519722
0.0095555414
0.0095946175
0.0096370244
0.0096828576
0.009732254
0.0097854439
0.0098428468
0.0099054048
0.0099743539
0.010053596
0.010152589
0.010301626
0.010577742
0.011205019
0.011237207
0.018320768
0.00053237237
0.0094797121
0.0094473114
0.0094186363
0.0093943768
0.0093745607
0.0093589272
0.0093472001
0.0093391507
0.0093345996
0.009333407
0.0093354626
0.0093406802
0.0093489929
0.0093603521
0.0093747258
0.0093921004
0.0094124632
0.0094358392
0.009462256
0.0094917519
0.0095243738
0.0095601769
0.0095992266
0.0096416022
0.009687405
0.0097367778
0.0097899539
0.0098473495
0.0099098968
0.0099788097
0.010057898
0.01015638
0.010303956
0.010575556
0.011199745
0.011216685
0.018201604
0.00064872836
0.0094843782
0.0094517567
0.0094234842
0.0093996733
0.0093802331
0.0093649092
0.0093534417
0.0093456136
0.0093412546
0.0093402321
0.0093424421
0.0093478028
0.0093562505
0.0093677376
0.0093822315
0.0093997166
0.0094201789
0.0094436386
0.0094701221
0.0094996662
0.0095323167
0.009568129
0.0096071709
0.0096495266
0.0096953045
0.009744655
0.0097978166
0.0098552035
0.0099177344
0.0099866061
0.010065506
0.01016335
0.010309118
0.010574812
0.0111934
0.011207928
0.017979801
0.00061468002
0.0094906205
0.0094581575
0.0094304476
0.0094072506
0.0093883406
0.0093734605
0.0093623688
0.0093548638
0.0093507867
0.0093500148
0.0093524522
0.0093580235
0.0093666694
0.0093783447
0.0093930172
0.0094106697
0.0094312878
0.0094548863
0.0094814898
0.0095111333
0.0095438603
0.0095797245
0.009618794
0.0096611564
0.0097069265
0.0097562629
0.009809411
0.0098667851
0.0099292875
0.0099981136
0.010076804
0.010173941
0.010317735
0.010576729
0.01118674
0.01121985
0.017617799
0.0010334931
0.0094989861
0.0094671216
0.0094402235
0.0094178548
0.0093996714
0.0093854091
0.0093748459
0.009367798
0.0093641218
0.0093637068
0.009366468
0.0093723386
0.0093812658
0.0093932085
0.009408136
0.0094260306
0.0094468791
0.009470689
0.0094974844
0.0095272978
0.0095601687
0.0095961472
0.0096352986
0.009677711
0.0097235035
0.0097728421
0.0098259808
0.0098833368
0.0099457936
0.010014562
0.010093013
0.010189366
0.010331013
0.010582606
0.011180062
0.011260769
0.016964819
0.007819191
0.0095102115
0.0094794598
0.0094537301
0.0094324701
0.0094152656
0.0094018489
0.0093920177
0.0093856086
0.0093824954
0.0093825834
0.0093858013
0.0093920941
0.0094014181
0.0094137383
0.0094290275
0.0094472684
0.0094684518
0.0094925751
0.0095196645
0.0095497493
0.0095828643
0.009619053
0.0096583747
0.0097009133
0.0097467881
0.0097961705
0.0098493223
0.0099066658
0.0099690674
0.010037763
0.01011594
0.010211414
0.010350712
0.010594235
0.011174125
0.011334443
0.016109318
0.013123884
0.0095252439
0.0094962751
0.0094721744
0.0094523789
0.0094364718
0.0094241931
0.0094153604
0.0094098312
0.009407499
0.0094082874
0.0094121422
0.0094190239
0.0094289015
0.0094417491
0.0094575451
0.0094762742
0.0094979343
0.0095225091
0.0095500315
0.0095805275
0.0096140266
0.0096505638
0.0096901885
0.0097329751
0.0097790368
0.0098285445
0.0098817646
0.0099391244
0.010001472
0.010070081
0.01014794
0.010242418
0.010379121
0.01061394
0.011170836
0.011433655
0.0152483
0.015837224
0.0095453545
0.009519052
0.0094971228
0.0094792224
0.0094650016
0.0094542213
0.0094467201
0.0094423767
0.0094411043
0.0094428467
0.0094475695
0.0094552528
0.0094658828
0.0094794469
0.0094959318
0.0095153266
0.0095376345
0.0095628356
0.0095909626
0.0096220418
0.0096560987
0.0096931593
0.00973326
0.0097764599
0.009822858
0.0098726161
0.0099259972
0.0099834286
0.010045735
0.010114243
0.010191725
0.010285062
0.010418887
0.010644453
0.011173854
0.011543785
0.014519791
0.017179681
0.0095725073
0.0095497588
0.0095306224
0.0095151349
0.0095030719
0.0094942294
0.0094884715
0.0094856985
0.0094858423
0.0094888655
0.009494755
0.0095035138
0.0095151508
0.0095296722
0.0095470777
0.0095673629
0.0095905317
0.0096165814
0.0096455257
0.0096774006
0.0097122304
0.0097500331
0.0097908308
0.0098346626
0.0098816053
0.0099318
0.0099854932
0.010043101
0.010105414
0.010173815
0.01025085
0.010342874
0.010473488
0.010689198
0.011188498
0.011652507
0.013973649
0.0177751
0.0096094878
0.0095910391
0.0095753736
0.0095629295
0.0095536057
0.0095472452
0.009543749
0.0095430419
0.0095450713
0.0095498148
0.0095572783
0.0095674888
0.009580483
0.0095962932
0.0096149381
0.0096364244
0.0096607581
0.0096879571
0.0097180089
0.0097509707
0.0097868662
0.0098257092
0.0098675095
0.0099122841
0.0099600804
0.010011007
0.010065275
0.01012327
0.01018573
0.010254084
0.010330638
0.010421162
0.010548181
0.010753156
0.011221809
0.011756086
0.013599134
0.017927389
0.009660014
0.009646341
0.0096349042
0.0096262627
0.0096203775
0.0096171571
0.0096165587
0.009618538
0.009623055
0.0096300951
0.0096396762
0.0096518465
0.0096666722
0.0096842189
0.0097045336
0.0097276403
0.0097535508
0.009782295
0.0098138556
0.009848296
0.0098856458
0.0099259229
0.0099691304
0.010015265
0.010064341
0.010116426
0.010171677
0.010230421
0.010293314
0.01036179
0.010437907
0.010526777
0.010649801
0.010842872
0.011282429
0.011858459
0.013367422
0.017817997
0.0097414
0.0097339739
0.0097286848
0.0097255973
0.0097247496
0.0097261724
0.0097299091
0.0097359601
0.0097443013
0.0097549204
0.0097678383
0.0097831177
0.0098008555
0.0098211602
0.0098441225
0.0098697979
0.0098982128
0.0099293924
0.009963368
0.010000157
0.010039814
0.010082374
0.010127842
0.010176196
0.010227421
0.010281528
0.010338597
0.01039885
0.010462805
0.010531799
0.010607624
0.010694452
0.010812344
0.010989737
0.011398357
0.011992216
0.013236088
0.017480985
0.0098654594
0.0098680913
0.0098709805
0.0098751901
0.0098811289
0.0098889371
0.0098987186
0.0099105191
0.0099243405
0.009940178
0.0099580514
0.0099780259
0.010000216
0.010024764
0.010051806
0.010081436
0.010113706
0.010148645
0.01018631
0.010226726
0.010269913
0.010315959
0.010364878
0.010416643
0.010471222
0.010528591
0.010588736
0.010651749
0.010717968
0.010788323
0.010864637
0.010949546
0.01106173
0.011220307
0.011601016
0.012180581
0.01325118
0.016984418
0.01003223
0.010043205
0.010054465
0.010066802
0.010080549
0.010095825
0.010112759
0.010131445
0.010151916
0.010174184
0.010198262
0.010224208
0.010252132
0.010282194
0.010314563
0.010349373
0.010386702
0.010426594
0.010469095
0.010514285
0.010562151
0.010612818
0.010666307
0.0107226
0.010781681
0.010843497
0.01090794
0.010974992
0.011044789
0.011117638
0.011195573
0.011279251
0.011386119
0.011526057
0.011881023
0.01242729
0.013391918
0.016517436
0.010247481
0.010266985
0.010287066
0.010308261
0.010330722
0.010354479
0.010379666
0.010406405
0.010434761
0.010464756
0.010496395
0.01052971
0.010564793
0.0106018
0.01064092
0.010682318
0.010726103
0.010772333
0.010821057
0.010872339
0.010926272
0.010982938
0.011042363
0.011104568
0.011169591
0.011237322
0.011307523
0.011380145
0.011455063
0.011531964
0.01161271
0.011695838
0.011797724
0.011920613
0.012240821
0.012746941
0.013634841
0.016185432
0.010518649
0.010547307
0.010577061
0.010607925
0.010639978
0.01067324
0.010707842
0.010743915
0.010781528
0.010820698
0.01086141
0.010903662
0.010947512
0.010993093
0.011040598
0.011090214
0.011142078
0.011196265
0.011252828
0.011311821
0.011373403
0.011437699
0.011504848
0.011574744
0.011647626
0.011723154
0.011800926
0.011880598
0.011961836
0.012043943
0.012128626
0.012213113
0.012310396
0.012418929
0.012685945
0.013154477
0.01397782
0.016024517
0.010851374
0.010891545
0.010932134
0.010973723
0.011016586
0.011060739
0.011106276
0.011153298
0.011201855
0.011251945
0.011303527
0.011356562
0.011411062
0.011467131
0.01152495
0.011584719
0.011646598
0.011710677
0.011777013
0.011845658
0.011916848
0.011990913
0.012068118
0.012148178
0.012230811
0.012315716
0.012402478
0.01249044
0.01257915
0.012667716
0.012757182
0.012845515
0.012940583
0.013037622
0.013248833
0.013676677
0.014436672
0.016047335
0.011250526
0.011304316
0.011357997
0.011412496
0.011468294
0.011525446
0.011584029
0.011644121
0.011705752
0.011768899
0.011833501
0.011899485
0.011966826
0.012035594
0.012105954
0.012178117
0.012252255
0.012328476
0.012406831
0.012487393
0.012570796
0.012657164
0.012746466
0.012838546
0.012932661
0.01302855
0.013125757
0.013223804
0.013322033
0.013419144
0.013514868
0.013607723
0.013704198
0.013792145
0.01395611
0.014328505
0.01502345
0.016259375
0.011723585
0.01179231
0.011861483
0.011931666
0.012003219
0.012076139
0.01215047
0.012226277
0.01230358
0.012382349
0.01246251
0.01254397
0.012626675
0.01271067
0.012796114
0.012883222
0.012972185
0.013063121
0.013156055
0.013251326
0.013349402
0.013450172
0.013553455
0.013659211
0.013767174
0.0138767
0.013987167
0.014097875
0.014207991
0.014315806
0.014420383
0.014518833
0.014617431
0.014698343
0.014826631
0.015109461
0.015744092
0.016661913
0.012277196
0.012363783
0.012451441
0.01254039
0.012630816
0.012722617
0.012815782
0.012910354
0.01300635
0.013103733
0.013202419
0.013302299
0.013403302
0.013505457
0.013608921
0.013713929
0.013820692
0.013929332
0.014039892
0.014152603
0.014267645
0.014385177
0.014505289
0.014627847
0.014752488
0.014878536
0.015005256
0.015131543
0.015256311
0.015377557
0.015493754
0.015599774
0.015701208
0.015777818
0.015880134
0.016055044
0.016629461
0.017272672
0.012913305
0.013024807
0.013136071
0.013247905
0.013360879
0.013475061
0.0135905
0.013707267
0.013825388
0.013944823
0.014065472
0.014187207
0.014309934
0.014433672
0.014558591
0.014684953
0.014813002
0.014942866
0.015074607
0.015208077
0.015343315
0.015480894
0.01562116
0.015763894
0.015908704
0.016054794
0.016201103
0.016346287
0.01648897
0.016626817
0.016757702
0.016874227
0.016981596
0.017057039
0.017138603
0.017228581
0.017704121
0.018101332
0.013650702
0.013787844
0.013925299
0.014063457
0.014202719
0.014343115
0.014484692
0.014627538
0.014771694
0.01491712
0.015063689
0.015211243
0.015359661
0.01550895
0.015659296
0.015811014
0.015964396
0.016119591
0.016276623
0.016435423
0.016595651
0.016757715
0.016921978
0.017088365
0.017257176
0.017427347
0.017597355
0.017765401
0.01792986
0.018087875
0.018236936
0.018368338
0.018483958
0.018562176
0.018626831
0.018659129
0.018956486
0.019141049
0.014493706
0.01466131
0.014828944
0.014997171
0.015166505
0.015337023
0.015508781
0.015681868
0.015856328
0.016032098
0.016209005
0.016386834
0.016565417
0.01674474
0.016925016
0.017106628
0.017289949
0.017475167
0.017662267
0.017851171
0.018041883
0.018234221
0.018428316
0.018624398
0.018822382
0.019021139
0.019219026
0.019413891
0.019604407
0.019787057
0.019958445
0.020109079
0.020235804
0.020322157
0.02037524
0.020367853
0.020497918
0.02046436
0.015457677
0.015659042
0.015860124
0.016061795
0.01626477
0.016469225
0.016675226
0.016882853
0.017092131
0.017302948
0.017515044
0.01772811
0.017941897
0.018156349
0.018371701
0.018588432
0.018807031
0.019027751
0.019250543
0.019475231
0.019701772
0.019930299
0.020161062
0.020394302
0.020628958
0.020863825
0.021097041
0.021326199
0.021549039
0.021761661
0.021960175
0.022134476
0.022278255
0.022373555
0.022422672
0.022385395
0.022409215
0.022069781
0.01655595
0.016792137
0.017029118
0.017267577
0.017508085
0.017750733
0.017995521
0.018242488
0.018491642
0.018742809
0.018995604
0.019249577
0.019504358
0.019759821
0.020016221
0.020274158
0.020534297
0.020796992
0.021062151
0.021329453
0.021598697
0.021870009
0.022143804
0.022420463
0.022699556
0.022979471
0.023257547
0.023530612
0.023794828
0.024046032
0.024279889
0.024485604
0.024654924
0.024763254
0.024813573
0.024754416
0.024718008
0.024052473
0.017767664
0.018047448
0.018328274
0.018610926
0.018896035
0.019183765
0.019474163
0.019767322
0.020063306
0.020361913
0.020662614
0.020964778
0.021267878
0.021571703
0.021876539
0.022183174
0.02249254
0.022805159
0.02312088
0.023439152
0.023759524
0.024082001
0.024407108
0.024735479
0.025066944
0.025399715
0.025730439
0.026054948
0.026369213
0.02666842
0.026947304
0.027194175
0.027398023
0.027532343
0.027587255
0.027517867
0.027446226
0.026561682
0.019087649
0.019418049
0.019750451
0.020085757
0.020424511
0.020766776
0.021112499
0.021461727
0.021814548
0.022170679
0.022529369
0.02288973
0.023251025
0.023612956
0.023975889
0.024340928
0.024709447
0.025082238
0.025459036
0.025838894
0.02622095
0.026605002
0.026991709
0.027382096
0.027776255
0.028172061
0.028565166
0.028950178
0.029322289
0.029676513
0.030007164
0.030302043
0.030547184
0.030716196
0.030788003
0.030716892
0.030630522
0.029619414
0.02049401
0.020890978
0.021289989
0.0216924
0.022098845
0.022509381
0.022923892
0.023342445
0.023765241
0.024191938
0.024621508
0.025052735
0.02548464
0.025916861
0.026349961
0.026785602
0.027225884
0.027671972
0.028123277
0.028578068
0.029034779
0.029492915
0.029953402
0.030417895
0.030886806
0.031357356
0.031823601
0.032278467
0.032716279
0.033132257
0.033520783
0.033869314
0.034161159
0.034369594
0.034469338
0.034407325
0.03431406
0.033255971
0.021962917
0.022438915
0.022918143
0.023401657
0.023889639
0.024381845
0.024878015
0.025378342
0.02588333
0.026392653
0.026904993
0.027418773
0.027932741
0.028446527
0.028961108
0.029479121
0.03000378
0.030536571
0.031075952
0.031618586
0.032161733
0.032704657
0.033248954
0.03379729
0.034350312
0.034903877
0.035449521
0.035978057
0.036483364
0.036961803
0.037408525
0.037810494
0.038148381
0.038395046
0.038523304
0.038483389
0.038391625
0.037346765
0.023453134
0.024017252
0.024582727
0.025151872
0.025725359
0.026303039
0.026884754
0.027471064
0.028062976
0.028660184
0.029260992
0.02986334
0.030465526
0.031067106
0.031669682
0.032277385
0.032894852
0.033523429
0.034159344
0.034796381
0.035430229
0.036060381
0.036689869
0.037322771
0.037959561
0.03859367
0.0392132
0.03980693
0.04036948
0.040899749
0.041394293
0.041839013
0.04221184
0.042485601
0.042633913
0.042613574
0.042532888
0.041547207
0.024947045
0.025591255
0.026238637
0.026891601
0.027550371
0.028214172
0.02888265
0.029556764
0.030238144
0.030926495
0.03161968
0.032314944
0.033009771
0.033703427
0.034398374
0.035100758
0.035816688
0.036546349
0.037281901
0.038012895
0.038733599
0.03944486
0.040152149
0.040861114
0.041571319
0.042272749
0.042949708
0.043589802
0.044190095
0.044753367
0.045277698
0.045747009
0.04613643
0.046419709
0.046573793
0.046564426
0.046489888
0.045594746
0.026437107
0.027157375
0.027883674
0.028619045
0.029363172
0.030114279
0.030871681
0.03163681
0.032412003
0.033196875
0.033988667
0.034783459
0.035577149
0.036368304
0.037160553
0.037962589
0.038781612
0.039614952
0.040448444
0.041266438
0.042062965
0.04284215
0.043612942
0.044382272
0.045147786
0.045895329
0.046605807
0.047267232
0.047881022
0.048454733
0.048987414
0.049459859
0.049844576
0.050117687
0.050261642
0.050252502
0.050175573
0.049382022
0.02785823
0.028665831
0.029481502
0.030308954
0.031147427
0.031994249
0.032848816
0.033713489
0.034591615
0.035482684
0.036383073
0.03728687
0.03818716
0.03908132
0.039974736
0.040879204
0.041802123
0.04273579
0.043657567
0.044546658
0.045399387
0.046225663
0.047038597
0.047845522
0.048641144
0.049407127
0.050122183
0.050776658
0.05137793
0.051938513
0.052457279
0.052910817
0.053269611
0.053513863
0.053633082
0.053613671
0.053525434
0.052833236
0.029211446
0.030121195
0.031037933
0.031968331
0.032912087
0.033865777
0.034829127
0.035805584
0.036799451
0.037809666
0.038831055
0.039854219
0.040867665
0.041867229
0.042861177
0.043864975
0.044884917
0.045906068
0.046895955
0.047830144
0.048710966
0.049556631
0.050384309
0.051200327
0.051995753
0.052748837
0.053437777
0.054056988
0.054620739
0.055145974
0.05562999
0.056044463
0.05635878
0.056558783
0.056641709
0.056603109
0.056495349
0.055897956
0.030521154
0.031537663
0.032565292
0.033611816
0.034675734
0.035751813
0.036839881
0.037944259
0.039069727
0.040213765
0.041368422
0.042518704
0.043646525
0.044746515
0.045831776
0.046922088
0.048021173
0.049105275
0.050131992
0.051076159
0.051950382
0.052783007
0.053594171
0.054387505
0.055150312
0.05585885
0.056492481
0.057050787
0.057555142
0.058025984
0.058457754
0.05881694
0.059072784
0.059217771
0.059256588
0.059191918
0.059057606
0.058545138
0.031789923
0.032927617
0.03408233
0.035263053
0.036466345
0.037684376
0.038916709
0.040167775
0.041441626
0.042732685
0.044028526
0.045306171
0.046539371
0.047723196
0.048878602
0.050030367
0.051178337
0.052289435
0.053312548
0.054225525
0.055055239
0.055840806
0.056603319
0.057342044
0.058041022
0.058676261
0.059229521
0.059705888
0.060133599
0.06053564
0.060902617
0.061195789
0.061384822
0.061469059
0.061459634
0.061364027
0.061197639
0.060758848
0.033001813
0.034293271
0.035603477
0.036944976
0.038313282
0.039697773
0.041097159
0.042514432
0.043950888
0.045395839
0.046830827
0.04822313
0.04953814
0.050774836
0.051965932
0.053141716
0.054297247
0.055390856
0.056364832
0.05720385
0.057952041
0.058658512
0.059342612
0.05999782
0.060605949
0.061144488
0.061598198
0.061977425
0.062316958
0.062641639
0.062937468
0.063160304
0.063280096
0.063302547
0.063243961
0.063114416
0.062912183
0.062535717
0.034195469
0.035664902
0.037156264
0.038686745
0.040249316
0.041827885
0.043417594
0.045016894
0.046621622
0.048214296
0.049770174
0.051246831
0.052603238
0.053847456
0.055028048
0.056180706
0.057295216
0.058323105
0.059202491
0.059928085
0.060562829
0.061163601
0.061744855
0.062293232
0.062789768
0.063215003
0.063556777
0.063830224
0.06407663
0.064322204
0.064547442
0.064702119
0.064755604
0.064719138
0.064613138
0.064448437
0.064208537
0.063883622
0.035381288
0.037056494
0.038761693
0.040516701
0.04230823
0.044109821
0.045908547
0.047694654
0.049456614
0.051170487
0.052807758
0.054319008
0.055660857
0.056856387
0.057973101
0.059050807
0.060073884
0.060989614
0.061734278
0.062314932
0.062813177
0.063289962
0.0637514
0.064176735
0.064548118
0.064850655
0.065075166
0.065241259
0.065396941
0.065569106
0.0657312
0.065825566
0.065819838
0.065730279
0.065580908
0.065381683
0.065104201
0.064820865
0.036548968
0.038477867
0.040442255
0.042465815
0.044524207
0.046573199
0.048586185
0.050543046
0.052426061
0.054208932
0.055865567
0.057344837
0.058606186
0.059692821
0.060691964
0.06164457
0.062529737
0.063293746
0.063873413
0.064289523
0.064640114
0.064984801
0.065317768
0.065611115
0.065850673
0.066027897
0.066136799
0.066201556
0.066277024
0.066389094
0.066501417
0.066547219
0.066491928
0.066357304
0.066170879
0.065939733
0.065626256
0.065375117
0.037704135
0.03994127
0.042222003
0.044565993
0.046926888
0.0492328
0.051439812
0.053520673
0.055457905
0.057231363
0.058826929
0.060198414
0.061312532
0.062235078
0.063070414
0.063855734
0.064565284
0.065148636
0.065546316
0.065793327
0.065998955
0.066213917
0.066417288
0.066575794
0.066682531
0.066737678
0.066739525
0.066717326
0.066731945
0.066804406
0.066884222
0.066894465
0.066800173
0.066630475
0.066415892
0.06615735
0.065810036
0.065581805
0.038850655
0.041469128
0.044135847
0.046852558
0.049534956
0.05207566
0.054417746
0.056539189
0.058433969
0.060099269
0.061544342
0.062734269
0.063644797
0.064362505
0.065002288
0.065590908
0.066098779
0.066485094
0.06669951
0.066790328
0.066867978
0.066964186
0.067041696
0.06706649
0.067043582
0.066984841
0.066895404
0.066810239
0.066792898
0.066852116
0.066917339
0.066903001
0.06677998
0.066587679
0.066356789
0.06607663
0.065696603
0.06548155
0.039996011
0.043093852
0.046228568
0.049357632
0.052341986
0.055044174
0.057415084
0.059460099
0.061195267
0.062645026
0.063853831
0.064803161
0.065475402
0.065970093
0.066401529
0.066778668
0.067070724
0.067256594
0.067304489
0.067271472
0.067250662
0.067242652
0.067198148
0.067092088
0.066946305
0.066786934
0.066630544
0.06651783
0.066507059
0.0665825
0.066647169
0.066613919
0.066472154
0.066273529
0.06604078
0.065743851
0.065328805
0.065116953
0.041165731
0.044860679
0.048547697
0.052091835
0.055292173
0.05801615
0.06026559
0.062098698
0.063553482
0.064686619
0.065589932
0.066266425
0.066697794
0.066979575
0.067208731
0.067371671
0.067443136
0.067438178
0.067358395
0.067255398
0.067172918
0.067069457
0.066900097
0.066666693
0.066410711
0.06617173
0.065984507
0.065893411
0.065935729
0.066054114
0.066122175
0.066068404
0.065920173
0.065737157
0.065516972
0.065202289
0.064743497
0.064526849
0.04239035
0.046839489
0.05114282
0.055027272
0.058264049
0.060803864
0.062757656
0.064248415
0.065315289
0.066050259
0.066607504
0.067018493
0.06724861
0.067357226
0.067400975
0.067349371
0.067198998
0.067029353
0.066893713
0.066797581
0.066684396
0.066473014
0.066161595
0.065806711
0.065465831
0.065183859
0.0650219
0.065018791
0.065162776
0.065334991
0.065390393
0.065309413
0.065177563
0.065038592
0.064836661
0.064487892
0.063967185
0.063748778
0.0435306
0.048771479
0.053578661
0.057579432
0.060612771
0.062786217
0.064346098
0.065448596
0.066097319
0.066445939
0.06671997
0.066967152
0.067104657
0.067117404
0.067007979
0.066754396
0.066410513
0.066156658
0.066084882
0.066071809
0.065926987
0.065579053
0.065119992
0.064671431
0.064293178
0.064034349
0.063980427
0.064124244
0.064376163
0.064563154
0.064565814
0.06446784
0.064398095
0.064325947
0.064124074
0.06371269
0.063117236
0.062919525
0.044558677
0.050509555
0.055623143
0.059542333
0.062248302
0.06401101
0.065198
0.065957928
0.066231795
0.066256158
0.066330529
0.066524553
0.06668251
0.066673987
0.066439575
0.066002848
0.065500786
0.065227412
0.065290629
0.065387228
0.065201139
0.064715782
0.064129189
0.063617472
0.063233021
0.063030631
0.063107741
0.063386151
0.063711004
0.063882445
0.063829879
0.063752071
0.063778678
0.063776283
0.063567375
0.063100973
0.062434801
0.062254608
0.045645845
0.052303863
0.057575808
0.061225554
0.063461103
0.064744242
0.065554694
0.06598618
0.06589011
0.065597177
0.065494305
0.065719703
0.066015232
0.066061331
0.065708394
0.065084989
0.0644242
0.064156957
0.064419671
0.064662346
0.064427751
0.063797549
0.063088698
0.062534766
0.062167899
0.06204247
0.062270356
0.062688447
0.063072494
0.063203078
0.063081748
0.063055873
0.063211219
0.063278358
0.063055812
0.062557573
0.061831879
0.061659883
0.04681862
0.054126611
0.059383486
0.062577247
0.064225613
0.064999574
0.065461857
0.065595333
0.065158104
0.064551946
0.064263823
0.064592309
0.065146273
0.065331756
0.064869062
0.064079685
0.063257969
0.062985564
0.063486056
0.063902943
0.06362206
0.062866623
0.062056578
0.061487141
0.061156485
0.061110686
0.061495344
0.062065805
0.062503692
0.062563878
0.062344852
0.062392162
0.062687423
0.062800708
0.062554044
0.062087499
0.061347483
0.061160051
0.048108927
0.0559394
0.060992471
0.06355785
0.064538128
0.064810633
0.064978249
0.064856101
0.064156815
0.063233215
0.062691651
0.063157703
0.064074761
0.064489877
0.063938786
0.063069461
0.062096387
0.061742819
0.062466123
0.063068798
0.062762391
0.06194987
0.061085739
0.060542496
0.060269222
0.060277697
0.060792441
0.061535556
0.062035385
0.061997511
0.061634835
0.061760594
0.062170759
0.062273337
0.061987904
0.061682097
0.061028425
0.06077669
0.049560687
0.057683126
0.06234397
0.064143125
0.064416465
0.064218869
0.064161569
0.063839211
0.06307185
0.061817318
0.060849217
0.061408812
0.062740983
0.063471638
0.062879455
0.062149467
0.061073553
0.060458599
0.061294254
0.062062119
0.061775585
0.061043475
0.060208016
0.059771569
0.059608787
0.05960564
0.060151453
0.061081171
0.061666364
0.061523366
0.060962565
0.061156311
0.06160552
0.061593919
0.061243043
0.061312288
0.060926193
0.060523621
0.05123424
0.05925687
0.063351229
0.064313497
0.063891877
0.063248795
0.063040882
0.062592738
0.062186559
0.060583169
0.058852053
0.05932527
0.061021919
0.062130696
0.061575872
0.061416828
0.060366941
0.059169514
0.05986442
0.060724335
0.06052434
0.060084727
0.059395194
0.059223908
0.059321892
0.059200575
0.059554629
0.060632569
0.061323113
0.061119664
0.060322933
0.060581742
0.060943453
0.060650652
0.060171138
0.060907068
0.061068852
0.060380127
0.053213423
0.06049928
0.063861506
0.064023546
0.062994974
0.061875814
0.061577521
0.061103012
0.061899191
0.059930961
0.056886073
0.05689762
0.058756004
0.060254596
0.059827662
0.060921879
0.060144722
0.057910928
0.058049503
0.058860557
0.058816462
0.058923339
0.058501944
0.058868837
0.0595758
0.059230789
0.059038756
0.060073993
0.060813995
0.060674802
0.059660376
0.060060829
0.06019943
0.059377921
0.058618595
0.06032084
0.061400288
0.060237426
0.05557653
0.061171809
0.063581761
0.063114766
0.06171495
0.05998343
0.059603538
0.059217927
0.062612034
0.060262583
0.055186507
0.05414933
0.055788142
0.057606067
0.057360119
0.060538369
0.060378675
0.056658057
0.055724357
0.056280858
0.05643123
0.05729495
0.057201954
0.058475958
0.060416616
0.059857176
0.058838728
0.059321571
0.059802019
0.059912355
0.058779777
0.059608274
0.059499104
0.057831761
0.056466962
0.05928237
0.061680683
0.059808416
0.05835515
0.061109954
0.062127468
0.061266002
0.060029949
0.057450667
0.056878234
0.056675766
0.064431599
0.061560867
0.053965768
0.051244845
0.052121369
0.054081883
0.053977059
0.059908207
0.060544296
0.055271927
0.052882988
0.052945341
0.053262951
0.054939586
0.055088947
0.057612214
0.061550727
0.060983046
0.059736988
0.058693077
0.057975845
0.058446221
0.057317844
0.059203365
0.05910802
0.056368482
0.053783417
0.057494855
0.061506317
0.058631682
0.06045172
0.060127461
0.058871361
0.057846329
0.057734828
0.054215962
0.053055384
0.052975445
0.065644486
0.062645867
0.053198349
0.048430926
0.047933146
0.049747079
0.049649235
0.0579218
0.0592707
0.053455927
0.049615795
0.048937036
0.049302289
0.051506962
0.051683887
0.055297794
0.061439961
0.061378598
0.062857521
0.059054846
0.055093436
0.055611174
0.05452557
0.058082616
0.058848155
0.055594534
0.050772079
0.054405229
0.059987734
0.056003986
0.061777077
0.060611333
0.054234332
0.052829373
0.05536242
0.051337695
0.048402477
0.048070723
0.064303084
0.063532295
0.05410598
0.046719589
0.043715965
0.044993944
0.044768393
0.053862658
0.055766211
0.051956573
0.046745839
0.044800249
0.045001737
0.047232895
0.047274165
0.051201618
0.059128239
0.060087662
0.070713844
0.063670414
0.052264133
0.051537038
0.050402325
0.055873894
0.059004427
0.057882549
0.048465152
0.049922892
0.057022666
0.052230212
0.058478498
0.066401189
0.047862652
0.044319061
0.050886477
0.049663406
0.041969181
0.040764338
0.056245253
0.067761241
0.05832218
0.047420141
0.039442073
0.03953159
0.038989008
0.046352639
0.049160288
0.050595732
0.044735253
0.040329566
0.040070048
0.041641036
0.041344953
0.044379102
0.051659654
0.053812077
0.079084913
0.076390047
0.051541939
0.045219701
0.043910049
0.049989787
0.057811018
0.067522811
0.047840946
0.043891896
0.050851107
0.045818654
0.049118714
0.10073487
0.035277466
0.025271361
0.041154266
0.048123209
0.022662388
0.022918464
0.040023334
0.085782245
0.068723665
0.043673074
0.017975993
0.018994168
0.019899361
0.029782824
0.027556867
0.04105011
0.031318178
0.019605849
0.019825555
0.022260486
0.021936472
0.027480847
0.037119909
0.038937479
0.092002511
0.053048473
0.049429613
0.028389089
0.025561376
0.036370769
0.051861321
0.10630134
0.041017119
0.026472347
0.037909459
0.029449627
0.00085243003
0.00094529991
0.0002894233
0.00024643209
0.00042331599
0.00032894607
0.00019757905
0.00023439305
0.00068959968
0.00073385958
0.00048627232
0.00025487559
0.00012723194
0.00015349634
0.00016760543
0.00034218197
0.00020216123
0.00031344207
0.000202069
0.00014534113
0.00015641694
0.00018706641
0.00018171714
0.00029656596
0.00049153104