/*--------------------------------*- C++ -*----------------------------------*\
  =========                 |
  \\      /  F ield         | OpenFOAM: The Open Source CFD Toolbox
   \\    /   O peration     | Website:  https://openfoam.org
    \\  /    A nd           | Version:  7
     \\/     M anipulation  |
\*---------------------------------------------------------------------------*/
FoamFile
{
    version     2.0;
    format      ascii;
    class       volScalarField;
    location    "2000";
    object      p;
}
// * * * * * * * * * * * * * * * * * * * * * * * * * * * * * * * * * * * * * //

dimensions      [0 2 -2 0 0 0 0];

internalField   nonuniform List<scalar> 
15296
(
1.7993557
1.7920066
1.7884668
1.7854639
1.7823591
1.7794662
1.7767765
1.7741847
1.7716577
1.7691858
1.7667572
1.7643624
1.7619926
1.7596373
1.7572874
1.7549365
1.7525824
1.7502265
1.747875
1.7455433
1.7432614
1.7410797
1.7390772
1.7373702
1.7361258
1.7355872
1.7361203
1.7382763
1.7429076
1.7512972
1.7655388
1.7888131
1.8269421
1.8894078
1.997561
2.186673
2.5506475
3.2742631
1.7993597
1.7920088
1.7884615
1.7854573
1.7823523
1.7794585
1.7767685
1.7741766
1.7716499
1.7691784
1.7667501
1.7643558
1.7619863
1.7596312
1.7572814
1.7549306
1.7525765
1.7502204
1.7478687
1.7455365
1.7432535
1.7410698
1.7390637
1.7373507
1.7360966
1.7355423
1.7360507
1.7381678
1.742738
1.751031
1.7651182
1.7881394
1.8258399
1.8875575
1.9948203
2.1822107
2.5418354
3.2525364
1.7993661
1.7920121
1.7884651
1.7854627
1.7823591
1.7794665
1.7767775
1.7741869
1.7716613
1.7691908
1.7667635
1.7643699
1.7620011
1.7596466
1.7572974
1.7549472
1.7525937
1.7502384
1.7478874
1.745556
1.7432736
1.7410901
1.7390835
1.7373686
1.7361104
1.7355487
1.7360444
1.7381405
1.7426768
1.7509151
1.7649144
1.7877904
1.8252461
1.8865326
1.9928793
2.1783973
2.53388
3.2289248
1.7993701
1.7920152
1.7884675
1.7854671
1.7823647
1.7794731
1.7767851
1.7741956
1.7716711
1.7692016
1.7667752
1.7643823
1.7620141
1.7596601
1.7573113
1.7549615
1.7526086
1.7502539
1.7479036
1.7455729
1.7432911
1.7411078
1.7391005
1.7373834
1.7361207
1.7355509
1.7360329
1.7381063
1.7426061
1.7507857
1.7646912
1.7874125
1.8246079
1.8854377
1.9908753
2.174551
2.526073
3.2068049
1.799373
1.7920185
1.7884695
1.785471
1.78237
1.7794792
1.7767923
1.7742039
1.7716805
1.769212
1.7667864
1.7643943
1.7620265
1.7596728
1.7573243
1.7549749
1.7526224
1.7502683
1.7479188
1.7455889
1.7433078
1.7411247
1.7391167
1.7373974
1.7361302
1.7355521
1.73602
1.7380703
1.7425331
1.750653
1.7644632
1.7870277
1.8239596
1.884318
1.9888463
2.1706904
2.5183264
3.1854241
1.7993755
1.7920233
1.7884711
1.7854755
1.7823762
1.7794865
1.7768009
1.774214
1.771692
1.7692248
1.7668003
1.764409
1.7620419
1.7596887
1.7573407
1.7549917
1.7526399
1.7502865
1.7479379
1.7456089
1.7433285
1.7411456
1.7391366
1.7374144
1.7361411
1.7355521
1.7360017
1.7380219
1.7424363
1.7504786
1.7641645
1.7865246
1.8231135
1.8828536
1.9862173
2.1657106
2.5084356
3.1586195
1.7993787
1.7920294
1.7884724
1.7854809
1.7823836
1.7794954
1.7768115
1.7742263
1.7717061
1.7692405
1.7668175
1.7644274
1.7620613
1.7597089
1.7573615
1.7550134
1.7526623
1.75031
1.7479624
1.7456345
1.7433549
1.741172
1.7391616
1.7374355
1.7361544
1.7355517
1.7359782
1.7379606
1.7423141
1.7502586
1.763788
1.7858905
1.8220478
1.8809863
1.9829057
2.159434
2.4961583
3.1253559
1.7993806
1.7920363
1.7884729
1.7854865
1.7823916
1.7795049
1.7768229
1.7742398
1.7717216
1.7692579
1.7668365
1.7644478
1.7620827
1.7597312
1.7573847
1.7550373
1.7526872
1.7503359
1.7479896
1.7456628
1.7433841
1.7412012
1.7391892
1.7374587
1.7361691
1.735551
1.7359517
1.7378917
1.7421771
1.7500123
1.7633668
1.7851816
1.8208584
1.8788897
1.9792147
2.1524387
2.4826258
3.0895191
1.7993791
1.7920444
1.7884719
1.7854921
1.7823999
1.7795148
1.776835
1.7742543
1.7717383
1.7692767
1.7668572
1.7644701
1.7621062
1.7597557
1.75741
1.7550635
1.7527144
1.7503643
1.7480193
1.7456938
1.7434161
1.7412332
1.7392194
1.737484
1.7361847
1.7355495
1.7359213
1.7378141
1.7420236
1.749737
1.7628967
1.7843912
1.8195348
1.8765587
1.9751171
2.1446794
2.4678321
3.0526495
1.7993718
1.7920537
1.7884688
1.7854973
1.7824082
1.779525
1.7768477
1.7742697
1.7717563
1.7692971
1.7668797
1.7644943
1.7621319
1.7597825
1.7574378
1.7550923
1.7527443
1.7503955
1.748052
1.7457279
1.7434512
1.7412683
1.7392523
1.7375114
1.7362012
1.7355467
1.7358862
1.737726
1.7418505
1.7494275
1.7623693
1.7835057
1.8180549
1.8739598
1.9705497
2.1360282
2.451533
3.0133911
1.7993598
1.7920646
1.7884632
1.7855021
1.7824167
1.7795355
1.776861
1.7742861
1.7717756
1.7693192
1.7669042
1.7645209
1.7621601
1.759812
1.7574684
1.755124
1.7527773
1.75043
1.748088
1.7457655
1.7434898
1.7413068
1.7392884
1.7375411
1.7362185
1.7355422
1.7358452
1.7376255
1.7416543
1.7490779
1.7617749
1.7825092
1.8163937
1.8710511
1.9654442
2.126344
2.4334988
2.9690266
1.7993418
1.7920771
1.7884541
1.7855058
1.7824248
1.7795457
1.7768746
1.7743032
1.771796
1.7693426
1.7669304
1.7645494
1.7621904
1.7598438
1.7575016
1.7551584
1.7528131
1.7504673
1.7481271
1.7458063
1.7435317
1.7413484
1.7393271
1.7375727
1.7362362
1.7355355
1.7357977
1.7375115
1.7414339
1.7486868
1.7611114
1.7813988
1.8145478
1.8678296
1.9598022
2.115617
2.4138151
2.9204857
1.7993169
1.7920909
1.7884403
1.7855079
1.7824321
1.7795553
1.7768879
1.7743206
1.771817
1.769367
1.766958
1.7645796
1.7622227
1.7598778
1.757537
1.7551952
1.7528513
1.7505073
1.748169
1.74585
1.7435766
1.7413929
1.7393684
1.7376058
1.7362537
1.7355258
1.7357427
1.7373827
1.741187
1.7482508
1.7603741
1.7801677
1.8125073
1.8642813
1.9536088
2.1038103
2.3924613
2.8685398
1.799282
1.7921062
1.7884206
1.7855075
1.782438
1.7795638
1.7769007
1.774338
1.7718386
1.7693925
1.766987
1.7646115
1.7622571
1.7599141
1.7575749
1.7552346
1.7528923
1.7505502
1.7482139
1.7458969
1.7436247
1.7414405
1.7394122
1.7376405
1.7362707
1.7355122
1.7356782
1.7372356
1.7409078
1.7477606
1.7595478
1.7787914
1.8102336
1.8603441
1.9467656
2.0907383
2.3690868
2.8129149
1.7992337
1.7921246
1.7883935
1.7855036
1.7824421
1.7795705
1.7769125
1.7743551
1.7718604
1.7694187
1.7670171
1.764645
1.7622933
1.7599526
1.7576152
1.7552767
1.7529361
1.7505959
1.7482619
1.7459469
1.743676
1.7414912
1.7394585
1.7376762
1.7362864
1.7354932
1.7356019
1.7370666
1.7405909
1.7472077
1.7586196
1.7772502
1.8076961
1.8559737
1.9392029
2.0762912
2.3434377
2.7537615
1.7991558
1.7921487
1.7883512
1.7854917
1.7824427
1.7795743
1.776923
1.7743728
1.7718844
1.7694485
1.7670521
1.7646846
1.7623368
1.7599993
1.7576647
1.7553287
1.7529907
1.7506531
1.7483218
1.7460093
1.7437398
1.7415536
1.7395146
1.737718
1.7363012
1.7354617
1.7354943
1.7368365
1.7401661
1.7464733
1.7573931
1.7752224
1.8043696
1.8502862
1.9293993
2.0576181
2.3102312
2.6806167
1.7990645
1.7921604
1.7882936
1.785468
1.7824354
1.7795714
1.7769284
1.7743872
1.7719066
1.7694777
1.7670879
1.7647261
1.7623831
1.7600498
1.757719
1.7553863
1.7530514
1.750717
1.7483889
1.7460791
1.7438107
1.7416225
1.7395754
1.7377608
1.7363109
1.735415
1.7353555
1.73655
1.7396458
1.7455818
1.7559148
1.7727893
1.8004075
1.8435698
1.9179535
2.0357895
2.2715348
2.5984951
1.7989614
1.7921559
1.7882256
1.7854319
1.7824185
1.7795596
1.7769257
1.7743945
1.7719223
1.7695011
1.7671181
1.7647624
1.7624246
1.7600957
1.7577686
1.7554393
1.7531075
1.7507763
1.7484512
1.7461439
1.7438764
1.7416856
1.7396298
1.7377961
1.7363112
1.7353558
1.7351996
1.7362393
1.7390908
1.7446403
1.7543645
1.7702513
1.796301
1.8366754
1.9063453
2.0137787
2.2322767
2.5194513
1.7988427
1.7921378
1.7881454
1.7853807
1.7823898
1.779537
1.7769131
1.7743929
1.7719299
1.7695168
1.7671413
1.764792
1.7624596
1.7601353
1.7578121
1.7554861
1.7531575
1.7508294
1.7485072
1.7462022
1.7439352
1.7417414
1.7396759
1.7378219
1.7362999
1.7352822
1.7350246
1.7359029
1.7385004
1.7436494
1.7527451
1.767616
1.7920605
1.8296293
1.8945528
1.9918205
2.1926887
2.4439965
1.798699
1.792098
1.7880481
1.7853114
1.7823468
1.7795018
1.7768886
1.7743806
1.7719278
1.7695234
1.7671557
1.7648132
1.7624867
1.7601671
1.757848
1.7555255
1.7532001
1.7508749
1.7485556
1.7462526
1.7439857
1.7417881
1.739712
1.7378363
1.7362752
1.7351919
1.7348285
1.7355389
1.737873
1.7426082
1.751057
1.7648874
1.7876893
1.822447
1.8824931
1.9700867
2.1529672
2.3722421
1.7985301
1.7920321
1.7879306
1.7852217
1.7822875
1.779452
1.7768507
1.7743561
1.7719143
1.7695193
1.76716
1.7648249
1.7625045
1.76019
1.757875
1.7555561
1.7532339
1.7509118
1.7485951
1.7462937
1.7440263
1.7418242
1.7397364
1.7378374
1.736235
1.7350828
1.7346085
1.7351439
1.7372046
1.7415123
1.7492947
1.7620607
1.78318
1.8151262
1.8702158
1.9486951
2.1132226
2.304027
1.7983369
1.791946
1.7877963
1.7851115
1.7822103
1.7793861
1.7767975
1.7743176
1.7718878
1.7695028
1.7671525
1.7648252
1.7625112
1.760202
1.7578914
1.7555762
1.7532571
1.7509379
1.7486237
1.7463235
1.7440549
1.7418474
1.7397468
1.7378228
1.7361766
1.7349521
1.7343622
1.7347158
1.7364936
1.7403608
1.7474593
1.7591416
1.7785445
1.8076933
1.8578723
1.9277622
2.0737625
2.2394158
1.7981146
1.7918339
1.7876412
1.7849782
1.7821126
1.7793016
1.7767268
1.7742627
1.7718459
1.7694717
1.7671309
1.7648118
1.7625047
1.760201
1.7578948
1.7555833
1.7532674
1.7509509
1.7486388
1.7463394
1.744069
1.7418551
1.7397403
1.7377895
1.7360973
1.7347971
1.7340869
1.7342522
1.7357384
1.7391543
1.7455536
1.7561391
1.7738
1.8001744
1.8455071
1.9072346
2.0349371
2.1784762
1.797864
1.7916884
1.7874585
1.7848168
1.78199
1.7791952
1.7766356
1.7741888
1.7717862
1.7694236
1.7670929
1.7647828
1.7624829
1.7601848
1.7578831
1.7555751
1.7532622
1.7509484
1.7486381
1.7463389
1.7440658
1.7418443
1.7397138
1.7377345
1.7359937
1.7346145
1.7337792
1.7337501
1.7349363
1.7378906
1.7435772
1.7530568
1.7689564
1.7925857
1.8331082
1.8871333
1.9970998
2.1211402
1.7975697
1.7915006
1.7872428
1.7846227
1.7818381
1.7790632
1.7765209
1.7740933
1.7717063
1.7693562
1.7670363
1.7647357
1.7624434
1.7601511
1.7578538
1.7555492
1.7532391
1.7509276
1.7486187
1.746319
1.7440422
1.7418118
1.7396641
1.7376542
1.7358622
1.7344006
1.7334354
1.7332055
1.7340834
1.7365667
1.7415279
1.7498957
1.76402
1.7849508
1.8206868
1.86771
1.9604712
2.0672695
1.797241
1.7912692
1.7869914
1.7843936
1.781654
1.7789029
1.7763803
1.7739736
1.7716038
1.769267
1.7669587
1.7646681
1.7623839
1.7600974
1.7578043
1.7555028
1.7531949
1.7508854
1.7485776
1.7462766
1.7439949
1.7417541
1.7395874
1.7375448
1.7356989
1.7341512
1.7330515
1.7326148
1.7331766
1.7351805
1.7394057
1.7466607
1.7590031
1.7773004
1.8082782
1.8490269
1.9252574
2.0168311
1.7968729
1.7909911
1.7867027
1.7841288
1.7814361
1.7787124
1.776212
1.7738279
1.7714763
1.7691536
1.7668573
1.7645775
1.7623016
1.7600207
1.7577315
1.7554324
1.7531263
1.7508181
1.7485108
1.7462077
1.7439198
1.741667
1.7394793
1.7374017
1.7354993
1.7338621
1.7326234
1.7319743
1.732213
1.7337311
1.7372129
1.7433595
1.753924
1.7696678
1.7959632
1.8309705
1.8920139
1.9698887
1.7964496
1.7906588
1.7863707
1.7838238
1.7811805
1.7784884
1.7760131
1.7736534
1.7713211
1.7690131
1.7667294
1.764461
1.7621936
1.759918
1.757632
1.7553345
1.7530293
1.7507219
1.7484145
1.7461083
1.7438127
1.7415461
1.7393353
1.7372204
1.7352586
1.7335284
1.7321462
1.7312794
1.7311883
1.7322148
1.7349472
1.7399921
1.7487911
1.7620618
1.7838106
1.813451
1.8610157
1.9263596
1.7959622
1.7902672
1.7859893
1.783473
1.780881
1.778225
1.7757787
1.7734455
1.7711337
1.7688411
1.7665706
1.7643148
1.7620563
1.7597856
1.7575019
1.7552049
1.7528995
1.7505922
1.7482841
1.7459738
1.7436687
1.7413862
1.7391501
1.7369956
1.7349716
1.7331452
1.7316154
1.730526
1.7300991
1.7306292
1.7326094
1.7365623
1.7436202
1.7544972
1.7718943
1.7964512
1.8320448
1.8864993
1.795393
1.7897947
1.7855412
1.783064
1.7805275
1.7779141
1.7755024
1.7731986
1.7709087
1.7686322
1.7663761
1.7641343
1.7618854
1.7596191
1.7573365
1.7550386
1.7527316
1.7504235
1.7481144
1.7457991
1.7434825
1.7411816
1.7389179
1.7367213
1.7346326
1.7327071
1.7310263
1.7297103
1.7289431
1.7289741
1.7302031
1.7330776
1.7384329
1.746997
1.7602874
1.7800317
1.8050127
1.8500036
1.7947559
1.7892393
1.7850234
1.7825936
1.7801151
1.7775509
1.7751804
1.7729089
1.7706418
1.7683818
1.766141
1.763916
1.7616775
1.7594146
1.7571317
1.7548308
1.7525203
1.7502104
1.7479006
1.7455792
1.7432486
1.7409266
1.7386331
1.7363925
1.7342368
1.7322095
1.7303751
1.7288297
1.727719
1.7272498
1.7277326
1.7295455
1.7332494
1.7395836
1.7490487
1.764235
1.7800053
1.8162407
1.7940136
1.7885805
1.7844331
1.782064
1.779645
1.7771367
1.774814
1.7725763
1.7703313
1.7680867
1.7658623
1.7636576
1.7614303
1.7591692
1.7568832
1.7545766
1.7522597
1.7499471
1.7476374
1.7453093
1.7429616
1.7406156
1.7382902
1.7360046
1.7337801
1.7316496
1.7296608
1.7278855
1.7264302
1.7254624
1.725209
1.7259827
1.7281001
1.7322973
1.7382424
1.7491462
1.7570355
1.7852983
1.7932174
1.7878311
1.783778
1.7814802
1.77912
1.7766762
1.7744098
1.7722075
1.7699827
1.7677511
1.7655446
1.7633662
1.7611515
1.7588897
1.7565973
1.7542813
1.7519544
1.7496384
1.7473326
1.7449981
1.7426299
1.7402574
1.7379007
1.735572
1.7332805
1.7310499
1.7289142
1.7269203
1.725135
1.7236921
1.7227445
1.7225453
1.7232063
1.7254506
1.7282995
1.7353877
1.7368081
1.7582427
1.7923775
1.7870236
1.7830982
1.7808816
1.7785785
1.7762055
1.7740008
1.7718315
1.769621
1.7673961
1.7652081
1.7630639
1.7608629
1.7585973
1.7562947
1.7539664
1.7516251
1.7493061
1.7470117
1.7446729
1.7422812
1.7398821
1.7374987
1.7351337
1.732781
1.7304598
1.7281966
1.7260127
1.7239348
1.7220725
1.7205159
1.7194689
1.7188845
1.7194725
1.7197714
1.7237144
1.7201201
1.736144
1.7915359
1.7862157
1.7824372
1.7803009
1.7780515
1.7757527
1.7736107
1.7714691
1.7692642
1.7670366
1.7648674
1.762767
1.7605805
1.7583068
1.7559903
1.7536478
1.7512868
1.7489672
1.7466962
1.744356
1.7419377
1.7395131
1.737111
1.7347197
1.7323123
1.7299109
1.7275434
1.7252035
1.7228761
1.7206574
1.7185844
1.7168224
1.7152064
1.7144352
1.7126899
1.7141148
1.7067262
1.7185028
1.7906934
1.7854113
1.7817941
1.7797345
1.7775394
1.7753196
1.7732412
1.7711217
1.7689131
1.7666712
1.7645228
1.7624802
1.7603095
1.7580222
1.7556882
1.7533313
1.7509439
1.7486287
1.7463986
1.7440593
1.7416097
1.7391613
1.7367507
1.7343445
1.7318868
1.7294122
1.7269623
1.7244983
1.7219582
1.7194387
1.7169274
1.7145613
1.7120905
1.7102048
1.7068123
1.7062172
1.6959292
1.7043237
1.7898578
1.7846243
1.7811786
1.7791875
1.7770481
1.7749119
1.772896
1.7707922
1.7685689
1.7662983
1.7641745
1.7622083
1.7600552
1.757747
1.7553932
1.7530238
1.7506006
1.748299
1.7461328
1.743794
1.7413062
1.7388362
1.7364292
1.7340206
1.7315134
1.7289682
1.7264565
1.7238983
1.7211768
1.7184055
1.7155217
1.7126441
1.7094663
1.7066675
1.701944
1.6997288
1.6872051
1.6928816
1.7890022
1.7838506
1.7805881
1.7786549
1.7765761
1.7745292
1.7725741
1.7704797
1.7682307
1.7659136
1.7638213
1.7619567
1.7598232
1.7574848
1.7551114
1.7527335
1.7502617
1.7479876
1.7459133
1.7435697
1.7410344
1.7385448
1.736155
1.7337574
1.7311973
1.7285784
1.7260243
1.7234004
1.7205238
1.7175446
1.7143431
1.7110311
1.7072701
1.7037245
1.6979256
1.6944132
1.6801519
1.6836307
1.7881425
1.783105
1.7800288
1.7781376
1.7761251
1.7741722
1.772274
1.7701835
1.7678974
1.7655124
1.7634632
1.7617325
1.7596205
1.7572397
1.7548502
1.7524693
1.749931
1.7477044
1.7457528
1.743392
1.7407981
1.7382909
1.735933
1.7335608
1.7309396
1.7282374
1.7256597
1.7229983
1.7199887
1.7168407
1.7133666
1.7096846
1.7054443
1.7012882
1.6946239
1.6900768
1.6744556
1.6761515
1.7872755
1.7823896
1.7794975
1.7776294
1.775692
1.773838
1.7719914
1.7699022
1.7675686
1.7650903
1.763102
1.761545
1.7594548
1.7570162
1.754618
1.7522395
1.7496111
1.7474586
1.7456605
1.7432618
1.740598
1.7380749
1.7357641
1.733433
1.7307379
1.7279363
1.7253534
1.7226839
1.7195595
1.7162773
1.7125675
1.7085694
1.7039366
1.6992814
1.6919276
1.68656
1.6698672
1.6701161
1.7863918
1.781703
1.778989
1.777125
1.7752748
1.7735248
1.7717229
1.7696364
1.7672467
1.7646451
1.762743
1.7614064
1.7593346
1.7568187
1.7544232
1.7520504
1.7493023
1.7472574
1.7456415
1.7431755
1.7404318
1.7378944
1.7356461
1.7333739
1.7305881
1.7276641
1.725095
1.7224482
1.7192242
1.7158379
1.711922
1.707654
1.7026995
1.6976362
1.6897428
1.68373
1.6661872
1.6652654
1.7854834
1.7810515
1.7785026
1.7766218
1.7748733
1.7732321
1.7714664
1.7693904
1.7669377
1.764177
1.7623952
1.7613297
1.7592671
1.7566505
1.7542731
1.7519055
1.7490029
1.7471065
1.7456961
1.7431259
1.740296
1.7377453
1.7355748
1.7333817
1.7304859
1.7274093
1.7248735
1.7222834
1.7189718
1.7155061
1.7114083
1.7069112
1.7016908
1.6962934
1.6879913
1.6814768
1.6632553
1.6613931
1.7845408
1.7804426
1.7780377
1.7761183
1.7744882
1.7729607
1.7712219
1.7691722
1.7666505
1.7636886
1.7620699
1.7613275
1.7592567
1.7565128
1.7541725
1.7518045
1.7487097
1.747009
1.7458203
1.7431038
1.7401866
1.7376234
1.7355449
1.7334542
1.7304273
1.7271614
1.7246784
1.7221828
1.7187929
1.7152662
1.7110069
1.7063186
1.7008728
1.6952026
1.6866079
1.6797091
1.6609426
1.6583337
1.7835564
1.7798738
1.7775864
1.7756101
1.7741197
1.7727134
1.7709919
1.7689932
1.7663963
1.7631832
1.7617793
1.7614093
1.7593036
1.7564047
1.7541235
1.7517442
1.7484189
1.7469667
1.7460072
1.7430996
1.7401002
1.7375244
1.7355511
1.7335887
1.7304102
1.7269112
1.7245006
1.7221414
1.7186796
1.7151029
1.7107013
1.7058582
1.700212
1.6943207
1.6855385
1.6783508
1.6591441
1.6559524
1.7825377
1.7793481
1.7771455
1.7750982
1.773773
1.7724975
1.770783
1.7688684
1.7661865
1.7626642
1.7615354
1.7615803
1.7594039
1.7563234
1.7541262
1.7517202
1.7481279
1.7469802
1.7462478
1.7431046
1.7400346
1.737446
1.7355891
1.733783
1.7304342
1.7266518
1.7243319
1.7221559
1.7186258
1.7150017
1.7104778
1.7055165
1.6996789
1.6936122
1.6847383
1.6773389
1.657775
1.6541391
1.7814847
1.7788658
1.7767121
1.7745872
1.7734581
1.7723242
1.7706036
1.7688119
1.7660295
1.7621339
1.761348
1.7618408
1.7595499
1.7562652
1.7541784
1.7517267
1.7478355
1.7470478
1.7465316
1.7431118
1.7399888
1.7373871
1.7356548
1.7340329
1.7304993
1.7263781
1.7241661
1.7222242
1.7186252
1.7149477
1.7103247
1.7052831
1.6992469
1.6930475
1.6841698
1.6766204
1.6567633
1.6527997
1.7803893
1.778426
1.7762882
1.7740914
1.7731934
1.7722092
1.7704633
1.7688356
1.7659316
1.7615981
1.7612291
1.7621876
1.7597315
1.7562256
1.754276
1.7517603
1.7475471
1.7471705
1.7468481
1.7431157
1.7399631
1.7373496
1.7357451
1.7343342
1.73061
1.7260907
1.7239987
1.7223435
1.7186707
1.7149273
1.7102365
1.7051525
1.6988931
1.6926026
1.6838021
1.6761512
1.65605
1.6518578
1.7792551
1.7780241
1.7758773
1.7736294
1.7729975
1.772163
1.7703645
1.7689425
1.7658913
1.7610598
1.7611849
1.7626094
1.7599334
1.7561986
1.7544119
1.7518185
1.7472688
1.7473422
1.7471821
1.7431104
1.7399575
1.7373347
1.7358535
1.7346774
1.7307665
1.7257872
1.7238234
1.722508
1.7187511
1.7149249
1.7102065
1.7051145
1.6985917
1.6922555
1.6836063
1.6758937
1.6555753
1.6512461
1.7780942
1.777652
1.7755003
1.773247
1.7729058
1.7722005
1.7703088
1.7691394
1.7659147
1.7605312
1.761233
1.7631005
1.7601421
1.7561804
1.7545819
1.7519106
1.7470253
1.7475688
1.7475211
1.7430917
1.7399778
1.7373506
1.7359793
1.7350675
1.7309892
1.7254669
1.7236232
1.7227109
1.7188623
1.7149405
1.710253
1.7051744
1.6983182
1.6919921
1.6835625
1.675834
1.6552957
1.6509475
1.7770914
1.7773613
1.7752631
1.7730197
1.7729245
1.7723127
1.7702968
1.7694546
1.7659923
1.7599691
1.7613034
1.7635776
1.7603537
1.7562049
1.7547964
1.75204
1.746811
1.7477674
1.7478013
1.7430854
1.7400548
1.737409
1.7361153
1.7355139
1.7312665
1.7250151
1.723292
1.7229613
1.7190609
1.7149968
1.7103846
1.7052985
1.6980264
1.6918303
1.6836763
1.6760058
1.65523
1.6509264
1.7762336
1.7771402
1.775167
1.7729346
1.773003
1.7724449
1.7703034
1.7698175
1.7660849
1.7594267
1.7613593
1.763966
1.7605408
1.7562651
1.7550169
1.7521794
1.74664
1.7478927
1.7479871
1.7430948
1.7401653
1.7374921
1.7362355
1.7359494
1.7315513
1.724482
1.7228651
1.7232122
1.7193037
1.7150673
1.7105572
1.705424
1.6977151
1.6917326
1.6838738
1.6762664
1.6553345
1.650927
1.7754143
1.7769576
1.7751594
1.7729436
1.773126
1.7725895
1.7703158
1.7702179
1.7661926
1.7588974
1.7614307
1.7643219
1.7607147
1.7563461
1.7552436
1.7523369
1.7465018
1.7479844
1.7481307
1.7431142
1.7402956
1.7375944
1.7363408
1.7363862
1.7318678
1.7239018
1.7223803
1.7234744
1.7195645
1.7151365
1.7107665
1.7055568
1.6973762
1.6916672
1.6841193
1.6765766
1.6555081
1.6509376
1.7746648
1.7768292
1.7752302
1.7730269
1.7732804
1.7727389
1.7703333
1.7706334
1.7663062
1.7583985
1.7615167
1.7646474
1.7608782
1.7564453
1.7554717
1.7525036
1.7463873
1.7480482
1.7482502
1.7431475
1.7404383
1.7377104
1.7364279
1.7368033
1.7321992
1.7233108
1.7218788
1.7237427
1.7198257
1.7151965
1.7109924
1.7056904
1.6970332
1.6916332
1.6843923
1.6769125
1.6557062
1.6509699
1.7740017
1.7767608
1.7753651
1.7731621
1.7734527
1.7728885
1.7703551
1.7710522
1.7664145
1.7579277
1.7616093
1.7649416
1.7610323
1.756561
1.7557009
1.7526697
1.7462848
1.7480862
1.7483535
1.7431943
1.7405884
1.7378362
1.736498
1.7371915
1.7325305
1.7227172
1.7213734
1.7240135
1.7200824
1.7152445
1.7112208
1.7058173
1.6966936
1.6916248
1.6846789
1.6772586
1.6559104
1.6510223
1.7734385
1.7767537
1.7755463
1.7733297
1.7736342
1.7730385
1.7703836
1.7714652
1.7665076
1.7574845
1.761703
1.7652046
1.761177
1.7566917
1.7559315
1.7528284
1.7461891
1.7481041
1.7484468
1.7432538
1.7407431
1.7379718
1.7365576
1.7375453
1.732848
1.7221297
1.7208763
1.7242854
1.7203343
1.715283
1.7114435
1.7059337
1.6963643
1.6916367
1.6849694
1.6776056
1.6561138
1.6510949
1.7729833
1.776798
1.7757493
1.7735134
1.773819
1.7731903
1.7704193
1.7718589
1.766572
1.7570719
1.7617941
1.7654341
1.7613082
1.7568319
1.7561596
1.7529713
1.7461015
1.7481108
1.7485325
1.743321
1.7408971
1.7381154
1.7366127
1.7378573
1.7331406
1.7215594
1.7203951
1.7245533
1.7205814
1.7153151
1.7116554
1.7060361
1.6960491
1.6916613
1.6852533
1.6779446
1.6563141
1.6511898
1.7726446
1.7768809
1.7759587
1.7737108
1.7740094
1.7733479
1.7704655
1.7722244
1.7666125
1.7567041
1.761885
1.7656312
1.7614209
1.7569755
1.7563772
1.7531
1.7460336
1.7481204
1.7486152
1.7433916
1.741046
1.7382674
1.7366701
1.7381284
1.7334153
1.7210285
1.7199338
1.7248131
1.7208253
1.7153506
1.7118619
1.7061334
1.6957563
1.6916931
1.6855225
1.6782734
1.6565186
1.6513149
1.7724016
1.7769715
1.7761519
1.7739186
1.7741944
1.7735037
1.7705132
1.7725401
1.7666308
1.7564085
1.7619806
1.7657907
1.7615
1.7571004
1.7565575
1.7531981
1.746006
1.7481496
1.7486918
1.7434495
1.7411695
1.7384075
1.7367209
1.7383457
1.7336907
1.7205669
1.7194706
1.72504
1.7210549
1.7153871
1.7120638
1.7062253
1.6954886
1.6917175
1.6857539
1.6785661
1.6567313
1.65147
1.7722623
1.7770685
1.7763645
1.7741654
1.7743851
1.7736683
1.77058
1.7728203
1.7667275
1.7561963
1.7620874
1.7659301
1.7615512
1.7572068
1.7566856
1.7532994
1.7460269
1.748211
1.7487773
1.7434989
1.7412656
1.7385395
1.7367677
1.7385457
1.7340582
1.7202133
1.7189492
1.7252346
1.721284
1.7154527
1.7122905
1.7063688
1.6952647
1.6917337
1.6859455
1.6788371
1.656994
1.6516675
1.7721829
1.7771244
1.7765957
1.7744294
1.7745319
1.7738335
1.7706636
1.7730674
1.7668997
1.7560718
1.7622286
1.7660915
1.7616021
1.7572913
1.7567477
1.7533589
1.7461133
1.7483241
1.7488973
1.7435471
1.7413297
1.7386465
1.7367993
1.7387411
1.7345464
1.7199425
1.7181893
1.7253965
1.7215353
1.7155313
1.7125561
1.7065589
1.6950567
1.691732
1.6861186
1.6790733
1.65729
1.6518429
1.7721175
1.777143
1.7768218
1.7746123
1.7746092
1.7739546
1.7707289
1.7732215
1.7671704
1.755831
1.7623052
1.7662131
1.761603
1.7573066
1.7567116
1.7533689
1.7460803
1.7483841
1.7489812
1.7435423
1.7413164
1.7386845
1.7367757
1.7388823
1.7350333
1.7196647
1.7172741
1.7254544
1.7217514
1.7155883
1.7127409
1.7067587
1.6948041
1.6916689
1.6862283
1.6791988
1.657567
1.6518884
1.7719096
1.7771497
1.7770876
1.7747073
1.7746287
1.7741597
1.7708836
1.7733503
1.7671916
1.7556049
1.7624315
1.7664748
1.7617462
1.757413
1.7567457
1.7532945
1.7460834
1.7485062
1.749193
1.7436563
1.7413919
1.7387807
1.7368315
1.738976
1.735149
1.7191649
1.7157732
1.7253361
1.7220866
1.7156806
1.7128729
1.7068298
1.6944271
1.6915891
1.6864545
1.6792957
1.6577543
1.651833
1.7720826
1.7777047
1.7775876
1.7749147
1.7749836
1.7747185
1.7712609
1.7735534
1.767326
1.7560104
1.7629801
1.7670994
1.7621801
1.7577624
1.7570145
1.7534808
1.7465729
1.7489853
1.7497255
1.7440545
1.7417302
1.7391205
1.7371307
1.7391571
1.7353627
1.7188754
1.7154941
1.7264146
1.7227917
1.716022
1.7131223
1.70701
1.6946305
1.6921408
1.6870887
1.6795695
1.6582025
1.6517965
1.7732604
1.7786901
1.7780967
1.775215
1.7756182
1.7752831
1.7716402
1.7738569
1.7680379
1.7564475
1.76362
1.767629
1.7625264
1.7580871
1.7573245
1.7539345
1.7470283
1.7495197
1.7501786
1.7443999
1.7420583
1.7394764
1.7374669
1.7394839
1.7360998
1.719286
1.7175052
1.7281877
1.7234317
1.7164526
1.7134273
1.7075099
1.6954129
1.693098
1.6876914
1.6799287
1.6589041
1.6519497
5.1818976
2.047662
1.6764298
1.4789733
1.2875059
1.1679811
1.0577075
0.95707254
0.86168984
0.76831711
0.6766386
0.58750342
0.50065521
0.41634838
0.33487622
0.25658605
0.18191217
0.11121494
0.04491351
-0.016441636
-0.072235468
-0.12183538
-0.1645373
-0.19910476
-0.22424404
-0.23292814
5.1455021
2.0734185
1.6843461
1.480569
1.2880784
1.167892
1.0573839
0.95664379
0.86123678
0.7678762
0.67621394
0.5870911
0.50024997
0.41594049
0.33445487
0.25614301
0.18143615
0.11069605
0.044349502
-0.017049706
-0.072884714
-0.12252131
-0.16525425
-0.19984529
-0.22500032
-0.23369174
5.0545827
2.0898751
1.6949622
1.4849767
1.2906631
1.1692798
1.0581732
0.95705123
0.86139552
0.76786288
0.67606878
0.58684179
0.4999198
0.41554336
0.33399999
0.25563711
0.18088491
0.11010168
0.043713995
-0.017722505
-0.073589768
-0.12325243
-0.16600452
-0.20060613
-0.22576506
-0.23446656
4.9526439
2.094994
1.7036622
1.4899189
1.2944204
1.1719113
1.0601476
0.9585815
0.86262111
0.76886489
0.67689133
0.58751444
0.50046783
0.41598671
0.33435438
0.25591548
0.1811009
0.11026562
0.04383233
-0.017643104
-0.073542352
-0.12322958
-0.1659987
-0.20060823
-0.22576946
-0.23449039
4.8815664
2.0985154
1.7095077
1.4935648
1.2977598
1.1744691
1.0621802
0.96024107
0.86403239
0.7701046
0.6779998
0.58851481
0.50137558
0.4168151
0.33511273
0.2566113
0.18174142
0.11085651
0.044378155
-0.017137012
-0.073070029
-0.12278437
-0.16557371
-0.20019485
-0.22536256
-0.23411217
4.8301544
2.1082517
1.7160744
1.4970223
1.3014111
1.1775055
1.0646981
0.9623239
0.86579875
0.77164107
0.67935802
0.58972982
0.50247304
0.41781354
0.33602562
0.25744848
0.18251189
0.11156738
0.045034618
-0.016529325
-0.07250437
-0.12225273
-0.16506754
-0.19970337
-0.22487949
-0.23367141
4.8092339
2.1265623
1.7258414
1.5010753
1.3055298
1.181139
1.0678728
0.96504081
0.86815163
0.77371353
0.68120458
0.59139226
0.50398473
0.41919738
0.33729893
0.25862423
0.1836015
0.11258056
0.04597881
-0.015646861
-0.071675269
-0.12146706
-0.16431471
-0.19897027
-0.22415919
-0.23301579
4.8079943
2.1484555
1.7388512
1.5061522
1.3098623
1.1849319
1.0713122
0.96808358
0.87084687
0.77611994
0.68336543
0.59334627
0.50576537
0.42082955
0.33880252
0.26001457
0.18489212
0.11378372
0.04710419
-0.014590578
-0.070678618
-0.12051899
-0.16340352
-0.19808203
-0.22328734
-0.23222758
4.7807163
2.1694124
1.7554186
1.5128432
1.3147071
1.1888826
1.0749062
0.97133913
0.8737967
0.77879778
0.68579689
0.59556143
0.5077945
0.42269626
0.34052687
0.26161262
0.1863782
0.11517166
0.048405587
-0.013365598
-0.069519401
-0.11941329
-0.16233848
-0.19704305
-0.22226845
-0.2313128
4.7083647
2.191728
1.7757608
1.5216499
1.3205782
1.1933077
1.078792
0.97486083
0.87703233
0.78177911
0.68853719
0.59808143
0.51011905
0.42484602
0.34252079
0.26346664
0.18810696
0.11679014
0.049927017
-0.011929771
-0.068157444
-0.1181119
-0.16108382
-0.19582022
-0.22107304
-0.23024784
4.6069798
2.222943
1.799472
1.5327474
1.3278179
1.1985133
1.0831483
0.97872115
0.88057272
0.78506396
0.6915829
0.60090497
0.51274105
0.42728362
0.34479097
0.2655845
0.19008689
0.11864789
0.051677314
-0.010274096
-0.066583425
-0.11660502
-0.15962911
-0.19440252
-0.21968942
-0.22902184
4.4907024
2.259703
1.8250294
1.545971
1.3365283
1.2046892
1.0881391
0.98300998
0.88444677
0.78864812
0.69491716
0.6040136
0.51564514
0.42999832
0.3473314
0.26796452
0.19232016
0.12075039
0.053664831
-0.0083875899
-0.064783929
-0.11487704
-0.15795679
-0.19277094
-0.21809817
-0.22761747
4.3624845
2.2891405
1.8505068
1.561063
1.3467283
1.2119479
1.0939147
0.9878526
0.88873107
0.79256636
0.6985485
0.607403
0.51882263
0.43298148
0.35013557
0.27060316
0.19480639
0.12310034
0.05589519
-0.0062618303
-0.062747841
-0.1129143
-0.15605088
-0.19090777
-0.21628075
-0.22601823
4.221196
2.3058783
1.8765521
1.5779089
1.3585194
1.2204486
1.1006752
0.9934536
0.89360255
0.79695631
0.70257903
0.6111497
0.52233372
0.43628345
0.35324799
0.2735414
0.19758431
0.12573486
0.058404234
-0.0038620665
-0.06044141
-0.11068407
-0.15387978
-0.18878305
-0.21420973
-0.22420258
4.0649926
2.3112742
1.9049881
1.5961577
1.3718052
1.2302258
1.1085079
0.99992897
0.89917777
0.80191258
0.70707268
0.61528959
0.52619339
0.43990524
0.35666131
0.27676761
0.20064085
0.12864142
0.061181399
-0.001195855
-0.05786845
-0.108186
-0.15143874
-0.1863881
-0.21187251
-0.22215719
3.8662666
2.3078758
1.9368373
1.6188671
1.3887168
1.2430493
1.1189259
1.0085872
0.90662224
0.80848495
0.71297346
0.62067465
0.53117677
0.44455778
0.36103337
0.28089601
0.20455439
0.13236979
0.064754499
0.0022483034
-0.05452897
-0.1049275
-0.14823912
-0.18323798
-0.20879236
-0.21946624
3.6455275
2.2923844
1.9625007
1.6460897
1.40825
1.2583997
1.131726
1.0193548
0.91593684
0.81671677
0.72033654
0.62735233
0.53731231
0.45024796
0.36635162
0.28589889
0.2092868
0.13687525
0.069075156
0.0064206981
-0.050472247
-0.10095647
-0.14432744
-0.17937886
-0.20501977
-0.21617971
3.4324267
2.2669534
1.9762615
1.6727228
1.4284589
1.2738129
1.1449683
1.0306836
0.92581852
0.82549198
0.7281923
0.63446135
0.54381565
0.45624683
0.37192811
0.29112018
0.21420816
0.14154921
0.073551833
0.010743458
-0.046265219
-0.096831584
-0.14025631
-0.175359
-0.20109311
-0.21277271
3.2308322
2.2343507
1.9806656
1.6943054
1.450687
1.2890808
1.1582531
1.0423498
0.93608681
0.83466076
0.73642756