/*--------------------------------*- C++ -*----------------------------------*\
  =========                 |
  \\      /  F ield         | OpenFOAM: The Open Source CFD Toolbox
   \\    /   O peration     | Website:  https://openfoam.org
    \\  /    A nd           | Version:  7
     \\/     M anipulation  |
\*---------------------------------------------------------------------------*/
FoamFile
{
    version     2.0;
    format      ascii;
    class       surfaceScalarField;
    location    "2000";
    object      phi;
}
// * * * * * * * * * * * * * * * * * * * * * * * * * * * * * * * * * * * * * //

dimensions      [0 3 -1 0 0 0 0];

internalField   nonuniform List<scalar> 
30289
(
4.5724973e-07
5.7731342e-09
4.5153544e-07
5.7142984e-09
4.4579538e-07
5.7400561e-09
4.4007125e-07
5.7241268e-09
4.3437404e-07
5.6972105e-09
4.2870284e-07
5.6712056e-09
4.230605e-07
5.6423367e-09
4.1745034e-07
5.610156e-09
4.1187441e-07
5.5759351e-09
4.0633414e-07
5.5402685e-09
4.0083059e-07
5.5035482e-09
3.9536437e-07
5.4662262e-09
3.8993568e-07
5.4286849e-09
3.8454448e-07
5.3912018e-09
3.7919049e-07
5.3539895e-09
3.7387328e-07
5.3172127e-09
3.685923e-07
5.2809793e-09
3.6334692e-07
5.2453802e-09
3.5813632e-07
5.2106024e-09
3.5295928e-07
5.177037e-09
3.4781395e-07
5.1453278e-09
3.4269754e-07
5.1164124e-09
3.376059e-07
5.0916351e-09
3.3253298e-07
5.0729188e-09
3.274699e-07
5.0630858e-09
3.2240359e-07
5.0663075e-09
3.1731452e-07
5.0890753e-09
3.1217335e-07
5.1411612e-09
3.0693462e-07
5.2387386e-09
3.0152835e-07
5.4062663e-09
2.9583946e-07
5.6888896e-09
2.8968103e-07
6.1584321e-09
2.8272553e-07
6.9555007e-09
2.7441884e-07
8.3066901e-09
2.6325049e-07
1.1168351e-08
2.4626659e-07
1.6983899e-08
2.1536905e-07
3.0897542e-08
1.4314203e-08
2.0105484e-07
1.3717465e-06
2.3108648e-08
1.3546019e-06
2.2858864e-08
1.3373825e-06
2.295948e-08
1.3202108e-06
2.289588e-08
1.3031197e-06
2.2788253e-08
1.2861067e-06
2.2684179e-08
1.2691803e-06
2.2568728e-08
1.2523504e-06
2.2440092e-08
1.235623e-06
2.230331e-08
1.2190026e-06
2.2160748e-08
1.2024921e-06
2.201396e-08
1.1860936e-06
2.1864734e-08
1.1698077e-06
2.1714585e-08
1.1536343e-06
2.156462e-08
1.1375726e-06
2.1415701e-08
1.1216213e-06
2.1268509e-08
1.1057788e-06
2.1123501e-08
1.0900431e-06
2.0981038e-08
1.0744119e-06
2.0841847e-08
1.0588815e-06
2.070747e-08
1.0434463e-06
2.0580477e-08
1.0280981e-06
2.0464623e-08
1.0128244e-06
2.0365282e-08
9.9760726e-07
2.0290109e-08
9.8242003e-07
2.0250317e-08
9.6722388e-07
2.0262449e-08
9.5196072e-07
2.0352242e-08
9.3654346e-07
2.0558418e-08
9.2083709e-07
2.0945105e-08
9.0463423e-07
2.1609131e-08
8.8759384e-07
2.2729279e-08
8.6916284e-07
2.4589435e-08
8.4837281e-07
2.7745529e-08
8.2360373e-07
3.3075771e-08
7.904215e-07
4.435058e-08
7.4023385e-07
6.7171553e-08
6.4795532e-07
1.2317606e-07
3.4789585e-08
6.2747994e-07
2.2862302e-06
5.2023342e-08
2.2576545e-06
5.1434588e-08
2.2289566e-06
5.1657397e-08
2.2003381e-06
5.1514347e-08
2.1718542e-06
5.1272133e-08
2.1435005e-06
5.1037876e-08
2.1152911e-06
5.0778176e-08
2.0872423e-06
5.0488911e-08
2.0593642e-06
5.0181358e-08
2.0316642e-06
4.9860813e-08
2.0041474e-06
4.9530748e-08
1.976817e-06
4.9195143e-08
1.9496742e-06
4.8857369e-08
1.9227189e-06
4.8519906e-08
1.8959499e-06
4.8184715e-08
1.869365e-06
4.7853377e-08
1.8429616e-06
4.7526964e-08
1.8167363e-06
4.7206296e-08
1.7906852e-06
4.6892958e-08
1.7648023e-06
4.6590374e-08
1.7390784e-06
4.6304315e-08
1.7134998e-06
4.6043244e-08
1.6880459e-06
4.5819247e-08
1.6626865e-06
4.5649502e-08
1.6373777e-06
4.5559094e-08
1.6120552e-06
4.5584974e-08
1.5866228e-06
4.5784607e-08
1.5609368e-06
4.6244404e-08
1.5347743e-06
4.7107588e-08
1.5077934e-06
4.8590081e-08
1.4794318e-06
5.1090839e-08
1.4487791e-06
5.5242136e-08
1.4142408e-06
6.2283884e-08
1.3731787e-06
7.4137855e-08
1.3183359e-06
9.9193381e-08
1.2358109e-06
1.4969653e-07
1.0868417e-06
2.7214525e-07
6.4198507e-08
1.0574328e-06
3.2006913e-06
9.2522642e-08
3.1606838e-06
9.1442016e-08
3.1205085e-06
9.1832755e-08
3.0804445e-06
9.1578311e-08
3.0405692e-06
9.1147471e-08
3.0008762e-06
9.0730857e-08
2.9613851e-06
9.0269293e-08
2.9221186e-06
8.9755346e-08
2.883091e-06
8.9208973e-08
2.8443123e-06
8.8639547e-08
2.8057898e-06
8.8053186e-08
2.7675281e-06
8.7456886e-08
2.7295289e-06
8.6856558e-08
2.6917922e-06
8.6256586e-08
2.6543165e-06
8.5660486e-08
2.6170987e-06
8.5071162e-08
2.580135e-06
8.4490614e-08
2.543421e-06
8.392031e-08
2.506951e-06
8.3362979e-08
2.4707168e-06
8.2824611e-08
2.4347056e-06
8.231544e-08
2.3988983e-06
8.1850543e-08
2.3632662e-06
8.1451428e-08
2.3277671e-06
8.1148556e-08
2.2923399e-06
8.0986295e-08
2.256895e-06
8.1029852e-08
2.221299e-06
8.1380604e-08
2.1853525e-06
8.219089e-08
2.1487467e-06
8.3713429e-08
2.1110082e-06
8.6328616e-08
2.0713591e-06
9.0739922e-08
2.0285415e-06
9.8059697e-08
1.9803508e-06
1.1047462e-07
1.9231811e-06
1.313075e-07
1.8470559e-06
1.7531867e-07
1.7330986e-06
2.6365374e-07
1.5275139e-06
4.7773002e-07
9.8212531e-08
1.4934999e-06
4.1151214e-06
1.4461418e-07
4.0636801e-06
1.428833e-07
4.0120288e-06
1.4348408e-07
3.9605209e-06
1.4308623e-07
3.9092557e-06
1.4241263e-07
3.8582252e-06
1.4176137e-07
3.8074542e-06
1.4104035e-07
3.7569717e-06
1.4023779e-07
3.706796e-06
1.3938474e-07
3.6569397e-06
1.3849576e-07
3.6074126e-06
1.3758034e-07
3.5582202e-06
1.3664924e-07
3.5093652e-06
1.3571157e-07
3.4608477e-06
1.3477411e-07
3.4126658e-06
1.338424e-07
3.3648158e-06
1.3292114e-07
3.3172928e-06
1.3201362e-07
3.270091e-06
1.3112215e-07
3.2232031e-06
1.3025086e-07
3.1766188e-06
1.2940894e-07
3.1303219e-06
1.2861232e-07
3.0842878e-06
1.2788461e-07
3.0384798e-06
1.2725949e-07
2.9928438e-06
1.2678448e-07
2.9473016e-06
1.2652858e-07
2.9017385e-06
1.2659294e-07
2.8559843e-06
1.2713474e-07
2.8097852e-06
1.2839e-07
2.7627481e-06
1.3075059e-07
2.7142712e-06
1.3480549e-07
2.6633662e-06
1.416449e-07
2.6084373e-06
1.5298861e-07
2.5466856e-06
1.7222635e-07
2.4735855e-06
2.0440752e-07
2.3765434e-06
2.7236076e-07
2.23208e-06
4.0811721e-07
1.9703879e-06
7.394221e-07
1.4789344e-07
1.920707e-06
8.1224624e-06
2.4745638e-07
8.0208986e-06
2.4444711e-07
7.9189571e-06
2.4542563e-07
7.8172975e-06
2.4474583e-07
7.7161166e-06
2.4359356e-07
7.6153997e-06
2.4247826e-07
7.515195e-06
2.4124503e-07
7.4155593e-06
2.3987351e-07
7.3165278e-06
2.3841617e-07
7.2181259e-06
2.368977e-07
7.1203722e-06
2.3533406e-07
7.0232781e-06
2.3374326e-07
6.9268493e-06
2.3214042e-07
6.8310865e-06
2.3053695e-07
6.7359864e-06
2.2894246e-07
6.6415421e-06
2.2736539e-07
6.5477439e-06
2.2581188e-07
6.45458e-06
2.24286e-07
6.3620365e-06
2.2279441e-07
6.2700931e-06
2.213523e-07
6.1787187e-06
2.199867e-07
6.0878652e-06
2.1873819e-07
5.9974601e-06
2.1766459e-07
5.9073974e-06
2.168471e-07
5.817523e-06
2.1640301e-07
5.7276124e-06
2.165036e-07
5.6373326e-06
2.1741448e-07
5.5461886e-06
2.1953403e-07
5.4534147e-06
2.2352448e-07
5.3578408e-06
2.3037937e-07
5.2575466e-06
2.4193916e-07
5.1494365e-06
2.6109868e-07
5.0280786e-06
2.9358425e-07
4.8848311e-06
3.4765503e-07
4.6954995e-06
4.6169232e-07
4.4157687e-06
6.8784806e-07
3.9071601e-06
1.2480306e-06
3.4404549e-07
3.7110081e-06
1.1784142e-05
3.96758e-07
1.1636757e-05
3.9183247e-07
1.1488872e-05
3.9331023e-07
1.1341397e-05
3.9222152e-07
1.1194616e-05
3.903744e-07
1.104851e-05
3.8858448e-07
1.0903147e-05
3.8660802e-07
1.0758608e-05
3.8441204e-07
1.0614945e-05
3.8207964e-07
1.0472192e-05
3.7965004e-07
1.0330378e-05
3.7714839e-07
1.0189519e-05
3.7460271e-07
1.0049623e-05
3.7203641e-07
9.9106922e-06
3.6946731e-07
9.7727237e-06
3.6691092e-07
9.6357076e-06
3.6438153e-07
9.4996296e-06
3.6188987e-07
9.3644728e-06
3.5944278e-07
9.230217e-06
3.5705026e-07
9.0968337e-06
3.5473557e-07
8.9642788e-06
3.5254156e-07
8.8324836e-06
3.5053346e-07
8.7013438e-06
3.4880437e-07
8.5707064e-06
3.4748448e-07
8.4403487e-06
3.4676067e-07
8.3099479e-06
3.4690444e-07
8.1790265e-06
3.4833586e-07
8.0468767e-06
3.5168387e-07
7.912406e-06
3.5799518e-07
7.7739484e-06
3.6883697e-07
7.6287721e-06
3.8711545e-07
7.4724869e-06
4.173839e-07
7.2973714e-06
4.6869972e-07
7.0913886e-06
5.5363777e-07
6.8205027e-06
7.3257831e-07
6.4245774e-06
1.0837733e-06
5.7006686e-06
1.9719394e-06
7.3955642e-07
5.3051577e-06
1.6641706e-05
6.0772522e-07
1.6433515e-05
6.000237e-07
1.6224692e-05
6.0213311e-07
1.6016447e-05
6.0046657e-07
1.5809184e-05
5.9763733e-07
1.5602876e-05
5.9489249e-07
1.5397618e-05
5.9186602e-07
1.5193523e-05
5.8850691e-07
1.4990662e-05
5.8494098e-07
1.4789084e-05
5.8122785e-07
1.4588827e-05
5.7740532e-07
1.4389915e-05
5.7351493e-07
1.419236e-05
5.6959096e-07
1.3996168e-05
5.6565972e-07
1.3801334e-05
5.6174497e-07
1.3607846e-05
5.5786975e-07
1.3415683e-05
5.5405207e-07
1.3224823e-05
5.5030305e-07
1.3035237e-05
5.4663692e-07
1.2846885e-05
5.4308744e-07
1.2659707e-05
5.3971903e-07
1.2473609e-05
5.3663168e-07
1.2288445e-05
5.3396872e-07
1.2103999e-05
5.3192966e-07
1.1919961e-05
5.3079916e-07
1.1735877e-05
5.3098829e-07
1.1551082e-05
5.3313095e-07
1.1364592e-05
5.38174e-07
1.1174892e-05
5.4769519e-07
1.0979678e-05
5.6405096e-07
1.0775176e-05
5.916175e-07
1.0555344e-05
6.3721533e-07
1.0309522e-05
7.1452225e-07
1.0021462e-05
8.4169813e-07
9.644648e-06
1.1093918e-06
9.100994e-06
1.6274273e-06
8.1000828e-06
2.9728507e-06
1.3218607e-06
7.5177785e-06
2.3049289e-05
9.0004917e-07
2.2760861e-05
8.8845208e-07
2.2471671e-05
8.9132243e-07
2.2183282e-05
8.8885556e-07
2.1896254e-05
8.8466535e-07
2.1610552e-05
8.805945e-07
2.1326306e-05
8.761127e-07
2.1043669e-05
8.7114377e-07
2.0762738e-05
8.6587214e-07
2.048358e-05
8.6038567e-07
2.0206246e-05
8.5473939e-07
1.9930768e-05
8.4899265e-07
1.9657165e-05
8.4319351e-07
1.9385446e-05
8.3737899e-07
1.9115607e-05
8.3158389e-07
1.8847633e-05
8.2584398e-07
1.8581497e-05
8.2018849e-07
1.8317164e-05
8.146352e-07
1.8054598e-05
8.092037e-07
1.7793744e-05
8.0394074e-07
1.7534524e-05
7.9893923e-07
1.7276809e-05
7.9434694e-07
1.7020401e-05
7.9037708e-07
1.6765005e-05
7.8732558e-07
1.6510192e-05
7.8561205e-07
1.6255342e-05
7.8583831e-07
1.5999544e-05
7.8892846e-07
1.574146e-05
7.9625847e-07
1.5479031e-05
8.1012341e-07
1.5209141e-05
8.3394142e-07
1.4926687e-05
8.7407175e-07
1.4623544e-05
9.4035821e-07
1.4285304e-05
1.0527619e-06
1.3890577e-05
1.2364255e-06
1.3377145e-05
1.6228239e-06
1.2647455e-05
2.3571172e-06
1.1279028e-05
4.341278e-06
2.1986919e-06
1.0402196e-05
3.1476604e-05
1.2841115e-06
3.1097499e-05
1.2675567e-06
3.0717328e-05
1.271493e-06
3.0338057e-05
1.2681272e-06
2.996045e-05
1.2622724e-06
2.9584464e-05
1.2565805e-06
2.9210272e-05
1.2503046e-06
2.8838082e-05
1.2433333e-06
2.8468024e-05
1.2359308e-06
2.8100186e-05
1.2282236e-06
2.7734635e-05
1.2202903e-06
2.7371414e-05
1.2122132e-06
2.701055e-05
1.2040575e-06
2.6652056e-05
1.1958729e-06
2.6295932e-05
1.1877083e-06
2.5942159e-05
1.1796175e-06
2.55907e-05
1.171647e-06
2.524151e-05
1.1638251e-06
2.4894535e-05
1.1561786e-06
2.4549706e-05
1.1487699e-06
2.4206916e-05
1.1417289e-06
2.3865995e-05
1.1352683e-06
2.3526674e-05
1.1296984e-06
2.3188549e-05
1.1254499e-06
2.2851032e-05
1.1231298e-06
2.2513267e-05
1.1236027e-06
2.2174007e-05
1.1281888e-06
2.1831419e-05
1.1388462e-06
2.1482699e-05
1.1588431e-06
2.1123609e-05
1.1930321e-06
2.0747221e-05
1.2504598e-06
2.0342568e-05
1.3450113e-06
1.989007e-05
1.5052599e-06
1.9361491e-05
1.7650046e-06
1.8673112e-05
2.3112025e-06
1.7705849e-05
3.3243799e-06
1.5834494e-05
6.2126331e-06
3.5523233e-06
1.4480863e-05
4.2492613e-05
1.7923623e-06
4.1990658e-05
1.769511e-06
4.1487379e-05
1.7747723e-06
4.098518e-05
1.7703262e-06
4.0485098e-05
1.7623551e-06
3.9987083e-05
1.7545953e-06
3.9491366e-05
1.7460209e-06
3.8998227e-05
1.7364732e-06
3.8507834e-05
1.7263231e-06
3.8020307e-05
1.7157512e-06
3.7535729e-05
1.7048679e-06
3.7054156e-05
1.6937859e-06
3.6575623e-05
1.6825905e-06
3.6100151e-05
1.6713451e-06
3.5627744e-05
1.6601158e-06
3.515838e-05
1.648981e-06
3.4692015e-05
1.6380125e-06
3.4228584e-05
1.6272555e-06
3.3768016e-05
1.6167465e-06
3.331022e-05
1.6065661e-06
3.2855059e-05
1.59689e-06
3.2402311e-05
1.5880162e-06
3.1951623e-05
1.5803865e-06
3.1502458e-05
1.5746155e-06
3.1054022e-05
1.5715654e-06
3.060517e-05
1.572455e-06
3.0154225e-05
1.5791339e-06
2.969874e-05
1.5943305e-06
2.9234984e-05
1.6225995e-06
2.8757337e-05
1.6706787e-06
2.8256636e-05
1.7511612e-06
2.7718484e-05
1.8831629e-06
2.7116961e-05
2.1067829e-06
2.6415971e-05
2.4659946e-06
2.5505553e-05
3.2216205e-06
2.4250262e-05
4.5796714e-06
2.1775813e-05
8.6870813e-06
5.5261487e-06
1.9801988e-05
5.6844173e-05
2.4676424e-06
5.6176738e-05
2.4369467e-06
5.5507814e-05
2.4436962e-06
5.484026e-05
2.43788e-06
5.4175471e-05
2.4271446e-06
5.3513402e-05
2.4166635e-06
5.2854362e-05
2.4050613e-06
5.219872e-05
2.3921153e-06
5.1546703e-05
2.3783401e-06
5.0898463e-05
2.3639915e-06
5.0254106e-05
2.3492246e-06
4.96137e-05
2.3341921e-06
4.8977287e-05
2.3190031e-06
4.8344898e-05
2.3037346e-06
4.7716543e-05
2.2884706e-06
4.7092203e-05
2.2733212e-06
4.647182e-05
2.2583952e-06
4.5855311e-05
2.2437639e-06
4.524258e-05
2.2294781e-06
4.4633507e-05
2.2156389e-06
4.4027921e-05
2.2024761e-06
4.3425541e-05
2.1903959e-06
4.2825914e-05
2.1800139e-06
4.2228338e-05
2.1721908e-06
4.1631772e-05
2.1681314e-06
4.1034702e-05
2.1695254e-06
4.0434918e-05
2.1789183e-06
3.9829208e-05
2.2000402e-06
3.9212693e-05
2.239114e-06
3.857807e-05
2.3053024e-06
3.7913444e-05
2.4157867e-06
3.7200334e-05
2.5962735e-06
3.640509e-05
2.9020266e-06
3.548277e-05
3.388315e-06
3.4291314e-05
4.4130756e-06
3.2687471e-05
6.1835146e-06
2.9500462e-05
1.187409e-05
8.304521e-06
2.672209e-05
7.5494608e-05
3.3592971e-06
7.46126e-05
3.3189548e-06
7.3729026e-05
3.3272707e-06
7.2847154e-05
3.3197519e-06
7.1968856e-05
3.3054427e-06
7.1094117e-05
3.2914021e-06
7.0223346e-05
3.275832e-06
6.9357037e-05
3.2584245e-06
6.8495492e-05
3.2398856e-06
6.7638906e-05
3.2205771e-06
6.6787412e-05
3.2007188e-06
6.5941086e-05
3.180518e-06
6.5099977e-05
3.1601124e-06
6.4264122e-05
3.1395894e-06
6.3433544e-05
3.1190487e-06
6.2608226e-05
3.0986386e-06
6.1788103e-05
3.0785188e-06
6.0973065e-05
3.0588015e-06
6.0162983e-05
3.0395599e-06
5.9357704e-05
3.0209186e-06
5.8557011e-05
3.0031684e-06
5.7760559e-05
2.9868483e-06
5.6967775e-05
2.9727981e-06
5.6177761e-05
2.9622043e-06
5.5389167e-05
2.956726e-06
5.4600017e-05
2.9586754e-06
5.3807428e-05
2.9715066e-06
5.3007228e-05
3.0002403e-06
5.2193103e-05
3.0532391e-06
5.1355659e-05
3.1427463e-06
5.0479635e-05
3.2918111e-06
4.9541623e-05
3.534285e-06
4.8498432e-05
3.9452178e-06
4.7295135e-05
4.5916118e-06
4.5749711e-05
5.9585001e-06
4.3722244e-05
8.2109816e-06
3.9691598e-05
1.5904736e-05
1.2115789e-05
3.5880331e-05
9.9713365e-05
4.4872951e-06
9.8596286e-05
4.4360336e-06
9.747714e-05
4.4464164e-06
9.6359535e-05
4.4373568e-06
9.5245969e-05
4.4190092e-06
9.4136498e-05
4.4008731e-06
9.3031666e-05
4.3806637e-06
9.1932133e-05
4.3579578e-06
9.0838305e-05
4.3337137e-06
8.9750438e-05
4.3084438e-06
8.8668694e-05
4.282463e-06
8.7593155e-05
4.2560566e-06
8.6523868e-05
4.2293999e-06
8.5460872e-05
4.2025847e-06
8.4404204e-05
4.1757174e-06
8.3353855e-05
4.1489869e-06
8.2309753e-05
4.1226207e-06
8.1271761e-05
4.0967939e-06
8.0239703e-05
4.0716182e-06
7.9213374e-05
4.0472469e-06
7.8192504e-05
4.0240384e-06
7.7176662e-05
4.0026904e-06
7.6165132e-05
3.9843284e-06
7.5156768e-05
3.9705679e-06
7.4149818e-05
3.9636763e-06
7.3141697e-05
3.9667968e-06
7.2128618e-05
3.9845853e-06
7.1105112e-05
4.0237461e-06
7.0062938e-05
4.0954136e-06
6.8989907e-05
4.2157775e-06
6.7866256e-05
4.4154621e-06
6.6662141e-05
4.7383997e-06
6.5321589e-05
5.2857696e-06
6.3777314e-05
6.1358875e-06
6.1793564e-05
7.9422495e-06
5.9244535e-05
1.0760011e-05
5.4180959e-05
2.0968311e-05
1.7317415e-05
4.8979333e-05
0.00013102765
5.9295631e-06
0.00012959693
5.8667474e-06
0.00012816422
5.8791315e-06
0.0001267329
5.8686736e-06
0.00012530624
5.8456708e-06
0.00012388449
5.8226292e-06
0.00012246836
5.7967866e-06
0.00012105875
5.7675717e-06
0.0001196562
5.7362637e-06
0.00011826106
5.7035866e-06
0.00011687352
5.6699978e-06
0.00011549368
5.6358991e-06
0.00011412156
5.6015219e-06
0.00011275719
5.5669557e-06
0.00011140061
5.5322947e-06
0.00011005183
5.4977607e-06
0.00010871079
5.4636645e-06
0.00010737731
5.4302737e-06
0.00010605116
5.3977658e-06
0.00010473207
5.3663362e-06
0.0001034197
5.3364149e-06
0.00010211351
5.3088789e-06
0.00010081263
5.285203e-06
9.951565e-05
5.2675526e-06
9.8220336e-05
5.2589906e-06
9.6923378e-05
5.2637542e-06
9.5619897e-05
5.2880671e-06
9.4302843e-05
5.3407996e-06
9.2961645e-05
5.4366113e-06
9.1580767e-05
5.5966562e-06
9.0135092e-05
5.8611364e-06
8.8587355e-05
6.2861366e-06
8.6866498e-05
7.0066269e-06
8.4892264e-05
8.110122e-06
8.2366581e-05
1.0467933e-05
7.9190817e-05
1.3935775e-05
7.2994133e-05
2.7164995e-05
2.4259191e-05
6.6052357e-05
0.00023493919
8.4348603e-06
0.00023244005
8.3658819e-06
0.00022994201
8.3771715e-06
0.00022744553
8.3651539e-06
0.0002249557
8.3355038e-06
0.00022247379
8.3045414e-06
0.00022000115
8.2694255e-06
0.00021753932
8.2293967e-06
0.00021508937
8.1862145e-06
0.00021265196
8.1409954e-06
0.00021022746
8.0944985e-06
0.00020781598
8.0473802e-06
0.00020541749
8.0000105e-06
0.00020303197
7.95248e-06
0.00020065945
7.9048176e-06
0.00019829996
7.8572447e-06
0.00019595344
7.8101858e-06
0.00019361963
7.7640857e-06
0.00019129811
7.7192824e-06
0.00018898837
7.6760731e-06
0.0001866898
7.6349895e-06
0.00018440152
7.5971583e-06
0.00018212213
7.564598e-06
0.00017984928
7.540397e-06
0.00017757926
7.5290118e-06
0.00017530638
7.5366323e-06
0.0001730222
7.5722531e-06
0.00017071446
7.6485385e-06
0.00016836492
7.7861468e-06
0.00016594687
8.014707e-06
0.0001634176
8.3904096e-06
0.00016071448
8.9892537e-06
0.00015771809
1.0003017e-05
0.00015429905
1.152916e-05
0.0001499703
1.4796685e-05
0.00014461252
1.9293555e-05
0.00013472772
3.7049793e-05
3.7293849e-05
0.00012169306
0.00030090209
1.1467712e-05
0.00029787211
1.1395862e-05
0.000294843
1.1406279e-05
0.00029181404
1.139412e-05
0.00028879107
1.1358474e-05
0.00028577613
1.1319476e-05
0.00028277102
1.1274537e-05
0.00027977774
1.1222678e-05
0.00027679773
1.1166221e-05
0.00027383192
1.1106803e-05
0.0002708808
1.1045619e-05
0.00026794447
1.0983711e-05
0.0002650228
1.0921682e-05
0.00026211564
1.0859639e-05
0.00025922297
1.0797487e-05
0.00025634485
1.0735372e-05
0.00025348122
1.0673811e-05
0.00025063184
1.0613469e-05
0.00024779619
1.0554932e-05
0.0002449736
1.0498665e-05
0.00024216327
1.0445313e-05
0.00023936418
1.0396248e-05
0.0002365747
1.0354081e-05
0.00023379211
1.0322992e-05
0.00023101195
1.0309163e-05
0.00022822733
1.0321252e-05
0.00022542783
1.0371755e-05
0.00022259831
1.0478065e-05
0.00021971625
1.0668204e-05
0.00021674899
1.0981965e-05
0.00021364436
1.1495043e-05
0.00021032819
1.2305422e-05
0.00020665462
1.3676588e-05
0.00020247801
1.5705765e-05
0.00019722443
2.0050265e-05
0.0001908229
2.5695084e-05
0.00017958413
4.8288568e-05
5.2879557e-05
0.00016399842
0.00037866929
1.5069655e-05
0.00037506746
1.4997694e-05
0.00037146473
1.5009011e-05
0.00036786007
1.4998775e-05
0.00036426027
1.4958277e-05
0.00036066819
1.4911555e-05
0.00035708609
1.485664e-05
0.00035351648
1.479228e-05
0.00034996129
1.4721419e-05
0.00034642175
1.4646342e-05
0.00034289854
1.4568828e-05
0.00033939178
1.4490473e-05
0.00033590121
1.441225e-05
0.00033242652
1.4334332e-05
0.00032896756
1.4256442e-05
0.00032552438
1.4178555e-05
0.00032209696
1.4101225e-05
0.00031868506
1.4025372e-05
0.00031528807
1.3951921e-05
0.00031190514
1.3881595e-05
0.00030853527
1.3815183e-05
0.00030517723
1.3754289e-05
0.00030182916
1.3702146e-05
0.00029848798
1.3664181e-05
0.0002951485
1.3648636e-05
0.00029180256
1.3667193e-05
0.00028843766
1.3736658e-05
0.00028503555
1.3880179e-05
0.00028156911
1.4134645e-05
0.00027799938
1.4551691e-05
0.00027426394
1.5230484e-05
0.00027027733
1.6292034e-05
0.00026586454
1.8089377e-05
0.00026086547
2.0704829e-05
0.00025462975
2.6285988e-05
0.00024712014
3.3204694e-05
0.00023462605
6.0782662e-05
7.0771624e-05
0.00021673398
0.00047004161
1.9299385e-05
0.00046580808
1.9231231e-05
0.00046157245
1.9244635e-05
0.00045733314
1.9238084e-05
0.00045309727
1.9194149e-05
0.00044886846
1.914037e-05
0.00044464942
1.907568e-05
0.00044044324
1.8998455e-05
0.00043625239
1.8912276e-05
0.00043207854
1.882019e-05
0.00042792264
1.8724726e-05
0.00042378487
1.8628239e-05
0.00041966486
1.8532263e-05
0.00041556206
1.843713e-05
0.00041147616
1.8342341e-05
0.00040740713
1.8247591e-05
0.00040335497
1.8153382e-05
0.00039931945
1.8060892e-05
0.00039529989
1.7971484e-05
0.00039129523
1.7886255e-05
0.00038730422
1.7806189e-05
0.00038332541
1.7733107e-05
0.00037935667
1.7670877e-05
0.00037539457
1.7626287e-05
0.00037143323
1.7609971e-05
0.00036746321
1.7637212e-05
0.00036346987
1.7730003e-05
0.00035943171
1.7918342e-05
0.00035531676
1.8249595e-05
0.00035107959
1.8788859e-05
0.00034664702
1.9663048e-05
0.00034192286
2.1016202e-05
0.00033670173
2.33105e-05
0.00033080989
2.6596675e-05
0.00032353881
3.3557067e-05
0.00031485785
4.1885648e-05
0.00030123682
7.4403691e-05
9.0747156e-05
0.00028126129
0.00057713729
2.4138248e-05
0.00057228641
2.4082118e-05
0.00056742984
2.4101206e-05
0.00056256605
2.4101872e-05
0.00055770251
2.4057684e-05
0.00055284383
2.399905e-05
0.00054799337
2.3926147e-05
0.00054315488
2.3836938e-05
0.00053833152
2.3735635e-05
0.00053352555
2.362616e-05
0.00052873831
2.3511972e-05
0.00052397012
2.3396429e-05
0.0005192205
2.3281879e-05
0.00051448866
2.3168971e-05
0.00050977402
2.3056979e-05
0.00050507642
2.2945197e-05
0.00050039585
2.2833953e-05
0.00049573209
2.2724652e-05
0.00049108438
2.2619191e-05
0.00048645145
2.2519183e-05
0.00048183175
2.242589e-05
0.00047722351
2.2341345e-05
0.00047262435
2.2270033e-05
0.00046803044
2.2220197e-05
0.00046343525
2.2205167e-05
0.00045882803
2.2244431e-05
0.0004541919
2.2366136e-05
0.0004495019
2.2608335e-05
0.00044472087
2.3030633e-05
0.00043979652
2.3713201e-05
0.0004346443
2.4815275e-05
0.000429157
2.65035e-05
0.00042310034
2.9367157e-05
0.00041628562
3.34114e-05
0.00040794856
4.1894126e-05
0.00039804907
5.1785139e-05
0.00038342183
8.9030925e-05
0.00011260207
0.00036156692
0.00070233799
2.951083e-05
0.00069694688
2.9473233e-05
0.00069154359
2.9504496e-05
0.00068612608
2.9519384e-05
0.00068070243
2.9481326e-05
0.00067527888
2.9422605e-05
0.00066985984
2.9345182e-05
0.00066445
2.924678e-05
0.00065905335
2.9132284e-05
0.00065367291
2.9006607e-05
0.00064831054
2.8874341e-05
0.00064296684
2.8740124e-05
0.00063764127
2.8607447e-05
0.00063233274
2.8477505e-05
0.00062704034
2.8349381e-05
0.00062176368
2.8221855e-05
0.00061650271
2.8094927e-05
0.0006112572
2.7970158e-05
0.00060602633
2.785006e-05
0.00060080858
2.7736936e-05
0.00059560203
2.7632442e-05
0.00059040454
2.7538835e-05
0.00058521339
2.7461183e-05
0.00058002435
2.7409229e-05
0.00057483025
2.7399268e-05
0.00056961908
2.7455609e-05
0.0005643716
2.7613614e-05
0.0005590592
2.7920735e-05
0.00055363909
2.8450738e-05
0.00054805179
2.9300508e-05
0.0005422008
3.0666262e-05
0.00053596709
3.2737205e-05
0.00052909069
3.6243565e-05
0.00052136353
4.1138553e-05
0.00051196955
5.1288113e-05
0.00050084868
6.2906001e-05
0.00048536058
0.00010451902
0.0001360578
0.00046190486
0.00084819898
3.5435227e-05
0.00084224703
3.5425186e-05
0.00083627612
3.5475406e-05
0.00083028432
3.551118e-05
0.00082427952
3.5486131e-05
0.00081826919
3.5432933e-05
0.00081225886
3.5355515e-05
0.00080625414
3.5251496e-05
0.00080026
3.5126419e-05
0.00079428034
3.4986272e-05
0.00078831771
3.4836968e-05
0.00078237309
3.4684745e-05
0.00077644591
3.4534624e-05
0.00077053477
3.4388648e-05
0.00076463836
3.4245795e-05
0.00075875598
3.4104233e-05
0.00075288746
3.396345e-05
0.00074703257
3.3825047e-05
0.00074119041
3.3692217e-05
0.00073535919
3.356815e-05
0.00072953658
3.3455053e-05
0.00072371999
3.3355429e-05
0.0007179063
3.3274876e-05
0.00071209092
3.322461e-05
0.0007062661
3.3224084e-05
0.0007004187
3.3303012e-05
0.00069452724
3.3505071e-05
0.00068855944
3.3888536e-05
0.00068246686
3.4543318e-05
0.00067618281
3.5584559e-05
0.00066959948
3.7249587e-05
0.00066258583
3.9750858e-05
0.0006548622
4.3967191e-05
0.00064619375
4.9807008e-05
0.00063573601
6.1745851e-05
0.00062339558
7.5246427e-05
0.0006072055
0.00012070911
0.00016065301
0.00058261029
0.0010177714
4.182709e-05
0.0010113353
4.1861221e-05
0.0010048693
4.1941398e-05
0.00099837414
4.2006376e-05
0.00099185788
4.2002394e-05
0.00098532928
4.1961536e-05
0.0009787949
4.1889894e-05
0.00097226121
4.178518e-05
0.00096573413
4.1653507e-05
0.00095921848
4.1501914e-05
0.00095271765
4.1337806e-05
0.00094623305
4.1169339e-05
0.00093976416
4.1003518e-05
0.00093330919
4.0843612e-05
0.00092686638
4.0688614e-05
0.00092043462
4.0535992e-05
0.00091401354
4.0384523e-05
0.00090760291
4.0235683e-05
0.00090120173
4.0093392e-05
0.00089480792
3.9961959e-05
0.00088841864
3.9844333e-05
0.00088203078
3.9743292e-05
0.00087564076
3.9664896e-05
0.00086924362
3.9621754e-05
0.00086283113
3.9636567e-05
0.00085638918
3.974497e-05
0.00084989413
4.0000115e-05
0.00084331001
4.0472662e-05
0.00083658259
4.1270738e-05
0.00082963782
4.2529328e-05
0.00082235718
4.4530229e-05
0.00081459696
4.7511069e-05
0.00080606364
5.2500513e-05
0.00079649191
5.9378738e-05
0.0007850418
7.3195968e-05
0.00077150453
8.8783694e-05
0.0007547671
0.00013744654
0.00018592547
0.00072949463
0.0012143748
4.8584382e-05
0.0012075606
4.8675395e-05
0.0012007048
4.8797173e-05
0.0011938093
4.890191e-05
0.0011868821
4.8929544e-05
0.0011799336
4.8910059e-05
0.0011729717
4.8851781e-05
0.001166004
4.8752941e-05
0.0011590373
4.8620196e-05
0.0011520776
4.8461585e-05
0.0011451293
4.8286164e-05
0.0011381942
4.810437e-05
0.001131272
4.7925739e-05
0.0011243604
4.7755205e-05
0.0011174571
4.7591926e-05
0.0011105605
4.7432591e-05
0.00110367
4.7275039e-05
0.0010967853
4.7120406e-05
0.0010899053
4.6973373e-05
0.0010830276
4.6839641e-05
0.0010761488
4.6723129e-05
0.0010692652
4.6626925e-05
0.0010623726
4.6557471e-05
0.0010554657
4.6528629e-05
0.001048536
4.6566304e-05
0.0010415685
4.6712451e-05
0.0010345378
4.7030859e-05
0.0010274041
4.760628e-05
0.0010201077
4.8567209e-05
0.0010125668
5.0070175e-05
0.0010046534
5.2443671e-05
0.00099621091
5.5953539e-05
0.00098693762
6.1773799e-05
0.00097654243
6.9773928e-05
0.00096424224
8.5496162e-05
0.00094956386
0.00010346207
0.0009324335
0.00015457691
0.00021135293
0.00090700604
0.0014417699
5.5458137e-05
0.0014348156
5.5629675e-05
0.0014278003
5.5812508e-05
0.0014207295
5.5972662e-05
0.0014136124
5.6046688e-05
0.001406461
5.6061438e-05
0.0013992854
5.6027421e-05
0.0013920943
5.5943977e-05
0.0013848961
5.5818366e-05
0.0013776982
5.5659526e-05
0.001370506
5.5478365e-05
0.0013633223
5.528806e-05
0.0013561467
5.5101387e-05
0.0013489764
5.4925495e-05
0.0013418084
5.4759858e-05
0.0013346407
5.4600301e-05
0.0013274723
5.4443462e-05
0.0013203028
5.428987e-05
0.0013131312
5.4144979e-05
0.0013059547
5.4016224e-05
0.001298769
5.3908782e-05
0.0012915698
5.38261e-05
0.0012843524
5.3774912e-05
0.0012771109
5.3770098e-05
0.0012698367
5.3840553e-05
0.0012625143
5.4034774e-05
0.0012551169
5.4428332e-05
0.0012476012
5.5121979e-05
0.0012399016
5.6266832e-05
0.0012319288
5.8042911e-05
0.0012235462
6.0826261e-05
0.0012145845
6.4915292e-05
0.0012047402
7.1618041e-05
0.0011936905
8.0823658e-05
0.0011807644
9.8422291e-05
0.0011651276
0.00011909885
0.0011478053
0.00017189918
0.0002363544
0.0011228039
0.0017039574
6.2319702e-05
0.0016969957
6.2591464e-05
0.0016899537
6.2854446e-05
0.0016828396
6.3086779e-05
0.0016756625
6.3223747e-05
0.0016684362
6.3287772e-05
0.0016611727
6.3290944e-05
0.0016538824
6.3234277e-05
0.0016465751
6.3125643e-05
0.00163926
6.2974635e-05
0.0016319441
6.2794212e-05
0.0016246313
6.260088e-05
0.0016173211
6.2411624e-05
0.0016100101
6.223649e-05
0.0016026946
6.2075401e-05
0.0015953717
6.1923182e-05
0.0015880402
6.1774961e-05
0.0015806997
6.1630295e-05
0.0015733493
6.1495423e-05
0.0015659856
6.137996e-05
0.0015586037
6.1290689e-05
0.0015511983
6.1231438e-05
0.0015437641
6.1209132e-05
0.0015362948
6.123938e-05
0.0015287817
6.1353622e-05
0.0015212097
6.1606809e-05
0.0015135508
6.208729e-05
0.0015057588
6.2913889e-05
0.0014977631
6.426262e-05
0.0014894668
6.6339152e-05
0.0014807271
6.9566025e-05
0.0014713623
7.428006e-05
0.0014610788
8.1901478e-05
0.0014495117
9.2390814e-05
0.0014361703
0.00011176367
0.001419861
0.00013540814
0.0014024703
0.00018928991
0.00026038571
0.001378439
0.0020055375
6.8992714e-05
0.001998743
6.9385992e-05
0.0019918488
6.9748707e-05
0.0019848655
7.0070085e-05
0.0019778024
7.0286765e-05
0.0019706744
7.0415848e-05
0.0019634953
7.0470022e-05
0.001956277
7.0452534e-05
0.0019490309
7.0371775e-05
0.0019417681
7.0237445e-05
0.0019344976
7.0064667e-05
0.0019272245
6.9874014e-05
0.0019199481
6.9688044e-05
0.001912664
6.9520566e-05
0.0019053674
6.937198e-05
0.0018980547
6.9235881e-05
0.0018907242
6.9105457e-05
0.0018833757
6.897878e-05
0.0018760083
6.8862861e-05
0.0018686181
6.8770167e-05
0.0018611993
6.87095e-05
0.0018537458
6.8684969e-05
0.0018462513
6.8703553e-05
0.0018387095
6.8781258e-05
0.0018311117
6.8951346e-05
0.0018234438
6.9274704e-05
0.0018156779
6.9853233e-05
0.0018077656
7.082613e-05
0.0017996316
7.2396668e-05
0.0017911722
7.479856e-05
0.0017822407
7.8497554e-05
0.0017726445
8.3876215e-05
0.0017621119
9.2434088e-05
0.0017502303
0.00010427245
0.0017367266
0.00012526729
0.0017201549
0.00015197989
0.0017028553
0.00020658955
0.00028298112
0.0016802598
0.0023516774
7.5057743e-05
0.0023454591
7.5604298e-05
0.0023391141
7.6093711e-05
0.0023326587
7.6525463e-05
0.0023261041
7.6841445e-05
0.0023194665
7.7053398e-05
0.0023127627
7.7173887e-05
0.0023060057
7.7209463e-05
0.0022992085
7.7168991e-05
0.0022923846
7.7061352e-05
0.0022855454
7.6903822e-05
0.0022786975
7.6721981e-05
0.0022718395
7.6546011e-05
0.0022649654
7.6394637e-05
0.0022580689
7.6268567e-05
0.002251145
7.6159743e-05
0.0022441916
7.6058801e-05
0.0022372089
7.5961509e-05
0.0022301962
7.5875565e-05
0.002223149
7.5817335e-05
0.0022160603
7.5798247e-05
0.0022089229
7.5822404e-05
0.0022017298
7.5896608e-05
0.0021944743
7.6036803e-05
0.0021871487
7.6276908e-05
0.0021797408
7.6682618e-05
0.0021722241
7.7369883e-05
0.0021645493
7.8500998e-05
0.0021566367
8.0309215e-05
0.0021483763
8.3058988e-05
0.0021396201
8.7253743e-05
0.0021301668
9.332951e-05
0.0021197754
0.00010282551
0.0021079958
0.00011605201
0.0020947507
0.00013851242