0.4709558481 	0.06554533267 	0.000137300538 	-5.023880988e-09
0.4720092239 	0.2508696201 	0.0003104353586 	-5.664653275e-09
0.4730625996 	0.4879328629 	-7.55879736e-05 	5.893353957e-09
0.4741159754 	0.6792597775 	-0.0004058485407 	-3.590478155e-10
0.4751693511 	0.8074459098 	-6.467343445e-05 	-1.850361698e-08
0.4762227269 	0.8979404379 	0.0001728568564 	-2.132944167e-08
0.4778443634 	0.9721965491 	0.0001866011375 	-2.526634429e-08
0.4796765386 	1.030657018 	0.0001486044354 	-3.533882039e-08
0.4817465869 	1.077013646 	0.0001162936689 	-4.636296128e-08
0.4840853915 	1.115489928 	0.0001489032661 	-5.972529876e-08
0.4867278453 	1.148656707 	0.0001820238979 	-7.501331221e-08
0.4897133715 	1.178029495 	0.0002256789589 	-9.306417274e-08
0.4930865115 	1.204580025 	0.000273860918 	-1.141217473e-07
0.4968975894 	1.228932863 	0.0003318333875 	-1.385820249e-07
0.5012034633 	1.251499145 	0.0003953369947 	-1.66500615e-07
0.506068373 	1.274283692 	0.0004733434858 	-2.008373276e-07
0.5134203412 	1.297631344 	0.0005818520114 	-2.431923761e-07
0.5212948542 	1.318642145 	0.0006961966216 	-2.870251138e-07
0.529729052 	1.336228375 	0.0008058846563 	-3.260613262e-07
0.5387627144 	1.350869089 	0.0009140195687 	-3.576206315e-07
0.5484384488 	1.362958913 	0.001010131124 	-3.799950435e-07
0.5588018907 	1.372834341 	0.001092493976 	-3.933768025e-07
0.5699019192 	1.380800802 	0.001158048553 	-3.994116377e-07
0.5817908876 	1.387127077 	0.001206436073 	-4.001552869e-07
0.5945248701 	1.392036946 	0.001237843024 	-3.969480685e-07
0.6081639266 	1.395701164 	0.001252899694 	-3.900424969e-07
0.6227723857 	1.398234652 	0.001251934028 	-3.78987625e-07
0.638419148 	1.3996978 	0.00123492579 	-3.63178915e-07
0.6551780116 	1.400100064 	0.001201605242 	-3.42183096e-07
0.6731280194 	1.399403308 	0.001151695515 	-3.157883997e-07
0.6923538328 	1.397522515 	0.001085093681 	-2.839376936e-07
0.7129461301 	1.394321375 	0.001002023527 	-2.466540146e-07
0.7350020349 	1.389691166 	0.0009050879958 	-2.047445621e-07
0.7570579485 	1.383779633 	0.0008020133981 	-1.609351842e-07
0.7776502527 	1.376933638 	0.0007012962462 	-1.183828304e-07
0.7968760713 	1.369370623 	0.0006068916841 	-7.864349212e-08
0.814826083 	1.361168744 	0.0005201098132 	-4.228403762e-08
0.831584949 	1.352366564 	0.0004417821971 	-9.676185135e-09
0.8472317127 	1.342968776 	0.0003724611983 	1.888755577e-08
0.8618401721 	1.332949591 	0.0003124520567 	4.310688946e-08
0.8754792281 	1.322255222 	0.0002618287575 	6.263604652e-08
0.8882132094 	1.310805819 	0.0002203541867 	7.710646354e-08
0.9001021759 	1.298496674 	0.0001875234784 	8.620036154e-08
0.9112022019 	1.285197584 	0.0001623122549 	8.977132511e-08
0.9215656407 	1.270749565 	0.0001438006262 	8.795101163e-08
0.9312413717 	1.254954726 	0.0001297385563 	8.127423409e-08
0.9402750304 	1.237560388 	0.0001202361039 	7.061725974e-08
0.9487092242 	1.218215239 	0.0001083340565 	5.739036081e-08
0.9565837329 	1.196436123 	9.933617781e-05 	4.300523404e-08
0.9639356968 	1.173241238 	9.493762489e-05 	2.986288538e-08
0.9688006083 	1.151178861 	8.313165131e-05 	2.01884556e-08
0.9731064834 	1.129613648 	7.266355631e-05 	1.321614778e-08
0.976917562 	1.10651003 	6.488197731e-05 	7.913733764e-09
0.9802907021 	1.08139793 	5.500929523e-05 	4.139734338e-09
0.9832762282 	1.053614319 	4.735120268e-05 	1.613980043e-09
0.9859186816 	1.022166583 	3.598941088e-05 	4.515288112e-11
0.9882574856 	0.9855338648 	2.685906885e-05 	-7.073169461e-10
0.990327533 	0.9411783656 	-3.937605666e-05 	-9.742127393e-10
0.9921597073 	0.884933572 	-0.0001123312552 	-8.568193724e-10
0.9937813429 	0.8132139243 	-9.114551987e-05 	-2.104432851e-09
0.9948347186 	0.7257498241 	0.0001445368879 	-2.170981035e-09
0.9958880943 	0.6039257055 	0.000364816243 	2.497176118e-09
0.9969414701 	0.4288797607 	2.125660969e-05 	2.231946493e-09
0.9979948458 	0.2190040695 	-0.0002635193505 	-1.966152346e-09
0.9990482216 	0.06273685805 	-0.0001095514015 	-1.502930517e-09
0.9990482216 	0.06273685805 	-0.0001095514015 	-1.502930517e-09
