2.72871113e-36 	0.5850710121 	-3.97350442e-14 	-1.444263687e-20
0.001889880757 	0.5851205267 	-0.0002048577551 	7.181800555e-07
0.003779741465 	0.5852586017 	-0.0005402332433 	1.406215041e-06
0.005669582045 	0.5854898145 	-0.0008295567283 	2.0518289e-06
0.007559402482 	0.5858203487 	-0.00106698347 	2.660168798e-06
0.009449202822 	0.5863130717 	-0.001357712478 	3.346224448e-06
0.0123584479 	0.5871196489 	-0.001737083686 	4.174425145e-06
0.01564534699 	0.5883328518 	-0.002192069281 	5.099594035e-06
0.01935891766 	0.5900299264 	-0.002702648855 	6.059065647e-06
0.02357816231 	0.5923545143 	-0.003275501268 	7.039632082e-06
0.02835083071 	0.5954753892 	-0.003914986345 	8.016480579e-06
0.0337430193 	0.5995900527 	-0.004624932027 	8.953196377e-06
0.03983513139 	0.6049414214 	-0.005409903409 	9.807516352e-06
0.04675897752 	0.6118138007 	-0.006273133932 	1.052207552e-05
0.05458402359 	0.6205146018 	-0.007213143309 	1.103671655e-05
0.06344293631 	0.6325398743 	-0.008326218148 	1.140824391e-05
0.07687936455 	0.6496598443 	-0.009654196794 	1.102606426e-05
0.09132747402 	0.6711743534 	-0.01101931801 	1.007176593e-05
0.1068517842 	0.6960845562 	-0.01229470696 	8.452300068e-06
0.1235382128 	0.7244558906 	-0.01344429873 	6.227613725e-06
0.1414763202 	0.7562747022 	-0.0144236678 	3.489549188e-06
0.1607597829 	0.7913711416 	-0.01519145958 	3.58956585e-07
0.1630177224 	0.7954969964 	-0.01524823324 	7.201164203e-06
0.1814869171 	0.8292659526 	-0.01573981354 	4.122633399e-06
0.203761246 	0.8692718842 	-0.01603429148 	8.981376069e-06
0.22769211 	0.9102564521 	-0.01608012461 	1.396306042e-05
0.2533953163 	0.9507568314 	-0.01590867689 	1.893044449e-05
0.2809948866 	0.9891990645 	-0.01556549655 	2.371573454e-05
0.3106333302 	1.024212725 	-0.01509614144 	2.812844402e-05
0.3424387954 	1.054896264 	-0.01453075516 	3.198344042e-05
0.3765679891 	1.080836857 	-0.01387261453 	3.51164458e-05
0.4131763284 	1.101819647 	-0.0130980815 	3.736313523e-05
0.4524319133 	1.117517557 	-0.01217265754 	3.855795351e-05
0.4945150618 	1.127367538 	-0.01109147519 	3.862861188e-05
0.5366248026 	1.13121671 	-0.009927546843 	3.763290452e-05
0.5759561429 	1.130173345 	-0.008779087001 	3.588971326e-05
0.6126864062 	1.125697478 	-0.007689846167 	3.375126934e-05
0.6469841783 	1.118769984 	-0.006668430026 	3.142373612e-05
0.6790086872 	1.109967053 	-0.005713868493 	2.901745657e-05
0.7089097018 	1.099625409 	-0.004822991247 	2.659134169e-05
0.7368272602 	1.087950812 	-0.003993061807 	2.41764654e-05
0.7628926911 	1.075077581 	-0.003223034379 	2.179050733e-05
0.7872286785 	1.061100441 	-0.002513904905 	1.94450325e-05
0.8099498676 	1.046090343 	-0.00186829248 	1.715041144e-05
0.8311633612 	1.030101042 	-0.001289952976 	1.49181788e-05
0.8509691787 	1.013170755 	-0.0007828831497 	1.276230304e-05
0.8694607163 	0.9953195014 	-0.0003515657873 	1.069990284e-05
0.8867251805 	0.9765439135 	1.191755017e-06 	8.750362039e-06
0.9028439947 	0.9567982374 	0.0002705518769 	6.935814497e-06
0.9178931816 	0.9359807356 	0.0004581659959 	5.278311123e-06
0.9319437194 	0.9154032639 	0.00055966538 	3.903666361e-06
0.9412411842 	0.897264922 	0.0005858365198 	2.9121626e-06
0.9494702593 	0.8806844634 	0.000571741996 	2.178390931e-06
0.9567537154 	0.8639979084 	0.000532960261 	1.592612661e-06
0.9632002153 	0.8468902127 	0.0004756103769 	1.134955852e-06
0.9689059355 	0.828914677 	0.0004097411334 	7.857882247e-07
0.9739560002 	0.8094080029 	0.0003362813019 	5.263839098e-07
0.9784257521 	0.7873704364 	0.0002709602602 	3.401647947e-07
0.9823818762 	0.761118906 	0.0001734738041 	2.101078759e-07
0.9858833943 	0.7279258937 	9.287263516e-05 	1.229782896e-07
0.9889825462 	0.6847885148 	-5.48812655e-06 	7.273533783e-08
0.9909956813 	0.6302714121 	2.672701148e-05 	5.373639337e-08
0.9930088164 	0.5462753206 	0.0003916808277 	-1.412305167e-09
0.9950219514 	0.4032655786 	0.0002287261042 	-3.698491777e-08
0.9970350865 	0.2093079734 	-0.0002454248442 	7.589768289e-09
0.9990482216 	0.05966925468 	-0.0001791590972 	2.007194287e-08
0.9990482216 	0.05966925468 	-0.0001791590972 	2.007194287e-08
