0.121376578 	2.354930559e-06 	-7.180467831e-08 	-2.324832975e-10 	2.010159537e-06 	6.476082399e-11 	3.831922773e-09
0.123583729 	0.0004604859117 	-5.868691276e-05 	-1.513294378e-07 	0.0001925563055 	-1.636941171e-07 	3.670658365e-07
0.1257894093 	0.003922124597 	-0.0007973659255 	-1.706768965e-06 	0.001492644112 	-1.027843832e-06 	2.845394536e-06
0.1279925952 	0.007849629853 	-0.002182759139 	7.821008169e-08 	0.004825591526 	-1.138204419e-05 	9.198918652e-06
0.1301922761 	0.009437084876 	-0.003891493241 	1.333307244e-05 	0.009167120649 	-2.723277529e-05 	1.747507983e-05
0.132387455 	0.01060653076 	-0.006211700333 	3.403166173e-05 	0.01352175951 	-3.931224675e-05 	2.577623181e-05
0.1357557942 	0.01112717669 	-0.008504304437 	4.921218363e-05 	0.01746192881 	-4.295312083e-05 	3.32872896e-05
0.1395413836 	0.01068783205 	-0.009875582687 	5.368189558e-05 	0.01985884135 	-3.714717637e-05 	3.78564711e-05
0.1437868381 	0.009365031065 	-0.010019451 	4.894195643e-05 	0.020277502 	-2.538620297e-05 	3.865455464e-05
0.1485346694 	0.007336040406 	-0.00898839763 	3.812920819e-05 	0.01893935688 	-1.053225461e-05 	3.610367814e-05
0.1539572698 	0.005187739187 	-0.007131503962 	2.462013935e-05 	0.01623984666 	4.568099296e-06 	3.095766136e-05
0.1600645007 	0.00351494123 	-0.005437238968 	1.379164882e-05 	0.01345830807 	1.402244087e-05 	2.565527572e-05
0.1668783649 	0.002455209022 	-0.004626564446 	7.873134283e-06 	0.01185453637 	1.535113492e-05 	2.259804112e-05
0.1744706299 	0.001842200193 	-0.004159280185 	4.913036277e-06 	0.01079881828 	1.148008733e-05 	2.058554903e-05
0.1830959347 	0.001445115374 	-0.00358635417 	2.450507399e-06 	0.009594215725 	5.517315252e-06 	1.828924175e-05
0.1922476596 	0.001165047691 	-0.003083040827 	1.478949139e-06 	0.00843179794 	-4.208549986e-06 	1.607335037e-05
0.1926955792 	0.001153630523 	-0.003052452229 	1.667575525e-07 	0.008359250906 	1.931503042e-07 	1.593505556e-05
0.2053746929 	0.0009714070242 	-0.002613596867 	4.642234373e-06 	0.007312154765 	5.991129333e-06 	1.393899929e-05
0.2189675343 	0.0009697234027 	-0.002549982101 	1.088818569e-05 	0.006984238254 	6.595550341e-06 	1.331389928e-05
0.2334990144 	0.00083194526 	-0.002188918511 	1.44289819e-05 	0.006003067333 	7.193840758e-06 	1.14435148e-05
0.2489714712 	0.0008083799126 	-0.002184402339 	1.850848593e-05 	0.006127068593 	8.911587764e-06 	1.167989567e-05
0.2654937654 	0.0007497383133 	-0.002073391347 	2.144403951e-05 	0.00591580284 	1.054796293e-05 	1.127716443e-05
0.2832036071 	0.0006852029862 	-0.001993555147 	2.028050986e-05 	0.005921305908 	1.246527811e-05 	1.12876548e-05
0.3020930082 	0.0006481650368 	-0.001972938354 	1.666893041e-05 	0.006080534383 	1.004620495e-05 	1.159118853e-05
0.3222472526 	0.0005619971806 	-0.001849486575 	1.201823004e-05 	0.00603875568 	8.546018431e-06 	1.151154671e-05
0.3437457136 	0.0005117448615 	-0.001834873507 	9.01340935e-06 	0.00637435405 	5.682903863e-06 	1.215129048e-05
0.366723401 	0.0004077743858 	-0.001671055607 	5.157975758e-06 	0.006345265018 	3.625835897e-06 	1.20958387e-05
0.3912146542 	0.000323601612 	-0.001595447451 	2.100889449e-06 	0.006799519559 	1.391904806e-06 	1.296177411e-05
0.4093312864 	0.0002430379506 	-0.001440599225 	3.240037725e-06 	0.006770244177 	-6.856759913e-06 	1.290596709e-05
0.4171316319 	0.0002132359963 	-0.001367300988 	1.097091767e-06 	0.006753611099 	6.282528131e-07 	1.287425982e-05
0.444521887 	0.0001240550817 	-0.001164566808 	4.355677075e-06 	0.007041899506 	2.13742124e-06 	1.342381765e-05
0.4737879914 	2.474200645e-05 	-0.0008860618907 	6.848368479e-06 	0.007239979291 	2.892193428e-06 	1.380141278e-05
0.5050603485 	-2.372670693e-05 	-0.000491344585 	7.866666595e-06 	0.007441204101 	3.70323146e-06 	1.418500319e-05
0.5384624778 	9.298374755e-05 	0.0001115445204 	7.089886653e-06 	0.007424845192 	6.511187181e-06 	1.415381856e-05
0.574124097 	0.00043524772 	0.0007504564982 	5.805373407e-06 	0.007077073325 	9.891845014e-06 	1.349086873e-05
0.6096731358 	0.0008785713194 	0.001270473719 	4.929514422e-06 	0.006592456794 	1.06914167e-05 	1.256705493e-05
0.642780273 	0.001291936083 	0.001650175079 	4.183911709e-06 	0.006185175992 	9.760944266e-06 	1.179066452e-05
0.6736372215 	0.001654573211 	0.001933461334 	3.518328906e-06 	0.005891097232 	8.511324106e-06 	1.123006867e-05
0.7024167125 	0.001976553344 	0.002159965522 	2.923632442e-06 	0.005693756005 	7.361876002e-06 	1.085388144e-05
0.7292743072 	0.002271049563 	0.002350327705 	2.418029077e-06 	0.005567631842 	6.365389129e-06 	1.061345373e-05
0.7543509671 	0.002545084559 	0.002514704698 	1.989912757e-06 	0.005495275613 	5.506284242e-06 	1.047552265e-05
0.777772227 	0.002802480036 	0.00265781616 	1.622974951e-06 	0.005461337042 	4.749767896e-06 	1.04108263e-05
0.7996531056 	0.003044223586 	0.002781627746 	1.305065474e-06 	0.005453034896 	4.07778058e-06 	1.03950001e-05
0.8200980707 	0.003269747176 	0.00288670394 	1.028314176e-06 	0.005458982263 	3.474585847e-06 	1.040633744e-05
0.8392033992 	0.003477618295 	0.002973060745 	7.888600242e-07 	0.005469396353 	2.93118969e-06 	1.042618959e-05
0.8570577716 	0.003666407623 	0.00304062323 	5.847743269e-07 	0.005475800248 	2.441104551e-06 	1.043839719e-05
0.8737433156 	0.003835158837 	0.003089680775 	4.153105309e-07 	0.00547136148 	2.000842931e-06 	1.042993567e-05
0.8893364195 	0.003983813652 	0.003120834522 	2.800641231e-07 	0.005450441829 	1.6078513e-06 	1.0390057e-05
0.9039082323 	0.004113059074 	0.003135791601 	1.794468012e-07 	0.005409608402 	1.261805066e-06 	1.031221714e-05
0.917525146 	0.004224233091 	0.003135228734 	1.128411181e-07 	0.005344950502 	9.625798917e-07 	1.018896121e-05
0.9302491908 	0.004320897246 	0.003126790181 	8.230570814e-08 	0.005257357453 	7.132508843e-07 	1.002198451e-05
0.9421383606 	0.004392868152 	0.003102691569 	8.288029321e-08 	0.005150786762 	5.283099897e-07 	9.818831156e-06
0.9500106837 	0.004441184226 	0.00307417734 	1.032842762e-07 	0.005045020165 	4.170893291e-07 	9.617210626e-06
0.9569817698 	0.004479940119 	0.003055098186 	1.378178625e-07 	0.004947731015 	3.592642249e-07 	9.431750465e-06
0.9631544511 	0.004510367723 	0.003035673658 	1.781838758e-07 	0.004850536576 	3.375275135e-07 	9.246470851e-06
0.9686199044 	0.004533620652 	0.003018375394 	2.210779313e-07 	0.004756327306 	3.463464321e-07 	9.066881797e-06
0.9734589462 	0.004548262736 	0.00300179839 	2.624211379e-07 	0.004665486652 	3.776282536e-07 	8.893714264e-06
0.9777432055 	0.004549975067 	0.002981920662 	2.985311469e-07 	0.004574560152 	4.211025036e-07 	8.720383083e-06
0.9815361564 	0.004527552803 	0.002953973053 	3.254147911e-07 	0.004478465448 	4.632958313e-07 	8.53719987e-06
0.9848940386 	0.004454829759 	0.00289484786 	3.3825958e-07 	0.004348101021 	4.869981911e-07 	8.288689038e-06
0.9878666762 	0.004296495238 	0.002799650368 	3.266952359e-07 	0.00414435025 	4.664110092e-07 	7.900283439e-06
0.9904982048 	0.003892712018 	0.002537623185 	2.618318529e-07 	0.003716182261 	3.647087082e-07 	7.08407625e-06
0.9922078258 	0.003170185252 	0.002061092947 	1.19278479e-07 	0.003003487498 	1.736539228e-07 	5.725481947e-06
0.993917638 	0.001893182396 	0.001193922206 	-2.190710781e-08 	0.001792292123 	-8.84420085e-09 	3.416606928e-06
0.9956276413 	0.0005583078048 	0.0003068861008 	-3.598787015e-08 	0.0005320863998 	-3.684535495e-08 	1.014304564e-06
0.9973378359 	3.863729798e-05 	1.009479679e-05 	-4.938403812e-10 	3.807720309e-05 	1.076458484e-09 	7.258573209e-08
0.9990482216 	3.055808348e-07 	8.197933754e-09 	2.536922746e-12 	3.049403015e-07 	8.376766031e-11 	5.813009683e-10
0.9990482216 	3.055808348e-07 	8.197933754e-09 	2.536922746e-12 	3.049403015e-07 	8.376766031e-11 	5.813009683e-10
