0.1768325896 	2.320827007e-06 	-9.074621766e-08 	4.462863138e-10 	2.056180997e-06 	-1.805050571e-08 	3.919652466e-09
0.1785907938 	0.0004048928169 	-7.524722217e-05 	2.859759323e-07 	0.0001898893303 	-1.628238019e-06 	3.619818405e-07
0.1803486209 	0.003976586572 	-0.001046776492 	2.843601933e-06 	0.001500222086 	-1.130271792e-05 	2.859840261e-06
0.1821054395 	0.008415146915 	-0.002487358071 	1.089881765e-05 	0.00393683739 	-4.528208094e-05 	7.504706253e-06
0.1838606252 	0.0100729712 	-0.003362248836 	2.857355978e-05 	0.006592912061 	-9.186154442e-05 	1.256792279e-05
0.1856135605 	0.010770115 	-0.004215323296 	5.408324936e-05 	0.009462351003 	-0.0001309309043 	1.803787094e-05
0.1883063411 	0.01092190441 	-0.005050499593 	7.56617292e-05 	0.0123440538 	-0.0001534849795 	2.35311974e-05
0.191337819 	0.01038454068 	-0.005558769205 	8.318916164e-05 	0.01452119836 	-0.0001524950441 	2.768144004e-05
0.1947451987 	0.009378193903 	-0.005668819833 	7.497377774e-05 	0.0155636055 	-0.0001305225314 	2.966855776e-05
0.1985670993 	0.007941292937 	-0.00533657268 	5.62919577e-05 	0.0156360784 	-9.559327521e-05 	2.980671124e-05
0.2029500116 	0.006280098015 	-0.004755613003 	3.351027876e-05 	0.01507678812 	-5.55550617e-05 	2.874054853e-05
0.2079040511 	0.004656465456 	-0.004212518357 	1.68183281e-05 	0.01440286352 	-2.409500733e-05 	2.745586094e-05
0.2134522109 	0.003225216413 	-0.003845751905 	9.489516851e-06 	0.01397066672 	-8.462318631e-06 	2.663197372e-05
0.2196601811 	0.002064225614 	-0.003449110986 	5.555471324e-06 	0.01349816206 	-1.447082243e-06 	2.573124851e-05
0.2267486692 	0.001159768339 	-0.0029281988 	2.215093989e-06 	0.01278357119 	1.14378191e-06 	2.436903969e-05
0.2332577037 	0.0006435027697 	-0.002471443077 	4.730879616e-06 	0.01193671054 	-1.201327763e-05 	2.275468793e-05
0.234647839 	0.0005350731601 	-0.00237114255 	2.632212152e-07 	0.011723764 	-3.185557102e-07 	2.234875263e-05
0.245957996 	0.000301444389 	-0.001880630572 	2.472214051e-06 	0.0103270932 	1.336533454e-06 	1.968630991e-05
0.2581327455 	0.000238807875 	-0.001585052481 	6.742268524e-06 	0.00911427806 	4.958497192e-06 	1.737434717e-05
0.2712030149 	0.0001983664272 	-0.00130326808 	1.082136352e-05 	0.007706250746 	1.046275146e-05 	1.469025576e-05
0.2851802459 	0.0002094396269 	-0.001301540511 	1.607609099e-05 	0.007631763046 	9.293293711e-06 	1.45482615e-05
0.3001737618 	0.0001997988364 	-0.001239769715 	1.936378738e-05 	0.007242333886 	9.983951123e-06 	1.380590129e-05
0.3163208608 	0.0001741502336 	-0.001182523 	2.293669553e-05 	0.007232437825 	1.309036463e-05 	1.378703665e-05
0.3336263772 	0.0001499364527 	-0.001129703249 	1.995050264e-05 	0.007304902424 	1.066760279e-05 	1.392517431e-05
0.3521814245 	0.0001058836014 	-0.001015465968 	1.600539116e-05 	0.007253465846 	9.985684458e-06 	1.38271219e-05
0.3720724044 	6.53180784e-05 	-0.0009294537567 	1.309400105e-05 	0.007496864753 	7.171777408e-06 	1.429110786e-05
0.3934380589 	1.272236422e-05 	-0.0007769344759 	9.082685799e-06 	0.007467099265 	5.828002915e-06 	1.423436657e-05
0.4163236383 	-3.900252572e-05 	-0.0006374213809 	5.891812156e-06 	0.007828622949 	3.262094958e-06 	1.492353119e-05
0.4408019705 	-8.502166472e-05 	-0.0004402378311 	2.404338349e-06 	0.007712164586 	1.376851397e-06 	1.470152919e-05
0.4622799629 	-0.000116541777 	-0.0002762834414 	1.175150546e-06 	0.007851893615 	-2.477430968e-06 	1.496789155e-05
0.4669995683 	-0.0001195691522 	-0.0002414881395 	4.55201566e-07 	0.007878322083 	1.566151781e-07 	1.501827156e-05
0.4948343623 	-0.0001308731242 	-1.517072987e-05 	2.542618413e-06 	0.007939102915 	7.723964919e-07 	1.513413672e-05
0.5246517747 	-0.0001270199723 	0.0002629596912 	3.963013717e-06 	0.008072935743 	9.497811202e-07 	1.538925928e-05
0.5565711163 	-4.648096028e-05 	0.0006967445296 	4.336423601e-06 	0.008146582888 	1.277637617e-06 	1.552965121e-05
0.5907153384 	0.0002346333356 	0.001200767552 	4.063626572e-06 	0.007923707489 	3.07232315e-06 	1.510478875e-05
0.6248041875 	0.0006761078408 	0.001645215608 	3.634120736e-06 	0.007428393909 	4.736027268e-06 	1.416058341e-05
0.6565865215 	0.001122559271 	0.001969987209 	3.131529748e-06 	0.006927086956 	4.932243547e-06 	1.320495302e-05
0.6862306008 	0.001516849272 	0.002209385219 	2.665649848e-06 	0.006539613378 	4.629086672e-06 	1.246632069e-05
0.7138920104 	0.00186358952 	0.00239774366 	2.197743077e-06 	0.006263815517 	4.100093417e-06 	1.194057331e-05
0.7397136074 	0.002176351663 	0.002555906024 	1.782550291e-06 	0.006074471147 	3.580420808e-06 	1.157963032e-05
0.7638267275 	0.002463764209 	0.002692565159 	1.422698341e-06 	0.005949274616 	3.073179024e-06 	1.134097093e-05
0.7863495136 	0.002730564315 	0.00281116792 	1.118334877e-06 	0.005869259001 	2.60389252e-06 	1.118843893e-05
0.8073911058 	0.002978246851 	0.00291271245 	8.623736279e-07 	0.005819355156 	2.173790662e-06 	1.109330833e-05
0.8270511595 	0.003206845233 	0.002997205198 	6.498800868e-07 	0.005786569506 	1.786656041e-06 	1.103080977e-05
0.845421889 	0.003415644937 	0.003064458803 	4.76398432e-07 	0.005760179174 	1.442844855e-06 	1.098050246e-05
0.8625884684 	0.003604088579 	0.003114431397 	3.383397545e-07 	0.005731145872 	1.142149514e-06 	1.092515692e-05
0.8786299155 	0.003772125003 	0.003147618509 	2.323457625e-07 	0.005692444387 	8.838153072e-07 	1.085138113e-05
0.8936198082 	0.003920586885 	0.003164928271 	1.548983002e-07 	0.00563843923 	6.664815628e-07 	1.07484323e-05
0.9076267231 	0.004050966096 	0.003168523631 	1.023590487e-07 	0.005566023687 	4.887673006e-07 	1.061038814e-05
0.9207146719 	0.004165343177 	0.003159486741 	7.030589389e-08 	0.005471732393 	3.48336254e-07 	1.043064273e-05
0.9329434662 	0.004268285532 	0.003146253053 	5.515850481e-08 	0.005357384225 	2.42934108e-07 	1.021266334e-05
0.9443690234 	0.004349698607 	0.003121005389 	5.056954369e-08 	0.005229439459 	1.715070115e-07 	9.968765056e-06
0.9519339113 	0.004409161098 	0.003094369416 	5.239118106e-08 	0.005109866046 	1.340092902e-07 	9.740824898e-06
0.9586324528 	0.004460487263 	0.003079393781 	5.666592593e-08 	0.005005082796 	1.136922586e-07 	9.541078899e-06
0.9645635659 	0.004505422304 	0.003065275222 	6.09946804e-08 	0.004905009503 	1.03148666e-07 	9.350311389e-06
0.9698149412 	0.004544783884 	0.003054047942 	6.475598188e-08 	0.004812189668 	9.894641577e-08 	9.173370987e-06
0.9744642952 	0.004576429916 	0.003043694709 	6.746722641e-08 	0.004726157111 	9.812555987e-08 	9.009369021e-06
0.9785804997 	0.004594918914 	0.00302957656 	6.877509296e-08 	0.004642127381 	9.829174785e-08 	8.849185e-06
0.9822245787 	0.004587430638 	0.003006218552 	6.842408611e-08 	0.004553040812 	9.748650435e-08 	8.679361241e-06
0.9854505955 	0.004525450137 	0.002949630219 	6.599122301e-08 	0.004427046148 	9.379079314e-08 	8.439180392e-06
0.9883064419 	0.004370153708 	0.002853129949 	6.025580129e-08 	0.0042207316 	8.449110131e-08 	8.04588752e-06
0.9908345383 	0.003954007063 	0.002581044727 	4.727757659e-08 	0.003776711232 	6.519675545e-08 	7.19946129e-06
0.9924769413 	0.003200283979 	0.002081378946 	2.677750717e-08 	0.003032997675 	3.79211836e-08 	5.781736546e-06
0.9941195111 	0.001891725601 	0.001190759384 	6.380619025e-09 	0.001791482993 	1.13785955e-08 	3.415064501e-06
0.9957622477 	0.0005518580813 	0.0003010086202 	-7.039401406e-10 	0.0005261320096 	7.495900879e-10 	1.002953841e-06
0.9974051512 	3.881997562e-05 	1.001487803e-05 	5.952808759e-11 	3.826768896e-05 	4.040477312e-10 	7.294885112e-08
0.9990482216 	3.199043938e-07 	8.631149189e-09 	3.104942634e-13 	3.192323295e-07 	9.707245295e-12 	6.085455461e-10
