0.3982523954 	7.472160211e-07 	-1.872368058e-08 	3.670625373e-11 	7.587425503e-07 	-7.500776503e-10 	1.446374182e-09
0.3994377339 	6.542696911e-05 	-1.595324206e-05 	1.981456021e-08 	7.560241174e-05 	-4.320358672e-08 	1.441192094e-07
0.4006231409 	0.0007278223912 	-0.0004365039181 	3.316137031e-07 	0.0009868069416 	-2.288121498e-07 	1.881128299e-06
0.4018085007 	0.002460798349 	-0.001821718361 	8.941899698e-07 	0.003523378146 	3.198170336e-08 	6.716538019e-06
0.4029936986 	0.004333909637 	-0.003370273823 	1.141593072e-06 	0.006257907273 	9.155397255e-07 	1.192931056e-05
0.4041786207 	0.005649308141 	-0.00438460166 	1.063990634e-06 	0.008081285667 	1.810487622e-06 	1.540517656e-05
0.4060019699 	0.006544235391 	-0.005006804681 	8.604206414e-07 	0.009200494177 	2.527261764e-06 	1.753869905e-05
0.4080604285 	0.007055189266 	-0.005296556854 	5.546194895e-07 	0.009681533165 	3.021587481e-06 	1.845569305e-05
0.4103833753 	0.007360568143 	-0.005450047081 	2.636917774e-07 	0.009834291162 	3.313795479e-06 	1.874689226e-05
0.4130209671 	0.007527541915 	-0.005481208499 	2.643751239e-08 	0.0097546482 	3.398018481e-06 	1.859507063e-05
0.4160013668 	0.00760106284 	-0.00543372719 	-1.612130558e-07 	0.009529674817 	3.327631273e-06 	1.816620884e-05
0.4193641481 	0.00761171645 	-0.005329322391 	-3.249313889e-07 	0.009198802774 	3.144542876e-06 	1.753547476e-05
0.423157894 	0.007575203214 	-0.005176982399 	-4.53536464e-07 	0.008786519454 	2.852549459e-06 	1.674954817e-05
0.4274660238 	0.007502001522 	-0.004984184873 	-5.550247185e-07 	0.008311193303 	2.471212476e-06 	1.584344441e-05
0.432326175 	0.007398275266 	-0.00475322372 	-6.367285619e-07 	0.007786151913 	2.019674376e-06 	1.484256959e-05
0.4378190673 	0.007259228137 	-0.00448010473 	-6.992233418e-07 	0.007184339799 	1.495038887e-06 	1.369534844e-05
0.4461325613 	0.007067377966 	-0.004132290331 	-7.578705625e-07 	0.006476905438 	8.989696803e-07 	1.234678193e-05
0.455048941 	0.006836710548 	-0.003742343345 	-8.32108191e-07 	0.00574720319 	3.507490582e-07 	1.095576663e-05
0.46460301 	0.006591012271 	-0.003364164893 	-9.2799719e-07 	0.005070374474 	-3.094126127e-08 	9.665542985e-06
0.4748437118 	0.006328938096 	-0.002992341076 	-1.066934893e-06 	0.004443386174 	-2.2403499e-07 	8.470329024e-06
0.4858216947 	0.006052146687 	-0.002629885651 	-1.257200889e-06 	0.003867234286 	-2.255041527e-07 	7.372023391e-06
0.497589651 	0.005763842746 	-0.002277697973 	-1.50626462e-06 	0.003341704224 	-4.271580287e-08 	6.37021703e-06
0.5102027201 	0.005468954918 	-0.001937178271 	-1.814875329e-06 	0.002869111798 	3.060439997e-07 	5.469324515e-06
0.5237189542 	0.005175229471 	-0.001609651818 	-2.179865458e-06 	0.00245328018 	7.88599514e-07 	4.676633878e-06
0.5381998521 	0.004894045187 	-0.001296465057 	-2.591445593e-06 	0.002099755707 	1.34311915e-06 	4.002717975e-06
0.5537109596 	0.004642380293 	-0.000998490829 	-3.026347985e-06 	0.001815394054 	1.862740303e-06 	3.46064563e-06
0.570323245 	0.004446038991 	-0.000715324726 	-3.455968113e-06 	0.001607576065 	2.227938182e-06 	3.064486782e-06
0.588119929 	0.004341435957 	-0.0004433928566 	-3.745853164e-06 	0.001480170681 	2.33425859e-06 	2.821616711e-06
0.6071750317 	0.004371452619 	-0.0001730842949 	-3.968723108e-06 	0.001426150363 	2.410851816e-06 	2.718638969e-06
0.6275820376 	0.004566923894 	0.000110364594 	-4.123157258e-06 	0.00142444672 	1.976553e-06 	2.715391352e-06
0.6494344704 	0.004917819518 	0.0004202029728 	-4.207049375e-06 	0.001477986187 	3.660072711e-07 	2.817452457e-06
0.6728352312 	0.005381502663 	0.000769080366 	-4.370025127e-06 	0.001595354179 	-1.143672703e-06 	3.04118847e-06
0.6978966025 	0.005946109824 	0.001165003119 	-4.638503687e-06 	0.001777095524 	-1.881443632e-06 	3.387637986e-06
0.7229590561 	0.006598517557 	0.00160388364 	-4.975128899e-06 	0.002020759472 	-2.56208456e-06 	3.852129194e-06
0.7463631701 	0.007232541206 	0.002055497388 	-4.493084554e-06 	0.002297474879 	-2.769166454e-06 	4.379625669e-06
0.7682214995 	0.007745163677 	0.002478335617 	-3.868987687e-06 	0.002605709179 	-3.107703442e-06 	4.967205915e-06
0.7886381734 	0.008165373865 	0.002873394468 	-3.528415733e-06 	0.002971155876 	-3.561695756e-06 	5.66384889e-06
0.8077096611 	0.008541017855 	0.003249946402 	-3.056258795e-06 	0.003388670903 	-3.588487195e-06 	6.459748574e-06
0.8255255342 	0.008874857894 	0.00360443195 	-2.646003266e-06 	0.003837181306 	-3.476060122e-06 	7.314734059e-06
0.8421687484 	0.009173479862 	0.003938705177 	-2.245868598e-06 	0.004303425847 	-3.258253244e-06 	8.20352574e-06
0.8577166818 	0.00944144112 	0.004252787986 	-1.881856352e-06 	0.004776671601 	-3.002593014e-06 	9.105663679e-06
0.8722413334 	0.009681822867 	0.004547241982 	-1.550986981e-06 	0.00524948335 	-2.731935865e-06 	1.000697428e-05
0.8858098685 	0.009896730032 	0.004822450207 	-1.256991094e-06 	0.005716425984 	-2.462514077e-06 	1.089709672e-05
0.8984849828 	0.01008753067 	0.005078652269 	-1.000956828e-06 	0.006173453644 	-2.20375567e-06 	1.176831847e-05
0.9103252262 	0.01025480631 	0.005315967339 	-7.84256071e-07 	0.006617542954 	-1.961942341e-06 	1.261487612e-05
0.9213853035 	0.01039829843 	0.005533609191 	-6.08730682e-07 	0.007045475627 	-1.741172175e-06 	1.343063473e-05
0.9317163424 	0.0105163891 	0.005731428296 	-4.783339773e-07 	0.007455104137 	-1.546814774e-06 	1.421150052e-05
0.9413661361 	0.01060480517 	0.0059043841 	-3.977964948e-07 	0.007840447712 	-1.384743762e-06 	1.494607248e-05
0.9503793651 	0.01066354828 	0.006059931297 	-3.804440348e-07 	0.008197968194 	-1.268320022e-06 	1.562760588e-05
0.9587978034 	0.01066628655 	0.006159931648 	-4.20077563e-07 	0.008488024746 	-1.213564591e-06 	1.618053429e-05
0.9643701856 	0.010623196 	0.006206834201 	-4.969618993e-07 	0.008687752609 	-1.215829797e-06 	1.656127111e-05
0.9693034113 	0.0105561101 	0.006234014136 	-6.144927007e-07 	0.008825401208 	-1.273355768e-06 	1.68236676e-05
0.9736706736 	0.0104482367 	0.006226995822 	-7.600042807e-07 	0.008910436271 	-1.376625715e-06 	1.698576806e-05
0.9775368093 	0.01029695706 	0.006188725907 	-9.285525317e-07 	0.008938950621 	-1.521928821e-06 	1.704012434e-05
0.9809592473 	0.01009338694 	0.006114519026 	-1.110313749e-06 	0.008902959098 	-1.700138881e-06 	1.697151449e-05
0.983988851 	0.009824458902 	0.005997327031 	-1.293394262e-06 	0.008788772245 	-1.897149658e-06 	1.675384261e-05
0.9866706657 	0.009464799359 	0.005827428622 	-1.459270024e-06 	0.008578745406 	-2.08977964e-06 	1.635347308e-05
0.9890445811 	0.008963425087 	0.005563946428 	-1.579458704e-06 	0.008216770216 	-2.234666356e-06 	1.566344777e-05
0.9911459193 	0.008256727484 	0.005194066004 	-1.616134166e-06 	0.00762831699 	-2.260777499e-06 	1.454169236e-05
0.9930059564 	0.007115929644 	0.004520351975 	-1.453040147e-06 	0.006600078015 	-2.021559105e-06 	1.258158309e-05
0.9942142764 	0.005476288908 	0.003482499951 	-1.043353419e-06 	0.00509313353 	-1.482563716e-06 	9.70892807e-06
0.995422663 	0.003100673099 	0.001899947125 	-5.005276289e-07 	0.002902766104 	-7.725701317e-07 	5.533478975e-06
0.996631116 	0.0008885107568 	0.0004604052184 	-1.144717173e-07 	0.0008435879363 	-2.245341921e-07 	1.60811307e-06
0.9978396355 	7.108129728e-05 	1.682322429e-05 	-7.981520281e-09 	7.008312035e-05 	-2.974528476e-08 	1.33597906e-07
0.9990482216 	8.027114443e-07 	2.096840237e-08 	-2.318064297e-11 	8.00966245e-07 	-6.456676655e-10 	1.52686428e-09
0.9990482216 	8.027114443e-07 	2.096840237e-08 	-2.318064297e-11 	8.00966245e-07 	-6.456676655e-10 	1.52686428e-09
