0.4709558481 	0.06579136483 	0.0001385019749 	-5.041299171e-09
0.4720092239 	0.2518074416 	0.0003117828688 	-5.640822573e-09
0.4730625996 	0.4896753817 	-7.698988267e-05 	5.853184446e-09
0.4741159754 	0.6814782389 	-0.0004057249408 	-6.149535243e-10
0.4751693511 	0.8098541731 	-6.020360394e-05 	-1.885068051e-08
0.4762227269 	0.9004523844 	0.0001780171434 	-2.176872261e-08
0.4778443634 	0.9748069247 	0.0001927365389 	-2.592519315e-08
0.4796765386 	1.033364697 	0.000157186303 	-3.626002064e-08
0.4817465869 	1.079819044 	0.0001275597691 	-4.761292712e-08
0.4840853915 	1.1183953 	0.0001634284597 	-6.141004699e-08
0.4867278453 	1.151664586 	0.000200287903 	-7.726166798e-08
0.4897133715 	1.181139883 	0.0002483676476 	-9.604741256e-08
0.4930865115 	1.207788067 	0.0003017213128 	-1.180308417e-07
0.4968975894 	1.23222613 	0.0003657096249 	-1.436258959e-07
0.5012034633 	1.254854523 	0.0004360744944 	-1.728113058e-07
0.506068373 	1.27766375 	0.000522497527 	-2.085771392e-07
0.5134203412 	1.300959566 	0.0006413353263 	-2.523729134e-07
0.5212948542 	1.321812011 	0.0007662490102 	-2.96912347e-07
0.529729052 	1.339142359 	0.0008851761894 	-3.354329468e-07
0.5387627144 	1.353452159 	0.001000585808 	-3.652910131e-07
0.5484384488 	1.365167266 	0.00110166242 	-3.851933345e-07
0.5588018907 	1.374656053 	0.001186836075 	-3.960545653e-07
0.5699019192 	1.382249566 	0.001253521555 	-4.000557662e-07
0.5817908876 	1.388232382 	0.001301863423 	-3.993362428e-07
0.5945248701 	1.392834446 	0.001332331123 	-3.949978456e-07
0.6081639266 	1.396225694 	0.001345579357 	-3.870654358e-07
0.6227723857 	1.398516612 	0.001341819683 	-3.750400596e-07
0.638419148 	1.399762437 	0.001320898889 	-3.584008282e-07
0.6551780116 	1.399968643 	0.001282456676 	-3.368070938e-07
0.6731280194 	1.399095133 	0.00122616787 	-3.100688481e-07
0.6923538328 	1.397056981 	0.001151904561 	-2.780610447e-07
0.7129461301 	1.393719529 	0.001059873699 	-2.406658087e-07
0.7350020349 	1.388978278 	0.0009528438575 	-1.985012402e-07
0.7570579485 	1.382986147 	0.0008391710293 	-1.541078725e-07
0.7776502527 	1.376089942 	0.0007280976568 	-1.105440223e-07
0.7968760713 	1.368502835 	0.0006239531235 	-6.937002726e-08
0.814826083 	1.360299628 	0.0005281937795 	-3.122717492e-08
0.831584949 	1.351517343 	0.0004417557095 	3.404611324e-09
0.8472317127 	1.342160026 	0.0003652761601 	3.412812396e-08
0.8618401721 	1.332201121 	0.0002991441762 	6.055691754e-08
0.8754792281 	1.321585005 	0.0002435267311 	8.227037377e-08
0.8882132094 	1.310228185 	0.0001982869688 	9.881457674e-08
0.9001021759 	1.298020107 	0.0001630137569 	1.097516405e-07
0.9112022019 	1.284822575 	0.0001367426346 	1.147701856e-07
0.9215656407 	1.270467009 	0.0001185530526 	1.137992064e-07
0.9312413717 	1.254745362 	0.0001060971824 	1.071758281e-07
0.9402750304 	1.237395679 	9.92996836e-05 	9.561570034e-08
0.9487092242 	1.218059828 	9.086641333e-05 	8.051150799e-08
0.9565837329 	1.196251742 	8.575434303e-05 	6.333343924e-08
0.9639356968 	1.172997059 	8.501331844e-05 	4.695438863e-08
0.9688006083 	1.150864703 	7.598641923e-05 	3.437023355e-08
0.9731064834 	1.12922999 	6.759080785e-05 	2.487955877e-08
0.976917562 	1.106057774 	6.144483736e-05 	1.7298115e-08
0.9802907021 	1.080882315 	5.279301664e-05 	1.155787891e-08
0.9832762282 	1.053043703 	4.600913048e-05 	7.371398282e-09
0.9859186816 	1.021551325 	3.524664533e-05 	4.432723038e-09
0.9882574856 	0.9848851898 	2.648125182e-05 	2.559253048e-09
0.990327533 	0.9405076079 	-3.954451018e-05 	1.415690468e-09
0.9921597073 	0.8842517404 	-0.0001124082016 	8.200330867e-10
0.9937813429 	0.8125329023 	-9.085324213e-05 	-8.768662064e-10
0.9948347186 	0.7250824537 	0.0001449050165 	-1.300196593e-09
0.9958880943 	0.603308427 	0.0003641879286 	2.756153063e-09
0.9969414701 	0.4284013489 	2.072921593e-05 	2.259895799e-09
0.9979948458 	0.2187508995 	-0.000263083728 	-1.793072134e-09
0.9990482216 	0.06266449229 	-0.0001092149614 	-1.396115877e-09
