6.456040364e-34 	0.9299580486 	-6.31580157e-14 	-2.295626705e-20
0.001935329056 	0.9299666037 	0.0002095620293 	-7.642729529e-08
0.003870646918 	0.9299910366 	-0.0002335328374 	9.665972127e-08
0.005805953543 	0.9300295779 	-0.0002352019172 	9.759807598e-08
0.00774124892 	0.930083565 	-0.0002155158844 	9.427419193e-08
0.009676533077 	0.9301659421 	-0.0002509883616 	1.083605311e-07
0.0126558162 	0.9303015434 	-0.0003322067693 	1.39984443e-07
0.0160218712 	0.9305062954 	-0.0004321672225 	1.775265772e-07
0.01982490545 	0.9307939528 	-0.0005370244092 	2.145550844e-07
0.02413483307 	0.931191021 	-0.0006504059274 	2.512642203e-07
0.02900746903 	0.9317305779 	-0.0007779063946 	2.890006203e-07
0.03451265705 	0.9324537877 	-0.0009219789155 	3.273875011e-07
0.04073250544 	0.9334134432 	-0.001083612627 	3.650736398e-07
0.0477826567 	0.9346758008 	-0.001263790147 	4.000272488e-07
0.05574940349 	0.9363207415 	-0.001463486433 	4.303560447e-07
0.06476049349 	0.9386706528 	-0.001705595662 	4.5918662e-07
0.07840541888 	0.9421556474 	-0.002005513696 	4.680619375e-07
0.09305181054 	0.9467301672 	-0.002330163851 	4.58346335e-07
0.1087667242 	0.9522521185 	-0.002653504272 	4.237989693e-07
0.1256313686 	0.9587868774 	-0.002970088563 	3.647482843e-07
0.1437313485 	0.9663912113 	-0.003272846315 	2.82619387e-07
0.1631570974 	0.9751114472 	-0.003553435545 	1.803910104e-07
0.1840043494 	0.984979645 	-0.003801973866 	6.28580756e-08
0.1952923877 	0.9905414009 	-0.003905437336 	5.01816758e-06
0.2063746485 	0.9960057238 	-0.004007101797 	6.547760637e-08
0.2303758959 	1.008166622 	-0.004155888294 	1.951188724e-07
0.2561229333 	1.021382807 	-0.004234203807 	3.121162816e-07
0.2837387559 	1.035480605 	-0.004227651167 	4.041198272e-07
0.3133605011 	1.050134096 	-0.004123183309 	4.599849211e-07
0.3451213801 	1.064780586 	-0.003912192335 	4.734450822e-07
0.3791749318 	1.078536654 	-0.003596004065 	4.479386304e-07
0.4156786692 	1.090183791 	-0.00319185504 	3.974153156e-07
0.4548022144 	1.098377304 	-0.002727406683 	3.36782766e-07
0.4967273963 	1.102101006 	-0.002236729961 	2.719907354e-07
0.5386674328 	1.101385449 	-0.001766917337 	2.03978495e-07
0.5778332805 	1.097400839 	-0.001351055202 	1.354409761e-07
0.6144050965 	1.091308659 	-0.0009931633539 	6.820822734e-08
0.6485527742 	1.083787298 	-0.0006898350689 	3.754371062e-09
0.6804359545 	1.075228466 	-0.000437601835 	-5.56541942e-08
0.7102043027 	1.065877944 	-0.0002323073491 	-1.080433775e-07
0.7379976686 	1.055904255 	-6.952510571e-05 	-1.522281932e-07
0.7639469474 	1.045428963 	5.507281377e-05 	-1.876306455e-07
0.7881743872 	1.034539377 	0.0001456181542 	-2.140365715e-07
0.8107941812 	1.023292235 	0.0002061588224 	-2.314481045e-07
0.8319129813 	1.011711884 	0.0002406042083 	-2.400399506e-07
0.8516303754 	0.9997847412 	0.0002531488219 	-2.401485372e-07
0.8700393505 	0.9874489459 	0.0002474024806 	-2.323529868e-07
0.8872267278 	0.9745808043 	0.0002284430145 	-2.173870667e-07
0.903273569 	0.9609647468 	0.0001973909968 	-1.964710603e-07
0.9182555581 	0.9462710746 	0.0001615273537 	-1.706901939e-07
0.9322433571 	0.9311041944 	0.0001285242426 	-1.434898131e-07
0.9414993065 	0.9169833062 	9.79790862e-05 	-1.199222878e-07
0.9496916368 	0.9032978757 	7.395849363e-05 	-9.966112916e-08
0.9569425705 	0.8886917549 	5.538537682e-05 	-8.120913867e-08
0.9633602853 	0.8728203447 	3.894011092e-05 	-6.499991564e-08
0.969040528 	0.8552325328 	2.794570624e-05 	-5.096470539e-08
0.974068043 	0.8352807586 	1.65048523e-05 	-3.919040851e-08
0.9785178364 	0.8120106011 	1.574785178e-05 	-2.952339984e-08
0.9824562955 	0.7838208464 	-2.096601176e-05 	-2.18360909e-08
0.9859421785 	0.7480979135 	-4.627639155e-05 	-1.572402374e-08
0.9890274919 	0.7021626589 	-0.0001016070514 	-1.096733239e-08
0.9910316378 	0.6450099521 	-3.751019887e-05 	-6.698610237e-09
0.9930357838 	0.5584053287 	0.0003498679148 	-4.639483045e-09
0.9950399297 	0.412534067 	0.0002071607112 	-3.574087373e-09
0.9970440756 	0.2148371324 	-0.0002480740207 	-4.075808536e-10
0.9990482216 	0.06154087855 	-0.0001777851267 	8.177942711e-10
0.9990482216 	0.06154087855 	-0.0001777851267 	8.177942711e-10
