0.3809068052 	1.765595648e-06 	-6.820997861e-08 	4.555952957e-11 	1.725665806e-06 	-8.812831789e-10 	3.289598651e-09
0.3819639198 	0.0001617785243 	-4.401965957e-05 	4.410515263e-08 	0.0001356172508 	-9.537707651e-08 	2.585241729e-07
0.3830211992 	0.001913866674 	-0.0009027779009 	8.08288163e-07 	0.001352417402 	-8.671840165e-07 	2.578083453e-06
0.3840785339 	0.005788405939 	-0.003024164647 	1.900685824e-06 	0.003905667006 	-1.639194253e-06 	7.445286838e-06
0.385135815 	0.009082561035 	-0.004854678607 	2.026658113e-06 	0.006072637083 	-1.370632e-06 	1.157613408e-05
0.3861929345 	0.01073139557 	-0.005755255306 	1.543106209e-06 	0.007211651875 	-5.390818847e-07 	1.374741285e-05
0.3878197712 	0.01135709114 	-0.006113096283 	8.971420462e-07 	0.007680826428 	5.03988227e-07 	1.464178995e-05
0.3896565669 	0.01112714779 	-0.006011331622 	7.995560207e-08 	0.007582893845 	1.59136298e-06 	1.445510322e-05
0.3917295634 	0.01053465422 	-0.005751372596 	-7.331676471e-07 	0.007233124815 	2.47128753e-06 	1.378834624e-05
0.394067843 	0.009726433449 	-0.005370644283 	-1.451370355e-06 	0.006769835336 	2.858345133e-06 	1.290518773e-05
0.396755554 	0.008836248026 	-0.00494002141 	-2.028238373e-06 	0.006314108107 	2.454262936e-06 	1.203644497e-05
0.3998076713 	0.007947223259 	-0.004478251274 	-2.469870262e-06 	0.005951707839 	1.06059973e-06 	1.134560933e-05
0.4032493224 	0.007119927035 	-0.00400785121 	-2.753766602e-06 	0.005747444134 	-1.274449339e-06 	1.095622594e-05
0.4071295106 	0.006378741374 	-0.003540295496 	-2.944286367e-06 	0.005727333724 	-4.27561113e-06 	1.091788991e-05
0.4115792059 	0.005718061245 	-0.003067543662 	-3.114518314e-06 	0.005892128339 	-7.592370986e-06 	1.123203425e-05
0.4166308648 	0.005094905775 	-0.002567590317 	-3.204926259e-06 	0.006256944033 	-1.043136554e-05 	1.192747435e-05
0.4242899957 	0.004484502065 	-0.001982056928 	-3.129557147e-06 	0.006825154196 	-1.18801872e-05 	1.301064085e-05
0.4325944199 	0.003941834465 	-0.001352602149 	-3.048878442e-06 	0.007508919181 	-1.233111171e-05 	1.431408695e-05
0.4415815424 	0.003490839714 	-0.0007463927052 	-2.956965857e-06 	0.008215670727 	-1.200743964e-05 	1.566135183e-05
0.4512802035 	0.00310296237 	-0.0001454028226 	-2.789311828e-06 	0.008910674038 	-1.117055552e-05 	1.698622131e-05
0.4617756613 	0.002767789381 	0.000447728411 	-2.553485645e-06 	0.009569737574 	-9.924137005e-06 	1.824257959e-05
0.4731719825 	0.002481467329 	0.001035871721 	-2.253827038e-06 	0.01017316817 	-8.359808887e-06 	1.939288601e-05
0.485500853 	0.002243947272 	0.001614950763 	-1.877420914e-06 	0.01070390649 	-6.588804202e-06 	2.040462077e-05
0.4988448325 	0.002052439978 	0.002178765608 	-1.420598803e-06 	0.0111531889 	-4.771948896e-06 	2.12610779e-05
0.5132858996 	0.001903149768 	0.002715578931 	-9.024746002e-07 	0.01151317441 	-2.971394265e-06 	2.194731034e-05
0.5289386969 	0.001788663772 	0.003211154929 	-3.802107771e-07 	0.01178329383 	-1.22592185e-06 	2.246223304e-05
0.5418282751 	0.001724097737 	0.003542843629 	3.482293051e-06 	0.01191687023 	-1.656553202e-06 	2.271686677e-05
0.5458547894 	0.001702877367 	0.003646673732 	-1.243607696e-07 	0.01195911318 	-3.5331254e-07 	2.279739359e-05
0.5640944687 	0.001646243365 	0.004002559717 	-5.746202596e-07 	0.01203136835 	-1.674158076e-06 	2.293513202e-05
0.5838275065 	0.001645884317 	0.004216197705 	-6.969378782e-07 	0.01191317966 	-2.391254746e-06 	2.270983153e-05
0.605107761 	0.001686141942 	0.004266484156 	-2.857994497e-07 	0.01160842701 	-2.217327522e-06 	2.212888828e-05
0.6280406075 	0.001737435829 	0.004211781368 	2.076778525e-07 	0.01121398975 	-2.066061176e-06 	2.137698123e-05
0.6527238598 	0.001841831246 	0.004086618486 	6.12434499e-07 	0.01068249207 	-1.96947925e-06 	2.036379894e-05
0.6792545965 	0.00202524076 	0.003955259037 	8.726648607e-07 	0.01003260973 	-1.603975844e-06 	1.912494257e-05
0.7058458787 	0.002259959104 	0.003874001481 	8.64977795e-07 	0.009393111388 	-1.182031648e-06 	1.790588099e-05
0.7307074168 	0.002503036534 	0.003836437933 	7.259169158e-07 	0.008854896126 	-8.259386463e-07 	1.687989311e-05
0.7539388743 	0.002729974196 	0.003819472783 	5.65793326e-07 	0.008435343785 	-6.076872192e-07 	1.608010974e-05
0.7756407309 	0.002938123652 	0.003806084371 	4.329977263e-07 	0.00810480156 	-4.718436837e-07 	1.545000439e-05
0.7959110465 	0.003129441242 	0.003789089627 	3.324827727e-07 	0.007834342774 	-3.736087549e-07 	1.493443477e-05
0.8148439719 	0.003305267562 	0.003765993592 	2.584001838e-07 	0.007603869206 	-3.003466062e-07 	1.449508809e-05
0.8325271295 	0.003466566331 	0.003736601778 	2.045907163e-07 	0.007399469746 	-2.460863093e-07 	1.410544591e-05
0.8490433661 	0.003614265038 	0.003701812517 	1.669320062e-07 	0.007211318481 	-2.067960342e-07 	1.374677731e-05
0.8644696653 	0.003749806337 	0.003663128649 	1.43114574e-07 	0.007032114832 	-1.768442581e-07 	1.340516535e-05
0.878878094 	0.003875379531 	0.003622559163 	1.315011369e-07 	0.006856703099 	-1.507510766e-07 	1.307078183e-05
0.8923357983 	0.003994110654 	0.00358242836 	1.306343826e-07 	0.006681635766 	-1.238205004e-07 	1.273705483e-05
0.9049053983 	0.004109931962 	0.0035455603 	1.390424587e-07 	0.006505687651 	-9.249581356e-08 	1.240164883e-05
0.9166453775 	0.00422774276 	0.003514827693 	1.550646157e-07 	0.006329098861 	-5.444288843e-08 	1.206502151e-05
0.9276103354 	0.004353013238 	0.003494548756 	1.772936308e-07 	0.00615593384 	-7.755012264e-09 	1.173492085e-05
0.9378512652 	0.004492005293 	0.003486731043 	2.036027324e-07 	0.005989766387 	4.812078438e-08 	1.14181595e-05
0.9474158034 	0.004656192128 	0.003504656393 	2.34100693e-07 	0.005842319801 	1.140971398e-07 	1.113708533e-05
0.9563484579 	0.00483021192 	0.003530573071 	2.594831639e-07 	0.005725271532 	1.816755005e-07 	1.09139588e-05
0.9622608402 	0.004996734875 	0.003565115462 	2.82055673e-07 	0.005653808431 	2.438332864e-07 	1.077773026e-05
0.9674948231 	0.005166219552 	0.003621937818 	3.003603143e-07 	0.005627438923 	2.987679296e-07 	1.072746265e-05
0.9721281468 	0.005342903534 	0.00368579537 	3.143611565e-07 	0.005632349403 	3.487749637e-07 	1.073682339e-05
0.9762296655 	0.005524184602 	0.003756709519 	3.239623733e-07 	0.005665673874 	3.912693251e-07 	1.08003491e-05
0.9798603561 	0.005701644492 	0.003828506888 	3.285141777e-07 	0.005718406601 	4.234557105e-07 	1.090087233e-05
0.9830742178 	0.005860144096 	0.003891190204 	3.274085324e-07 	0.005774109091 	4.429031705e-07 	1.100705676e-05
0.9859190669 	0.005972318581 	0.003931984748 	3.198448935e-07 	0.005810038425 	4.476814336e-07 	1.107554806e-05
0.988437243 	0.005987331959 	0.003914204949 	3.040301809e-07 	0.005769505113 	4.350525411e-07 	1.09982803e-05
0.990666234 	0.005833541755 	0.003815073706 	2.790351752e-07 	0.005573061577 	4.018710483e-07 	1.062380432e-05
0.992639231 	0.005265746496 	0.003442407901 	2.352301031e-07 	0.004992221179 	3.391833285e-07 	9.516561083e-06
0.9939209151 	0.004186921792 	0.00272152905 	1.74200047e-07 	0.003950587179 	2.532659709e-07 	7.530917173e-06
0.9952026562 	0.002420763079 	0.001513399226 	9.19620764e-08 	0.002286913969 	1.408151508e-07 	4.359493639e-06
0.9964844543 	0.0007016311821 	0.0003746018395 	2.276153465e-08 	0.0006683985004 	4.206432091e-08 	1.274153314e-06
0.9977663094 	5.492463748e-05 	1.39950694e-05 	1.087065163e-09 	5.412253699e-05 	4.194690315e-09 	1.031725981e-07
0.9990482216 	5.787579357e-07 	1.713691928e-08 	2.126347579e-12 	5.77510334e-07 	6.391535895e-11 	1.100895207e-09
0.9990482216 	5.787579357e-07 	1.713691928e-08 	2.126347579e-12 	5.77510334e-07 	6.391535895e-11 	1.100895207e-09
