0.470659737 	0.06260835309 	-7.550501184e-05 	-1.797924809e-07
0.470659737 	0.06260835309 	-7.550501184e-05 	-1.797924809e-07
0.4716964622 	0.2404526207 	-0.0004345255157 	-6.850937208e-07
0.4727331945 	0.4683251333 	-0.001445831006 	-1.339325094e-06
0.4737699337 	0.6546607353 	-0.002347575643 	-1.905805972e-06
0.4748066793 	0.7816383856 	-0.002450705126 	-2.324170237e-06
0.4758434311 	0.8719593673 	-0.002492158135 	-2.637899821e-06
0.4774394867 	0.9459799517 	-0.002711386833 	-2.938487093e-06
0.4792427742 	1.004021651 	-0.00296037257 	-3.213026631e-06
0.4812801995 	1.04979876 	-0.003171217245 	-3.468532297e-06
0.48358615 	1.087579079 	-0.003299916626 	-3.718233107e-06
0.486192473 	1.119936715 	-0.003417153951 	-3.970829218e-06
0.4891372032 	1.1484107 	-0.00351944026 	-4.231822535e-06
0.4924642826 	1.174025775 	-0.003616274954 	-4.505280608e-06
0.496230251 	1.19746461 	-0.003705363296 	-4.795970243e-06
0.5004856092 	1.219194775 	-0.003792436207 	-5.103950487e-06
0.505296538 	1.241261386 	-0.003882805091 	-5.435030001e-06
0.512575218 	1.26423843 	-0.003967504154 	-5.887247363e-06
0.5203808573 	1.285548456 	-0.004047954051 	-6.332616918e-06
0.5287496252 	1.304224211 	-0.004117523489 	-6.761368225e-06
0.5377230685 	1.320747097 	-0.004168528189 	-7.167220132e-06
0.547345261 	1.3354367 	-0.004206486393 	-7.54258002e-06
0.5576630227 	1.348485833 	-0.004229107501 	-7.878665659e-06
0.5687261579 	1.360010735 	-0.004236584558 	-8.165610307e-06
0.5805877104 	1.370075124 	-0.004227908934 	-8.392852933e-06
0.5933042393 	1.37871035 	-0.004202638432 	-8.54955924e-06
0.6069361121 	1.385929333 	-0.004160260652 	-8.625155847e-06
0.6215479937 	1.391736767 	-0.00410017401 	-8.610007768e-06
0.6372107484 	1.396133413 	-0.004021147481 	-8.496054022e-06
0.6539962598 	1.399114094 	-0.003921266723 	-8.27758298e-06
0.6719847469 	1.400658688 	-0.003798539063 	-7.952490394e-06
0.6912601121 	1.400715153 	-0.003651623813 	-7.522425149e-06
0.7119125193 	1.399176078 	-0.003479530574 	-6.992283905e-06
0.7340386155 	1.395920387 	-0.003283635955 	-6.378144878e-06
0.7561688545 	1.391041753 	-0.003072864814 	-5.728950067e-06
0.7768330656 	1.384871378 	-0.00285932632 	-5.100695332e-06
0.7961274613 	1.377666437 	-0.002649657576 	-4.515755201e-06
0.814142334 	1.369552802 	-0.002446324679 	-3.980632569e-06
0.8309622617 	1.360614245 	-0.002250675802 	-3.496584417e-06
0.8466663774 	1.350902937 	-0.002063363421 	-3.061987258e-06
0.8613285871 	1.340444724 	-0.001884692283 	-2.673670468e-06
0.8750179829 	1.329241256 	-0.001714743535 	-2.327809687e-06
0.8877990797 	1.317269802 	-0.001553469385 	-2.020328929e-06
0.8997321264 	1.304481001 	-0.001400639505 	-1.747236707e-06
0.9108733837 	1.29079392 	-0.001256080311 	-1.504743394e-06
0.9212753826 	1.276088206 	-0.001119106564 	-1.289343586e-06
0.9309871706 	1.260189788 	-0.0009900048477 	-1.097831146e-06
0.9400545422 	1.242851899 	-0.0008665866631 	-9.273239282e-07
0.9485202539 	1.223709612 	-0.0007536098862 	-7.752726278e-07
0.9564242262 	1.202247183 	-0.0006439388719 	-6.395505329e-07
0.9638037307 	1.179405723 	-0.000541794679 	-5.248624476e-07
0.9686868836 	1.157640334 	-0.0004670114796 	-4.395629482e-07
0.9730089153 	1.136303054 	-0.0004047504062 	-3.713111138e-07
0.976834303 	1.113369327 	-0.0003460392246 	-3.120140758e-07
0.9802201149 	1.088361876 	-0.000295064574 	-2.60202461e-07
0.9832168622 	1.060616843 	-0.0002471093577 	-2.147674503e-07
0.9858692517 	1.029146243 	-0.0002078576133 	-1.748092665e-07
0.9882168534 	0.992439686 	-0.0001708420144 	-1.396128235e-07
0.9902946903 	0.9479734922 	-0.0001956241249 	-1.084739429e-07
0.992133761 	0.891602245 	-0.0002307447284 	-8.114830379e-08
0.9937615021 	0.8197597766 	-0.0001816933471 	-5.878726774e-08
0.9948188447 	0.7321612796 	7.899834262e-05 	-4.144089857e-08
0.9958761879 	0.6098723435 	0.0003352573642 	-2.648454004e-08
0.9969335318 	0.4333857662 	8.960548526e-06 	-1.343825225e-08
0.9979908764 	0.2212298168 	-0.000275370485 	-4.160418236e-09
0.9990482216 	0.06249483666 	-0.0001128268026 	-3.865462814e-10
