0.0000 0.1385 0.8615 0.9311 0.3197 2.0702 11.9551 0.2264 
0.0000 0.1484 0.8516 0.9600 0.3014 1.8852 10.1536 0.3557 
0.0000 0.1583 0.8417 0.9853 0.2841 1.7277 7.8732 0.4712 
0.0000 0.1681 0.8319 1.0067 0.2696 1.5994 5.9696 0.5481 
0.0000 0.1780 0.8220 1.0238 0.2560 1.5323 4.6312 0.5733 
0.0000 0.1879 0.8121 1.0388 0.2419 1.4684 3.6929 0.5585 
0.0000 0.1978 0.8022 1.0520 0.2292 1.4182 3.0277 0.5111 
0.0000 0.2077 0.7923 1.0640 0.2164 1.3802 2.5027 0.4559 
0.0000 0.2176 0.7824 1.0739 0.2032 1.3574 2.0882 0.4036 
0.0000 0.2275 0.7725 1.0826 0.1914 1.3501 1.8177 0.3585 
0.0000 0.2374 0.7626 1.0909 0.1816 1.3448 1.6130 0.3219 
0.0000 0.2473 0.7527 1.0977 0.1733 1.3479 1.4422 0.2937 
0.0000 0.2572 0.7428 1.1036 0.1652 1.3574 1.3089 0.2728 
0.0000 0.2671 0.7329 1.1086 0.1571 1.3720 1.2088 0.2580 
0.0000 0.2769 0.7231 1.1122 0.1496 1.3977 1.1393 0.2478 
0.0000 0.2868 0.7132 1.1154 0.1426 1.4222 1.0860 0.2411 
0.0000 0.2967 0.7033 1.1184 0.1364 1.4505 1.0501 0.2368 
0.0000 0.3066 0.6934 1.1206 0.1305 1.4826 1.0159 0.2344 
0.0000 0.3165 0.6835 1.1226 0.1246 1.5073 0.9856 0.2343 
0.0000 0.3264 0.6736 1.1238 0.1192 1.5423 0.9664 0.2367 
0.0000 0.3363 0.6637 1.1244 0.1145 1.5814 0.9535 0.2419 
0.0000 0.3462 0.6538 1.1252 0.1101 1.6203 0.9432 0.2491 
0.0000 0.3561 0.6439 1.1258 0.1059 1.6561 0.9364 0.2570 
0.0000 0.3660 0.6340 1.1263 0.1015 1.6856 0.9361 0.2637 
0.0000 0.3759 0.6241 1.1270 0.0973 1.7235 0.9370 0.2688 
0.0000 0.3857 0.6143 1.1270 0.0934 1.7635 0.9362 0.2726 
0.0000 0.3956 0.6044 1.1260 0.0900 1.8000 0.9388 0.2766 
0.0000 0.4055 0.5945 1.1249 0.0872 1.8433 0.9517 0.2822 
0.0000 0.4154 0.5846 1.1240 0.0844 1.8856 0.9578 0.2899 
0.0000 0.4253 0.5747 1.1239 0.0821 1.9262 0.9603 0.2994 
0.0000 0.4352 0.5648 1.1237 0.0800 1.9683 0.9694 0.3098 
0.0000 0.4451 0.5549 1.1224 0.0775 2.0116 0.9752 0.3203 
0.0000 0.4550 0.5450 1.1209 0.0743 2.0560 0.9820 0.3302 
0.0000 0.4649 0.5351 1.1194 0.0716 2.0976 0.9909 0.3394 
0.0000 0.4748 0.5252 1.1174 0.0693 2.1263 0.9996 0.3480 
0.0000 0.4847 0.5153 1.1155 0.0670 2.1488 1.0098 0.3566 
0.0000 0.4945 0.5055 1.1129 0.0646 2.1754 1.0156 0.3658 
0.0000 0.5044 0.4956 1.1101 0.0617 2.2150 1.0262 0.3761 
0.0000 0.5143 0.4857 1.1079 0.0589 2.2670 1.0444 0.3873 
0.0000 0.5242 0.4758 1.1065 0.0567 2.3195 1.0597 0.3989 
0.0000 0.5341 0.4659 1.1050 0.0556 2.3749 1.0678 0.4105 
0.0000 0.5440 0.4560 1.1033 0.0547 2.4206 1.0742 0.4221 
0.0000 0.5539 0.4461 1.1010 0.0530 2.4604 1.0831 0.4338 
0.0000 0.5638 0.4362 1.0976 0.0510 2.5033 1.0907 0.4453 
0.0000 0.5737 0.4263 1.0939 0.0488 2.5494 1.0988 0.4563 
0.0000 0.5836 0.4164 1.0907 0.0465 2.5962 1.1196 0.4665 
0.0000 0.5935 0.4065 1.0878 0.0437 2.6459 1.1424 0.4759 
0.0000 0.6033 0.3967 1.0843 0.0408 2.6960 1.1605 0.4852 
0.0000 0.6132 0.3868 1.0809 0.0388 2.7386 1.1740 0.4954 
0.0000 0.6231 0.3769 1.0779 0.0382 2.7969 1.1817 0.5067 
0.0000 0.6330 0.3670 1.0751 0.0380 2.8525 1.1879 0.5191 
0.0000 0.6429 0.3571 1.0721 0.0380 2.8965 1.1971 0.5318 
0.0000 0.6528 0.3472 1.0687 0.0374 2.9517 1.2103 0.5437 
0.0000 0.6627 0.3373 1.0652 0.0361 2.9980 1.2211 0.5542 
0.0000 0.6726 0.3274 1.0615 0.0350 3.0568 1.2283 0.5629 
0.0000 0.6825 0.3175 1.0580 0.0345 3.1228 1.2403 0.5704 
0.0000 0.6924 0.3076 1.0552 0.0338 3.1714 1.2510 0.5776 
0.0000 0.7023 0.2977 1.0520 0.0321 3.2408 1.2551 0.5857 
0.0000 0.7121 0.2879 1.0477 0.0298 3.3048 1.2621 0.5953 
0.0000 0.7220 0.2780 1.0432 0.0281 3.3515 1.2721 0.6063 
0.0000 0.7319 0.2681 1.0389 0.0271 3.4276 1.2888 0.6184 
0.0000 0.7418 0.2582 1.0345 0.0259 3.5071 1.3006 0.6309 
0.0000 0.7517 0.2483 1.0301 0.0250 3.5844 1.3116 0.6431 
0.0000 0.7616 0.2384 1.0252 0.0242 3.6615 1.3231 0.6550 
0.0000 0.7715 0.2285 1.0193 0.0230 3.7244 1.3271 0.6666 
0.0000 0.7814 0.2186 1.0130 0.0219 3.7887 1.3387 0.6778 
0.0000 0.7913 0.2087 1.0067 0.0212 3.8528 1.3460 0.6887 
0.0000 0.8012 0.1988 1.0003 0.0203 3.9303 1.3571 0.6995 
0.0000 0.8111 0.1889 0.9932 0.0191 4.0018 1.3701 0.7103 
0.0000 0.8209 0.1791 0.9862 0.0180 4.0731 1.3735 0.7208 
0.0000 0.8308 0.1692 0.9791 0.0171 4.1519 1.3762 0.7308 
0.0000 0.8407 0.1593 0.9718 0.0163 4.2309 1.3828 0.7402 
0.0000 0.8506 0.1494 0.9643 0.0148 4.3338 1.3894 0.7486 
0.0000 0.8605 0.1395 0.9564 0.0129 4.4348 1.3862 0.7551 
0.0000 0.8704 0.1296 0.9487 0.0122 4.5246 1.3817 0.7595 
0.0000 0.8803 0.1197 0.9398 0.0122 4.6388 1.3764 0.7622 
0.0000 0.8902 0.1098 0.9300 0.0117 4.7357 1.3810 0.7634 
0.0000 0.9001 0.0999 0.9185 0.0106 4.8664 1.3984 0.7628 
0.0000 0.9100 0.0900 0.9058 0.0097 4.9917 1.4006 0.7595 
0.0000 0.9198 0.0802 0.8930 0.0094 5.1381 1.3817 0.7527 
0.0000 0.9297 0.0703 0.8766 0.0092 5.2884 1.3576 0.7415 
0.0000 0.9396 0.0604 0.8587 0.0087 5.3788 1.3240 0.7246 
0.0000 0.9495 0.0505 0.8372 0.0067 5.6737 1.2878 0.7036 
0.0000 0.9594 0.0406 0.8115 0.0042 6.0145 1.2866 0.6782 
0.0000 0.9693 0.0307 0.7801 0.0041 6.6021 1.2685 0.6512 
0.0000 0.9792 0.0208 0.7592 0.0050 6.9147 1.1566 0.6260 
