0.4327753378 	0 	0 	0
0.4327753378 	0 	0 	0
0.4338772721 	0 	0 	0
0.4349792558 	0 	0 	0
0.4360812236 	0 	0 	0
0.4371831111 	0 	0 	0
0.438284854 	0 	0 	0
0.439980521 	0 	0 	0
0.4418954567 	0 	0 	0
0.4440574903 	0 	0 	0
0.4465121601 	0 	0 	0
0.4492868824 	0 	0 	0
0.4524193417 	0 	0 	0
0.4559554006 	0 	0 	0
0.4599707967 	0 	0 	0
0.464503981 	0 	0 	0
0.4696303012 	0 	0 	0
0.477393966 	0 	0 	0
0.4857273663 	0 	0 	0
0.494665021 	0 	0 	0
0.5042536707 	0 	0 	0
0.5145418952 	0 	0 	0
0.5255804116 	0 	0 	0
0.5374224194 	0 	0 	0
0.5501239917 	0 	0 	0
0.5637445137 	0 	0 	0
0.5783471685 	0 	0 	0
0.5940000683 	0 	0 	0
0.6107820558 	0 	0 	0
0.6287644862 	0 	0 	0
0.6480354667 	0 	0 	0
0.6686833505 	0 	0 	0
0.6908046552 	0 	0 	0
0.7145040182 	0 	0 	0
0.7382093303 	0 	0 	0
0.7603476902 	0 	0 	0
0.7810231972 	0 	0 	0
0.8003330468 	0 	0 	0
0.8183678884 	0 	0 	0
0.8352122747 	0 	0 	0
0.8509448023 	0 	0 	0
0.8656389188 	0 	0 	0
0.8793630728 	0 	0 	0
0.8921811598 	0 	0 	0
0.9041528421 	0 	0 	0
0.9153338379 	0 	0 	0
0.9257761958 	0 	0 	0
0.9355285441 	0 	0 	0
0.9446363202 	0 	0 	0
0.9531419822 	0 	0 	0
0.9610852055 	0 	0 	0
0.9663424224 	0 	0 	0
0.9709962279 	0 	0 	0
0.9751158091 	0 	0 	0
0.9787624354 	0 	0 	0
0.9819903612 	0 	0 	0
0.9848476266 	0 	0 	0
0.9873767673 	0 	0 	0
0.9896154434 	0 	0 	0
0.9915969973 	0 	0 	0
0.9933509477 	0 	0 	0
0.9944903227 	0 	0 	0
0.9956297375 	0 	0 	0
0.9967691923 	0 	0 	0
0.997908687 	0 	0 	0
0.9990482216 	0 	0 	0
