0.4641652576 	0 	0 	0
0.4651990941 	0 	0 	0
0.4662329504 	0 	0 	0
0.467266816 	0 	0 	0
0.4683006803 	0 	0 	0
0.4693345329 	0 	0 	0
0.4709260673 	0 	0 	0
0.4727241214 	0 	0 	0
0.4747554116 	0 	0 	0
0.4770589516 	0 	0 	0
0.4796634245 	0 	0 	0
0.4826056984 	0 	0 	0
0.4859295513 	0 	0 	0
0.4896996368 	0 	0 	0
0.4939594095 	0 	0 	0
0.4987781099 	0 	0 	0
0.5060766604 	0 	0 	0
0.5139128031 	0 	0 	0
0.5223216845 	0 	0 	0
0.5313471393 	0 	0 	0
0.5410351781 	0 	0 	0
0.5514342349 	0 	0 	0
0.5625954391 	0 	0 	0
0.5745729139 	0 	0 	0
0.5874240993 	0 	0 	0
0.6012101002 	0 	0 	0
0.6159964431 	0 	0 	0
0.6318568963 	0 	0 	0
0.6488617476 	0 	0 	0
0.6670934663 	0 	0 	0
0.6866360874 	0 	0 	0
0.7075804079 	0 	0 	0
0.7300239977 	0 	0 	0
0.7524754674 	0 	0 	0
0.7734422652 	0 	0 	0
0.7930211359 	0 	0 	0
0.8113031807 	0 	0 	0
0.8283739048 	0 	0 	0
0.844313407 	0 	0 	0
0.8591964582 	0 	0 	0
0.8730930293 	0 	0 	0
0.8860684419 	0 	0 	0
0.8981837067 	0 	0 	0
0.9094958036 	0 	0 	0
0.9200579402 	0 	0 	0
0.9299198015 	0 	0 	0
0.9391277838 	0 	0 	0
0.9477252122 	0 	0 	0
0.9557525438 	0 	0 	0
0.9632475577 	0 	0 	0
0.968207324 	0 	0 	0
0.9725972846 	0 	0 	0
0.9764828888 	0 	0 	0
0.9799220711 	0 	0 	0
0.9829661133 	0 	0 	0
0.9856604081 	0 	0 	0
0.9880451351 	0 	0 	0
0.9901558588 	0 	0 	0
0.9920240589 	0 	0 	0
0.9936775992 	0 	0 	0
0.9947517089 	0 	0 	0
0.995825826 	0 	0 	0
0.9968999504 	0 	0 	0
0.9979740823 	0 	0 	0
0.9990482216 	0 	0 	0
