0.3673995292 	0 	0 	0
0.3673995292 	0 	0 	0
0.3684829761 	0 	0 	0
0.3695665877 	0 	0 	0
0.3706502347 	0 	0 	0
0.3717337888 	0 	0 	0
0.3728171224 	0 	0 	0
0.3744841553 	0 	0 	0
0.3763660564 	0 	0 	0
0.3784895005 	0 	0 	0
0.3808839529 	0 	0 	0
0.3836378911 	0 	0 	0
0.3867652482 	0 	0 	0
0.390290462 	0 	0 	0
0.3942632783 	0 	0 	0
0.3988211095 	0 	0 	0
0.4039948728 	0 	0 	0
0.4118367251 	0 	0 	0
0.420339507 	0 	0 	0
0.429540511 	0 	0 	0
0.4394675757 	0 	0 	0
0.450208819 	0 	0 	0
0.4618721886 	0 	0 	0
0.4744877587 	0 	0 	0
0.488139843 	0 	0 	0
0.4975745988 	0 	0 	0
0.5028917562 	0 	0 	0
0.5188499572 	0 	0 	0
0.5361130653 	0 	0 	0
0.5547594807 	0 	0 	0
0.574931013 	0 	0 	0
0.596680164 	0 	0 	0
0.6201143357 	0 	0 	0
0.645332846 	0 	0 	0
0.6724342449 	0 	0 	0
0.6995933348 	0 	0 	0
0.7249828856 	0 	0 	0
0.7487060318 	0 	0 	0
0.7708663551 	0 	0 	0
0.7915646598 	0 	0 	0
0.8108975394 	0 	0 	0
0.8289546918 	0 	0 	0
0.8458208373 	0 	0 	0
0.861574609 	0 	0 	0
0.8762895743 	0 	0 	0
0.8900342399 	0 	0 	0
0.9028724742 	0 	0 	0
0.9148639184 	0 	0 	0
0.9260642485 	0 	0 	0
0.9365254628 	0 	0 	0
0.9462961394 	0 	0 	0
0.9554216696 	0 	0 	0
0.9614619036 	0 	0 	0
0.9668091954 	0 	0 	0
0.9715429241 	0 	0 	0
0.9757334019 	0 	0 	0
0.9794429011 	0 	0 	0
0.9827265717 	0 	0 	0
0.9856332522 	0 	0 	0
0.9882061891 	0 	0 	0
0.9904836754 	0 	0 	0
0.9924996163 	0 	0 	0
0.9938092065 	0 	0 	0
0.9951188621 	0 	0 	0
0.9964285831 	0 	0 	0
0.9977383696 	0 	0 	0
0.9990482216 	0 	0 	0
0.9990482216 	0 	0 	0
