0.47916667 	0.0039452135 	-0.001840514 	-6.4378676e-07 	0.0039368454 	1.3517591e-06 	0.0018684258
0.48958333 	0.006149746 	-0.0028603186 	-1.0221433e-07 	0.006116509 	2.338839e-07 	0.00055328405
0.5 	0.0046368787 	-0.0021658436 	4.9010972e-07 	0.004602161 	-1.0638961e-06 	0.002445014
0.51041667 	0.002716452 	-0.0012748699 	3.5011759e-06 	0.0026903146 	-7.3057437e-06 	0.0014102715
0.52083333 	0.0016154669 	-0.00066629503 	-2.814706e-07 	0.0016000759 	3.6312117e-07 	0.00021904063
0.53125 	0.0012343313 	-0.00028544844 	-7.5758042e-08 	0.0012315045 	4.1968894e-08 	0.00039892321
0.54166667 	0.0011941845 	-7.0231016e-05 	3.3794539e-07 	0.0012024239 	3.9489093e-08 	0.00060212545
0.55208333 	0.0012382825 	8.8395118e-05 	5.6209309e-07 	0.0012567338 	1.7204335e-07 	0.00062855019
0.5625 	0.0012928101 	0.00020832138 	3.6815837e-07 	0.0013203424 	1.3725681e-07 	0.00065871221
0.57291667 	0.0013441977 	0.00030377429 	3.4263908e-09 	0.0013795686 	1.2777181e-09 	0.00068823025
0.58333333 	0.0013900355 	0.00038332533 	-5.1355672e-08 	0.0014313753 	-6.3865928e-08 	0.00034456995
0.59375 	0.0014304118 	0.00045175418 	-7.053887e-08 	0.0014770843 	-8.8625469e-08 	0.00017578855
0.60416667 	0.0014655689 	0.00051083552 	1.1582763e-07 	0.0015181194 	3.0131843e-08 	0.00074159376
0.61458333 	0.0014962588 	0.00056171931 	4.2678045e-07 	0.0015528541 	6.28348e-08 	0.00076468507
0.625 	0.0015230882 	0.00060564159 	-3.4869293e-08 	0.0015824138 	-4.5101265e-08 	0.00044329556
0.63541667 	0.0015457193 	0.00064239383 	-1.6461769e-08 	0.0016080383 	-2.2332882e-08 	0.00060142235
0.64583333 	0.0015646518 	0.00067270502 	2.157592e-07 	0.0016294296 	-1.023356e-07 	0.000802157
0.65625 	0.0015805409 	0.00069754682 	-4.4534532e-08 	0.0016456956 	-6.585586e-08 	0.00019497882
0.66666667 	0.0015930386 	0.00071740752 	5.8760571e-08 	0.001660433 	-1.0827032e-07 	0.00081572713
0.67708333 	0.0016030179 	0.00073300309 	-8.4451999e-09 	0.0016707207 	-1.4331613e-08 	0.00067176346
0.6875 	0.001610225 	0.0007447064 	1.4535384e-11 	0.0016783765 	-2.6741075e-09 	0.00082539823
0.69791667 	0.0016152174 	0.00075325335 	-7.7994988e-09 	0.0016831589 	-3.3788054e-08 	0.00083105155
0.70833333 	0.0016180715 	0.0007591046 	-2.23421e-09 	0.0016852737 	-6.0907383e-09 	0.00074323844
0.71875 	0.0016193393 	0.00076311064 	-8.4626681e-09 	0.0016858987 	-2.4146502e-08 	0.00083286264
0.72916667 	0.0016190597 	0.00076511935 	-1.1464927e-08 	0.0016845254 	-3.2712838e-08 	0.00083286002
0.73958333 	0.0016175823 	0.00076537037 	-3.1638987e-09 	0.0016813975 	-8.8368338e-09 	0.00068293197
0.75 	0.0016152409 	0.00076482415 	-7.198837e-08 	0.001677807 	-1.7341834e-07 	0.00083131709
0.76041667 	0.0016121712 	0.00076308765 	-6.4759518e-09 	0.0016724086 	-1.5342387e-08 	0.00053488701
0.77083333 	0.0016086276 	0.00076125047 	-8.4451638e-08 	0.001667501 	-1.9296745e-07 	0.00082773886
0.78125 	0.0016048595 	0.00075904227 	-4.2007841e-09 	0.0016612438 	-1.0012016e-08 	0.0006106838
0.79166667 	0.0016010711 	0.0007569687 	-1.9571338e-08 	0.0016556277 	-4.4872183e-08 	0.00082354998
0.80208333 	0.001597539 	0.00075487087 	-3.3237027e-08 	0.0016496901 	-7.6619852e-08 	0.00081965353
0.8125 	0.0015945515 	0.00075280843 	-6.4803204e-09 	0.0016433798 	-1.5477718e-08 	0.00042487733
0.82291667 	0.0015922876 	0.0007513757 	-1.7801534e-07 	0.0016391125 	-4.1356375e-07 	0.00081664087
0.83333333 	0.001591081 	0.00075002284 	-6.8487932e-09 	0.0016341435 	-1.6350392e-08 	0.00036226288
0.84375 	0.0015912513 	0.00074961568 	-1.2590284e-09 	0.0016319326 	-3.0058187e-09 	0.00072277137
0.85416667 	0.0015935536 	0.00075003549 	-1.1298115e-07 	0.0016311962 	-2.699234e-07 	0.00081519162
0.86458333 	0.0015983069 	0.00075144395 	-1.9291837e-09 	0.0016323056 	-4.621799e-09 	0.00065212831
0.875 	0.0016071971 	0.00075455679 	-5.9582793e-09 	0.0016366579 	-1.4581842e-08 	0.00011709761
0.88541667 	0.0016217436 	0.00076071512 	-3.0766276e-10 	0.001648524 	-9.1577999e-10 	0.00072070511
0.89583333 	0.0016462223 	0.00077113134 	1.7281963e-08 	0.00166883 	2.4126373e-08 	0.00083522908
0.90625 	0.0016871411 	0.00078890478 	1.1912685e-07 	0.0017044065 	2.2915864e-07 	0.00085469422
0.91666667 	0.0017578499 	0.00082018731 	3.0128627e-07 	0.0017683871 	6.1273038e-07 	0.00088785976
0.92708333 	0.0018864467 	0.00087803181 	4.6990066e-07 	0.0018888248 	9.7991313e-07 	0.00094510701
0.9375 	0.0021274771 	0.00098805894 	2.6235271e-07 	0.0021208715 	5.5378182e-07 	0.0010435651
0.94791667 	0.0025856738 	0.0011996725 	1.5447874e-07 	0.0025689149 	3.286827e-07 	0.00045410952
0.95833333 	0.0033503842 	0.0015568301 	1.764681e-08 	0.003328496 	3.7746897e-08 	0.001678453
0.96875 	0.0042581935 	0.0019791197 	2.7370522e-07 	0.0042309829 	5.958839e-07 	9.2897298e-05
0.97916667 	0.0046957188 	0.0021839579 	-9.4340927e-08 	0.0046793418 	-1.9718896e-07 	0.0023858653
0.98958333 	0.002882164 	0.0013437159 	-1.7171625e-06 	0.0028774088 	-3.6233773e-06 	0.0015172643
