0.4742268 	0.00040926232 	-0.00012479332 	4.7154703e-09 	0.00040858393 	-1.00356e-08 	0.00012307823
0.48453608 	0.0058751148 	-0.002743507 	-1.0884436e-09 	0.0058497306 	3.5156014e-09 	0.0020515519
0.49484536 	0.0049641247 	-0.0023217566 	4.7839975e-06 	0.0049251264 	-1.0403437e-05 	0.0017912728
0.50515464 	0.0027617785 	-0.0013013595 	1.8636289e-07 	0.0027316414 	-3.9479246e-07 	0.001110527
0.51546392 	0.0016004051 	-0.00064275005 	1.2664977e-06 	0.0015852561 	-1.5009667e-06 	0.00051529372
0.5257732 	0.0012585213 	-0.00027305357 	2.8753326e-06 	0.0012569308 	-1.3388552e-06 	0.00044116625
0.53608247 	0.0012417069 	-4.6042265e-05 	9.0543892e-07 	0.0012526439 	7.6106432e-08 	0.0004402695
0.54639175 	0.001294755 	0.00011774358 	1.99543e-07 	0.0013174666 	5.8777754e-08 	0.00045885329
0.55670103 	0.0013519438 	0.00023868598 	1.1637429e-07 	0.0013848533 	4.2653683e-08 	0.00048056186
0.56701031 	0.0014032076 	0.00033507614 	3.3076631e-07 	0.0014447593 	1.2143302e-07 	0.00050170602
0.57731959 	0.0014479461 	0.00041648756 	6.8955885e-07 	0.0014968478 	2.2493639e-07 	0.00052146485
0.58762887 	0.0014869095 	0.00048682706 	8.5381891e-07 	0.0015420933 	2.2111268e-07 	0.0005396389
0.59793814 	0.001520921 	0.00054796201 	1.7825406e-07 	0.0015814916 	2.8591042e-08 	0.00055610071
0.60824742 	0.0015501556 	0.00059987364 	-6.7110615e-08 	0.0016141923 	-7.9181165e-08 	2.1119897e-05
0.6185567 	0.0015744506 	0.00064258886 	2.079841e-07 	0.0016431894 	-8.2133951e-10 	0.00057071697
0.62886598 	0.0015950551 	0.00067778712 	2.7004034e-07 	0.001666755 	-9.4380709e-08 	0.00058312229
0.63917526 	0.0016124459 	0.00070654312 	-3.9216938e-08 	0.0016856435 	-5.1566263e-08 	0.00015118232
0.64948454 	0.0016257655 	0.00072800913 	9.9746925e-08 	0.0017013964 	-1.4448235e-07 	0.00059313943
0.65979381 	0.0016365672 	0.0007447533 	1.793343e-09 	0.0017132747 	-1.0815642e-07 	0.00060047707
0.67010309 	0.0016445034 	0.0007566226 	-1.5986844e-09 	0.0017216455 	-3.0166929e-09 	0.00056778359
0.68041237 	0.0016496197 	0.00076419423 	-9.8039655e-08 	0.0017267599 	-3.730016e-07 	0.00060506423
0.69072165 	0.0016530536 	0.00076927235 	-9.5510222e-09 	0.001729163 	-2.5507452e-08 	0.00028990281
0.70103093 	0.0016541724 	0.00077181686 	-2.1154767e-07 	0.0017300318 	-5.6013868e-07 	0.00060691429
0.71134021 	0.0016540941 	0.00077283156 	-5.1869472e-09 	0.0017281732 	-2.4215312e-08 	0.00026743434
0.72164948 	0.0016523528 	0.00077270502 	-2.3980848e-07 	0.001725668 	-5.8079454e-07 	0.00060623498
0.73195876 	0.0016498378 	0.00077180983 	-6.3712481e-10 	0.0017213097 	-8.6189752e-09 	0.00047018903
0.74226804 	0.0016461462 	0.00077045832 	-1.7285312e-07 	0.0017160537 	-4.2135314e-07 	0.00060349651
0.75257732 	0.0016420032 	0.00076889528 	-2.8002988e-08 	0.0017099944 	-6.8261116e-08 	0.00060348496
0.7628866 	0.001637211 	0.00076729834 	-1.0732639e-07 	0.0017031157 	-2.7382481e-07 	0.00059968665
0.77319588 	0.0016321748 	0.00076582577 	-3.8511653e-08 	0.0016959206 	-9.8255852e-08 	0.00059967294
0.78350515 	0.0016270727 	0.00076465597 	-1.1128086e-07 	0.0016885966 	-3.0192162e-07 	0.00059574059
0.79381443 	0.0016220667 	0.00076382283 	-4.5420264e-11 	0.0016811942 	-2.9550297e-09 	0.00053222349
0.80412371 	0.0016175307 	0.00076330027 	-1.8215056e-07 	0.0016743764 	-4.8495753e-07 	0.00059221795
0.81443299 	0.0016135301 	0.00076199398 	-5.2475217e-09 	0.001666797 	-2.2369774e-08 	7.5472198e-05
0.82474227 	0.0016105107 	0.00076073149 	-1.7642483e-07 	0.0016618346 	-4.2835461e-07 	0.00058943895
0.83505155 	0.0016084798 	0.0007593211 	-2.8920204e-08 	0.0016566667 	-6.8111719e-08 	0.00058767133
0.84536082 	0.0016079662 	0.00075829331 	-2.9189138e-09 	0.0016524339 	-7.2015347e-09 	0.00039461722
0.8556701 	0.001609508 	0.00075833612 	-1.3307755e-07 	0.0016508095 	-3.1837763e-07 	0.00058716443
0.86597938 	0.001613216 	0.00075926304 	-5.0642698e-08 	0.001650866 	-1.2472175e-07 	0.0005882096
0.87628866 	0.0016200682 	0.00076143258 	-4.5640993e-09 	0.0016531774 	-1.1258759e-08 	0.00021136655
0.88659794 	0.0016315897 	0.0007659523 	-1.5954856e-09 	0.0016610046 	-4.0049571e-09 	0.0004206774
0.89690722 	0.001650092 	0.00077360574 	-2.4283314e-09 	0.0016753945 	-1.6101734e-08 	0.00059682299
0.90721649 	0.0016795078 	0.00078611232 	4.7623158e-08 	0.0016998138 	7.9633185e-08 	0.00060618744
0.91752577 	0.001727547 	0.00080704101 	1.5014686e-07 	0.0017419217 	2.9345147e-07 	0.00062141646
0.92783505 	0.0018106609 	0.00084393645 	2.5279388e-07 	0.0018177281 	5.1647137e-07 	0.00064646878
0.93814433 	0.0019637512 	0.00091300554 	1.5677427e-07 	0.0019620157 	3.2744805e-07 	0.00068888262
0.94845361 	0.0022666693 	0.0010515308 	1.1754242e-07 	0.0022540238 	2.492085e-07 	0.00013263096
0.95876289 	0.0028492571 	0.0013230837 	1.2040723e-06 	0.0028288705 	2.5417262e-06 	0.0010648308
0.96907216 	0.0037358416 	0.0017383807 	1.8596094e-07 	0.0037082716 	4.0236336e-07 	0.00050249025
0.97938144 	0.0043663468 	0.002033935 	6.4112264e-08 	0.0043455813 	1.4033038e-07 	0.001580831
0.98969072 	0.0027387022 	0.0012786987 	-1.9914558e-06 	0.0027323702 	-4.141006e-06 	0.0010441945
