0 	0.61684409 	-4.189291e-14 	-1.5226964e-20
0.010869565 	0.61721631 	-0.00049102833 	1.1492331e-07
0.02173913 	0.61875954 	-0.00097752995 	-1.1975885e-09
0.032608696 	0.62162595 	-0.0014684207 	-2.1642143e-10
0.043478261 	0.62581891 	-0.0019593517 	2.1367073e-08
0.054347826 	0.63134584 	-0.0024510147 	7.8099058e-07
0.065217391 	0.63868898 	-0.0029684955 	1.3377555e-06
0.076086957 	0.64622109 	-0.0034038263 	1.3468057e-06
0.086956522 	0.65527636 	-0.0038534194 	6.5867463e-08
0.097826087 	0.66575721 	-0.0043013866 	1.7008624e-07
0.10869565 	0.6778497 	-0.0047409592 	3.2463439e-06
0.11956522 	0.69030028 	-0.0051382937 	9.372952e-07
0.13043478 	0.70426993 	-0.0055288755 	1.2450748e-06
0.14130435 	0.71970631 	-0.0059000263 	4.3015801e-06
0.15217391 	0.73489166 	-0.0062306433 	1.4584897e-07
0.16304348 	0.7525983 	-0.0065491125 	5.7839885e-06
0.17391304 	0.76922969 	-0.0068209985 	7.4053578e-07
0.18478261 	0.78823238 	-0.0070702658 	5.877438e-06
0.19565217 	0.80610582 	-0.00728052 	5.0960163e-07
0.20652174 	0.82649516 	-0.0074561803 	6.2486689e-06
0.2173913 	0.84536458 	-0.0075979972 	1.4748761e-06
0.22826087 	0.86711126 	-0.0076905882 	6.1867564e-06
0.23913043 	0.88715899 	-0.0077552621 	6.2788526e-07
0.25 	0.90951212 	-0.0077612479 	3.3363074e-06
0.26086957 	0.93157468 	-0.0077342765 	2.9410556e-06
0.27173913 	0.95373584 	-0.0076691899 	8.6509664e-07
0.2826087 	0.97815913 	-0.0075294397 	5.7935051e-06
0.29347826 	1.0003766 	-0.0073817794 	2.2885638e-07
0.30434783 	1.0248619 	-0.0071464114 	1.118763e-06
0.31521739 	1.0497602 	-0.006863514 	3.5543372e-06
0.32608696 	1.0734564 	-0.0065621668 	7.9521836e-06
0.33695652 	1.0987368 	-0.0061835246 	1.1568563e-06
0.34782609 	1.1240023 	-0.005765175 	2.4680108e-06
0.35869565 	1.1480814 	-0.0053198994 	1.1849834e-05
0.36956522 	1.1728466 	-0.0047972072 	3.7479525e-07
0.38043478 	1.1975589 	-0.0042100252 	2.051947e-06
0.39130435 	1.2199295 	-0.0036515795 	7.6304806e-06
0.40217391 	1.2406385 	-0.00309892 	6.456596e-06
0.41304348 	1.2596811 	-0.0025574866 	1.7986311e-06
0.42391304 	1.2768267 	-0.002040718 	2.3223076e-07
0.43478261 	1.287545 	-0.0016635662 	1.4457725e-05
0.44565217 	1.2966148 	-0.0013226027 	3.6845405e-07
0.45652174 	1.3000604 	-0.0011028678 	1.6927878e-06
0.4673913 	1.3023828 	-0.00089147195 	2.8571899e-06
0.47826087 	1.3025301 	-0.0007048356 	6.1655085e-06
0.48913043 	1.3018812 	-0.00052911025 	6.1194884e-07
0.5 	1.2991859 	-0.00037579086 	1.1143323e-06
0.51086957 	1.2963809 	-0.00021970541 	3.5190564e-06
0.52173913 	1.293421 	-7.0535312e-05 	4.0830123e-06
0.5326087 	1.2903592 	6.9789506e-05 	6.2424102e-07
0.54347826 	1.2870515 	0.00020720629 	4.9068914e-07
0.55434783 	1.2837034 	0.000348392 	4.432917e-06
0.56521739 	1.2803623 	0.00048668718 	1.8769337e-06
0.57608696 	1.2770415 	0.00061216033 	9.8125853e-07
0.58695652 	1.273605 	0.00075146684 	1.1009632e-06
0.59782609 	1.2701779 	0.00088269458 	3.8455681e-06
0.60869565 	1.2667567 	0.0010090521 	2.5585152e-07
0.61956522 	1.2632676 	0.001131879 	1.1971051e-07
0.63043478 	1.2596856 	0.0012582905 	4.2582889e-06
0.64130435 	1.2561017 	0.0013836533 	7.5487368e-09
0.65217391 	1.2524191 	0.0015011353 	1.7092083e-07
0.66304348 	1.2485375 	0.0016265976 	3.547582e-06
0.67391304 	1.2446345 	0.0017497585 	9.7660812e-09
0.68478261 	1.2405191 	0.0018659578 	4.1764491e-08
0.69565217 	1.2360407 	0.0019890205 	3.0027761e-06
0.70652174 	1.2314772 	0.0021070916 	2.8798294e-08
0.7173913 	1.2263786 	0.0022295342 	8.8812808e-07
0.72826087 	1.2207629 	0.0023545679 	1.4285698e-06
0.73913043 	1.2147143 	0.0024733841 	-9.162315e-08
0.75 	1.2074006 	0.002607913 	2.9437757e-06
0.76086957 	1.1995353 	0.0027381856 	-1.4665437e-07
0.77173913 	1.189818 	0.0028794721 	1.5693218e-06
0.7826087 	1.1788552 	0.0030259866 	2.6951781e-07
0.79347826 	1.1654841 	0.0031769513 	6.9259516e-07
0.80434783 	1.1494467 	0.0033396807 	8.8027346e-07
0.81521739 	1.1304581 	0.0035067775 	4.3609967e-07
0.82608696 	1.1071064 	0.0036871524 	8.328192e-07
0.83695652 	1.0791613 	0.0038728478 	9.5939051e-07
0.84782609 	1.0461612 	0.0040660247 	-3.2829064e-08
0.85869565 	1.0056896 	0.0042582572 	2.1469963e-06
0.86956522 	0.96030941 	0.0044398326 	-9.2371271e-07
0.88043478 	0.90621147 	0.0046057166 	1.2968242e-06
0.89130435 	0.8466329 	0.0047270906 	2.6278575e-08
0.90217391 	0.78110612 	0.0047748929 	-8.3139028e-07
0.91304348 	0.70957219 	0.004720183 	-1.2749019e-06
0.92391304 	0.63677683 	0.0045415859 	-3.9079444e-06
0.93478261 	0.56270102 	0.0042186206 	-2.0466542e-06
0.94565217 	0.48334507 	0.0036860621 	-6.256136e-06
0.95652174 	0.41050979 	0.0030025486 	-8.0815148e-07
0.9673913 	0.34179787 	0.0021604509 	-1.9632286e-06
0.97826087 	0.27527105 	0.0012509392 	-4.1091978e-07
0.98913043 	0.18106222 	0.00040760778 	-1.437822e-07
