8.2204959e-36 	0.56541163 	-3.8399898e-14 	-1.395734e-20
0.010869565 	0.56549255 	-0.00068348919 	1.9093211e-07
0.02173913 	0.56675201 	-0.001358081 	1.6670152e-08
0.032608696 	0.56954195 	-0.0020365294 	6.61182e-09
0.043478261 	0.57386855 	-0.0027150324 	7.638909e-08
0.054347826 	0.5796542 	-0.0033966115 	2.3304479e-06
0.065217391 	0.5874886 	-0.004108631 	3.2584301e-06
0.076086957 	0.59569743 	-0.0047134028 	3.9200135e-06
0.086956522 	0.60562104 	-0.0053278492 	6.8021141e-08
0.097826087 	0.61706847 	-0.0059518385 	1.6491554e-08
0.10869565 	0.63026241 	-0.0065753119 	8.4106729e-06
0.11956522 	0.64411818 	-0.0071258771 	3.1796969e-06
0.13043478 	0.65947697 	-0.0076771324 	2.8939429e-06
0.14130435 	0.67659826 	-0.0082234366 	1.2760859e-05
0.15217391 	0.69352773 	-0.0086797214 	3.9091275e-07
0.16304348 	0.71319386 	-0.0091708293 	1.5689103e-05
0.17391304 	0.73202369 	-0.0095575151 	2.9914438e-06
0.18478261 	0.75323044 	-0.0099590307 	1.5439057e-05
0.19565217 	0.77359485 	-0.010268994 	1.8426692e-06
0.20652174 	0.79645915 	-0.01057824 	1.6563124e-05
0.2173913 	0.81804636 	-0.010792831 	1.7621096e-06
0.22826087 	0.84266539 	-0.011002619 	1.8341344e-05
0.23913043 	0.86542766 	-0.011111463 	2.6839806e-07
0.25 	0.89107271 	-0.01119198 	1.0172267e-05
0.26086957 	0.91615685 	-0.011204061 	7.2298093e-06
0.27173913 	0.94175835 	-0.011157552 	1.3217539e-06
0.2826087 	0.96954214 	-0.011053808 	1.6793319e-05
0.29347826 	0.9952875 	-0.010869527 	3.4052436e-06
0.30434783 	1.0233375 	-0.010623223 	3.533091e-06
0.31521739 	1.0517111 	-0.010312764 	1.0499375e-05
0.32608696 	1.0790484 	-0.0099319372 	1.4765347e-05
0.33695652 	1.1077321 	-0.0094880335 	4.0659027e-06
0.34782609 	1.1361703 	-0.0089794695 	7.9347366e-06
0.35869565 	1.1630994 	-0.0084198795 	2.0171318e-05
0.36956522 	1.1900837 	-0.007828617 	1.2397582e-06
0.38043478 	1.2162124 	-0.0071886635 	8.8192526e-06
0.39130435 	1.2390052 	-0.0065738861 	1.3411099e-05
0.40217391 	1.2592333 	-0.0060312444 	9.2196332e-06
0.41304348 	1.2766989 	-0.0055654686 	9.9370136e-06
0.42391304 	1.2914545 	-0.0051002099 	1.0408084e-06
0.43478261 	1.2998108 	-0.004752583 	1.8585177e-05
0.44565217 	1.307769 	-0.0044134327 	8.4541803e-07
0.45652174 	1.3098862 	-0.0041822552 	6.7100453e-06
0.4673913 	1.31077 	-0.0039211476 	7.4308157e-06
0.47826087 	1.3103257 	-0.0036705187 	1.1698029e-05
0.48913043 	1.3094513 	-0.003427337 	2.0493719e-06
0.5 	1.3066609 	-0.0031918672 	3.8499335e-06
0.51086957 	1.3037505 	-0.0029477544 	9.1300041e-06
0.52173913 	1.3007546 	-0.0027176229 	9.1951388e-06
0.5326087 	1.2976929 	-0.0025038261 	2.6516924e-06
0.54347826 	1.2943749 	-0.0022962932 	1.1672434e-06
0.55434783 	1.2910483 	-0.0020806191 	1.0586089e-05
0.56521739 	1.2877269 	-0.0018679247 	4.769855e-06
0.57608696 	1.2844263 	-0.001683234 	5.6824911e-06
0.58695652 	1.2810299 	-0.0014602125 	3.85084e-06
0.59782609 	1.2776589 	-0.0012535421 	8.7281673e-06
0.60869565 	1.2742917 	-0.0010533028 	1.1842625e-06
0.61956522 	1.2708611 	-0.00085752321 	4.7436639e-07
0.63043478 	1.2673577 	-0.00065518328 	9.9707783e-06
0.64130435 	1.2638543 	-0.00045284334 	7.7633474e-07
0.65217391 	1.2602455 	-0.00026298003 	5.3617324e-07
0.66304348 	1.2564412 	-5.9494723e-05 	8.7597006e-06
0.67391304 	1.2526324 	0.00014238202 	6.0571689e-07
0.68478261 	1.2485973 	0.00033330436 	4.2669618e-07
0.69565217 	1.2442209 	0.0005352035 	7.132274e-06
0.70652174 	1.2398061 	0.00072928356 	1.3616347e-06
0.7173913 	1.2347975 	0.00093120099 	2.8845116e-06
0.72826087 	1.2293865 	0.0011364195 	3.6700796e-06
0.73913043 	1.2236118 	0.0013275312 	1.8484108e-06
0.75 	1.216497 	0.0015479031 	6.9494788e-06
0.76086957 	1.2090534 	0.0017565395 	1.108543e-06
0.77173913 	1.1995644 	0.0019822263 	3.9779927e-06
0.7826087 	1.1890402 	0.0022145227 	1.1465029e-06
0.79347826 	1.1760196 	0.0024489149 	2.1894507e-06
0.80434783 	1.1605017 	0.0027004222 	2.2455069e-06
0.81521739 	1.141901 	0.0029523869 	1.6664982e-06
0.82608696 	1.1190657 	0.0032242628 	2.087267e-06
0.83695652 	1.0914113 	0.0034976815 	2.5153931e-06
0.84782609 	1.058755 	0.0037864352 	4.9366091e-07
0.85869565 	1.018037 	0.0040695347 	4.5649753e-06
0.86956522 	0.97246719 	0.0043419287 	1.1976188e-06
0.88043478 	0.91662534 	0.0046155981 	3.237527e-06
0.89130435 	0.85464678 	0.0048413747 	9.9188514e-07
0.90217391 	0.78548578 	0.0050062573 	3.3882357e-07
0.91304348 	0.70827511 	0.005065371 	-2.7693935e-07
0.92391304 	0.62895903 	0.004986269 	-3.3289485e-06
0.93478261 	0.54675461 	0.0047414511 	-2.6173796e-06
0.94565217 	0.45743191 	0.0042480052 	-6.8476088e-06
0.95652174 	0.37521727 	0.0035485235 	-3.2144778e-07
0.9673913 	0.29917105 	0.0026259909 	-2.998675e-06
0.97826087 	0.22980874 	0.0015673394 	-2.2866069e-07
0.98913043 	0.14233129 	0.00052972748 	-7.9909086e-08
