0.47777778 	0.0026162501 	-0.0012163799 	1.0425363e-07 	0.0026147598 	-2.0090817e-07 	3.6179389e-05
0.48888889 	0.0061836345 	-0.0028770397 	4.4635109e-08 	0.0061859363 	-6.3396359e-08 	0.0028981443
0.5 	0.0061548159 	-0.0028632879 	-3.6440532e-08 	0.0061533117 	1.1332772e-07 	0.0029767511
0.51111111 	0.0051935885 	-0.0024177445 	-1.0406949e-07 	0.0051885392 	2.4901306e-07 	0.0030556421
0.52222222 	0.0038902172 	-0.0018147288 	-2.6605951e-07 	0.0038813324 	6.1690885e-07 	0.001007976
0.53333333 	0.0026837454 	-0.0012590919 	-1.0684563e-08 	0.0026797592 	2.4444421e-08 	0.0022596108
0.54444444 	0.0018191426 	-0.00083372341 	-6.0792006e-08 	0.0018176632 	9.4762883e-08 	0.0014268445
0.55555556 	0.0013014786 	-0.0004484069 	-9.5826264e-08 	0.0013037477 	1.2603029e-07 	0.00076228716
0.56666667 	0.0010692722 	-0.00021940343 	-6.7351871e-08 	0.0010767937 	3.349175e-08 	0.00056605678
0.57777778 	0.0010062023 	-6.4907163e-05 	-3.1944138e-08 	0.0010203756 	-2.0338011e-08 	0.00061989312
0.58888889 	0.0010167085 	6.0758379e-05 	-3.6671899e-09 	0.0010382725 	-1.049666e-08 	0.0008471752
0.6 	0.0010516046 	0.00016322377 	-2.153907e-09 	0.0010793298 	-6.1651647e-09 	0.0009216681
0.61111111 	0.001092142 	0.00024691579 	4.7928648e-09 	0.001123414 	-7.3000761e-08 	0.00051769687
0.62222222 	0.0011328085 	0.00031867371 	4.9996968e-08 	0.0011661654 	-1.5777499e-07 	2.3534295e-05
0.63333333 	0.0011710493 	0.00037908818 	2.7967017e-08 	0.0012086125 	-5.8097998e-08 	0.00071248747
0.64444444 	0.0012076533 	0.0004323456 	1.3211335e-08 	0.0012474131 	-2.7444904e-08 	0.00094957815
0.65555556 	0.0012423474 	0.00047955784 	9.4917991e-08 	0.0012804024 	-1.616691e-07 	0.00011414317
0.66666667 	0.0012735628 	0.00052014897 	3.0112415e-08 	0.001313884 	-4.6791024e-08 	0.00088030643
0.67777778 	0.0013026496 	0.0005559809 	5.0572848e-08 	0.0013421103 	-7.8584045e-08 	0.00070212226
0.68888889 	0.0013292128 	0.00058707138 	7.9314862e-08 	0.0013671825 	-1.1984287e-07 	0.00043562563
0.7 	0.0013530568 	0.00061409542 	1.8441103e-08 	0.0013919141 	-2.7864068e-08 	0.0010756365
0.71111111 	0.0013748086 	0.00063599608 	5.5926639e-08 	0.0014098055 	-1.567652e-07 	0.00020268077
0.72222222 	0.0013938913 	0.00065677117 	3.0919395e-09 	0.0014304164 	-8.666863e-09 	0.0012378613
0.73333333 	0.0014109183 	0.0006643152 	-9.8946143e-09 	0.0014420862 	-1.5966686e-07 	0.00017605337
0.74444444 	0.0014264874 	0.0006721195 	-3.487832e-10 	0.0014583014 	-5.6282254e-09 	0.0012820957
0.75555556 	0.0014396387 	0.00067698602 	-2.6218509e-08 	0.0014658571 	-1.5512859e-07 	0.00016097373
0.76666667 	0.0014520117 	0.00068283009 	-1.0636805e-08 	0.0014788278 	-2.5471634e-08 	0.0013384979
0.77777778 	0.0014626399 	0.00068647443 	-2.3343807e-08 	0.0014837893 	-1.5594943e-07 	6.5791825e-05
0.78888889 	0.0014726069 	0.00069123519 	-2.0371565e-09 	0.0014945388 	-1.6034239e-08 	0.0012036517
0.8 	0.0014824323 	0.00069492123 	-1.1024944e-08 	0.0015006284 	-8.6776142e-08 	0.00056651072
0.81111111 	0.0014933309 	0.00069946176 	-6.8473385e-09 	0.0015094543 	-7.388275e-08 	0.00058710758
0.82222222 	0.0015053499 	0.00070492466 	-8.3741243e-10 	0.0015211912 	-1.816892e-09 	0.001369226
0.83333333 	0.001523767 	0.00071066797 	1.5247795e-08 	0.0015344482 	-7.4404935e-08 	0.00038870339
0.84444444 	0.0015489115 	0.00071871469 	3.6632475e-08 	0.0015569161 	-4.0688121e-08 	0.00051570689
0.85555556 	0.0015843168 	0.00073037576 	4.6372704e-09 	0.0015907963 	-6.4000545e-10 	0.0013308349
0.86666667 	0.0016424404 	0.0007551769 	1.3332312e-08 	0.0016444185 	-1.8400377e-09 	0.0012129826
0.87777778 	0.0017370681 	0.00080445698 	4.9212159e-08 	0.0017331942 	3.670529e-08 	0.00068523183
0.88888889 	0.0018836638 	0.00087413545 	9.1818732e-08 	0.001873895 	1.3733646e-07 	0.00027244092
0.9 	0.0021120526 	0.00097915941 	1.5602078e-07 	0.0020964976 	2.8584856e-07 	1.4069006e-05
0.91111111 	0.002462052 	0.0011409772 	2.1695743e-07 	0.002441208 	4.212786e-07 	1.5811136e-05
0.92222222 	0.0029657115 	0.0013747353 	2.1979853e-07 	0.0029408469 	4.3728412e-07 	0.00049930716
0.93333333 	0.003613384 	0.0016760175 	1.293324e-07 	0.0035870234 	2.5931523e-07 	0.0018082507
0.94444444 	0.0043298095 	0.0020095221 	5.8658086e-07 	0.0043050677 	1.2625969e-06 	0.0037898661
0.95555556 	0.0049676162 	0.002304387 	1.2260471e-07 	0.0049382296 	2.3671812e-07 	0.0011975326
0.96666667 	0.0053779483 	0.0024969871 	1.1694886e-09 	0.0053586319 	2.03813e-09 	0.0046206389
0.97777778 	0.0052090748 	0.0024189542 	1.2802827e-08 	0.0051925682 	1.6344935e-08 	0.0027191036
0.98888889 	0.003188293 	0.0014830921 	-8.0836662e-09 	0.0031821546 	-2.080663e-08 	0.0018988268
