0.47826087 	0.0033233527 	-0.0015457817 	1.1569007e-08 	0.0033173483 	-2.4391255e-08 	0.0016691917
0.48913043 	0.0062328207 	-0.0028985759 	-3.0447781e-08 	0.0062054857 	6.9904196e-08 	0.0024554763
0.5 	0.0048714867 	-0.0022724846 	1.3217926e-08 	0.004838163 	-2.8717194e-08 	0.002831022
0.51086957 	0.0029016803 	-0.0013633747 	1.5485085e-06 	0.0028753178 	-3.3067537e-06 	0.00170879
0.52173913 	0.0016906653 	-0.00071156981 	-2.9018529e-07 	0.0016743656 	4.6442331e-07 	0.00015165982
0.5326087 	0.0012370159 	-0.00030814766 	3.7891027e-07 	0.0012337297 	-2.1995645e-07 	0.00066623083
0.54347826 	0.0011793624 	-8.3129552e-05 	1.5450894e-06 	0.0011866602 	4.976466e-09 	0.00065439964
0.55434783 	0.0012200147 	8.1338977e-05 	8.8999396e-07 	0.001237523 	2.3390668e-07 	0.00067931303
0.56521739 	0.001275257 	0.00020445544 	6.7495041e-07 	0.0013018263 	2.4309642e-07 	0.00071198185
0.57608696 	0.0013277829 	0.00030129165 	7.8497174e-07 	0.0013621263 	2.9832047e-07 	0.00074501327
0.58695652 	0.001374867 	0.0003819467 	4.266528e-07 	0.001415831 	1.4985943e-07 	0.00077642391
0.59782609 	0.0014164892 	0.00045113245 	-1.3474041e-08 	0.0014628655 	-1.7254952e-08 	0.00069638549
0.60869565 	0.0014528507 	0.00051054379 	-8.0857075e-08 	0.0015027518 	-1.0466736e-07 	0.00011058856
0.61956522 	0.0014842139 	0.00056162817 	-1.7970961e-08 	0.0015390471 	-2.3710977e-08 	0.00065784498
0.63043478 	0.0015112331 	0.00060503758 	3.9002596e-07 	0.0015695965 	8.1844194e-09 	0.00085575459
0.64130435 	0.0015344854 	0.00064179029 	-2.9266766e-08 	0.0015947647 	-4.023745e-08 	0.00053916472
0.65217391 	0.0015537216 	0.00067199716 	-2.2778535e-08 	0.0016159686 	-3.3667232e-08 	0.00056614092
0.66304348 	0.0015694939 	0.0006966559 	1.139202e-07 	0.0016337441 	-1.3849767e-07 	0.00089225548
0.67391304 	0.0015821184 	0.00071595748 	-4.3771163e-08 	0.0016457533 	-7.2281111e-08 	0.00013436687
0.68478261 	0.0015917533 	0.00073142766 	1.9325141e-08 	0.0016573236 	-1.5369328e-07 	0.00090434186
0.69565217 	0.0015987977 	0.0007427062 	-1.6473177e-08 	0.0016636449 	-3.1703756e-08 	0.000522204
0.70652174 	0.0016035168 	0.00075129316 	-1.0389684e-08 	0.0016688143 	-6.119345e-08 	0.00091197574
0.7173913 	0.0016060987 	0.00075698834 	-7.4558252e-09 	0.0016702623 	-1.7859028e-08 	0.00065849025
0.72826087 	0.0016070602 	0.00076017586 	-2.1365308e-08 	0.0016707543 	-6.1997836e-08 	0.00091524963
0.73913043 	0.0016064806 	0.00076018936 	-7.025432e-09 	0.0016681981 	-1.8081504e-08 	0.00061143508
0.75 	0.0016049533 	0.00075972096 	-4.361492e-08 	0.001665702 	-1.0187782e-07 	0.00091457603
0.76086957 	0.0016024209 	0.00075814419 	-6.8445106e-09 	0.0016607596 	-1.6063658e-08 	0.00060284905
0.77173913 	0.0015993782 	0.00075653844 	-9.4058331e-09 	0.001656343 	-2.1494747e-08 	0.00091139899
0.7826087 	0.0015959672 	0.00075454395 	-1.4140077e-09 	0.0016506483 	-3.3323212e-09 	0.00083533016
0.79347826 	0.0015925843 	0.00075243665 	-5.7965729e-09 	0.0016444707 	-1.3707572e-08 	0.00057805597
0.80434783 	0.0015894088 	0.00075063406 	-1.1855713e-07 	0.0016394483 	-2.7312987e-07 	0.000903481
0.81521739 	0.0015868935 	0.00074858397 	-1.3210231e-08 	0.0016327171 	-3.1349796e-08 	7.7938687e-05
0.82608696 	0.001585108 	0.00074754232 	-3.7024569e-08 	0.0016296699 	-8.594211e-08 	0.00090052797
0.83695652 	0.0015847185 	0.00074673721 	-3.9925884e-08 	0.0016262786 	-9.3702305e-08 	0.00089908884
0.84782609 	0.0015862398 	0.00074644163 	-9.9116481e-09 	0.0016232013 	-2.3484844e-08 	0.00013344227
0.85869565 	0.0015901532 	0.00074779117 	-2.1522697e-09 	0.0016248813 	-5.128106e-09 	0.00069664067
0.86956522 	0.0015979952 	0.00075075967 	-4.7411565e-08 	0.0016296438 	-1.1916589e-07 	0.00090339244
0.88043478 	0.0016115796 	0.00075623294 	-8.35788e-09 	0.0016394947 	-3.0495121e-08 	0.00091132373
0.89130435 	0.0016344188 	0.00076584039 	-1.1549329e-11 	0.0016579295 	-1.7862321e-10 	0.00086083948
0.90217391 	0.0016741811 	0.00078297299 	3.3917513e-09 	0.0016918767 	6.3879876e-09 	0.0006357827
0.91304348 	0.0017439261 	0.00081377415 	1.0503975e-08 	0.0017547292 	2.1335239e-08 	0.00063302938
0.92391304 	0.0018720564 	0.00087146553 	8.1576052e-09 	0.0018749734 	1.7025031e-08 	0.00092851191
0.93478261 	0.002121078 	0.0009852421 	6.2653201e-07 	0.0021151641 	1.3252696e-06 	0.0011975766
0.94565217 	0.0025901019 	0.0012021504 	7.2639084e-07 	0.0025754334 	1.5410493e-06 	0.00140511
0.95652174 	0.0033757801 	0.0015676329 	3.2437393e-07 	0.0033512612 	6.955208e-07 	5.4486053e-05
0.9673913 	0.0043227644 	0.0020096297 	9.2805315e-08 	0.0043002206 	1.9983185e-07 	0.0023780842
0.97826087 	0.0047968978 	0.0022303 	-2.0324813e-07 	0.004781142 	-4.2884564e-07 	0.0026891361
0.98913043 	0.0030761692 	0.0014344813 	-2.2915589e-06 	0.0030713309 	-4.84945e-06 	0.0016941157
