0.47777778 	0.0026286354 	-0.0012212614 	9.0202323e-09 	0.0026232072 	-1.9212003e-08 	0.00017561539
0.48888889 	0.0062193035 	-0.0028894678 	-8.3403992e-07 	0.0062026096 	1.7906038e-06 	0.0014197275
0.5 	0.0061089554 	-0.0028371604 	1.0777503e-06 	0.0060849208 	-2.3344589e-06 	0.0014216404
0.51111111 	0.005008288 	-0.0023278633 	3.4733377e-06 	0.0049818953 	-7.5100071e-06 	0.0011963822
0.52222222 	0.0036471775 	-0.0017000442 	-3.275e-09 	0.0036229789 	7.1776239e-09 	0.00071962074
0.53333333 	0.0024728853 	-0.0011495145 	5.2291613e-06 	0.0024548233 	-1.0363018e-05 	0.00054091483
0.54444444 	0.0016665875 	-0.00070208345 	4.7215918e-06 	0.0016555922 	-7.5022677e-06 	0.00038271743
0.55555556 	0.001229869 	-0.00037305808 	2.3312578e-06 	0.0012257936 	-2.7529149e-06 	0.00028445046
0.56666667 	0.0010662176 	-0.00016734539 	1.4087334e-06 	0.0010685649 	-9.166218e-07 	0.00024305897
0.57777778 	0.0010399504 	-2.1360032e-05 	1.3991452e-06 	0.0010487415 	-1.4496643e-07 	0.00023593804
0.58888889 	0.0010640417 	9.5007409e-05 	1.700434e-06 	0.0010790746 	3.2736373e-07 	0.00024323074
0.6 	0.0011027345 	0.00018964147 	1.2371927e-06 	0.0011233956 	4.0343754e-07 	0.00025494012
0.61111111 	0.0011443961 	0.00026833039 	3.1243657e-07 	0.001169989 	1.1917808e-07 	0.00026780777
0.62222222 	0.0011851365 	0.00033480371 	-1.5296294e-08 	0.0012145732 	-2.2253751e-08 	9.0420005e-05
0.63333333 	0.0012227018 	0.00039089428 	6.2295163e-07 	0.0012559123 	2.3974048e-07 	0.0002807677
0.64444444 	0.0012577709 	0.00044093461 	6.2046176e-07 	0.0012939015 	2.1570201e-07 	0.00029315546
0.65555556 	0.0012905304 	0.00048593587 	-1.5126188e-08 	0.0013286706 	-2.560232e-08 	5.8056511e-05
0.66666667 	0.0013191994 	0.00052379743 	4.9346108e-07 	0.0013596545 	1.3101241e-07 	0.00030481542
0.67777778 	0.0013458229 	0.00055809632 	2.0027982e-07 	0.0013878182 	2.1356536e-08 	0.00031537519
0.68888889 	0.0013696414 	0.00058791693 	1.0212173e-07 	0.0014127694 	1.0889597e-08 	0.00031542275
0.7 	0.0013903951 	0.00061324378 	2.8463893e-07 	0.0014342416 	-6.3880107e-08 	0.00032471171
0.71111111 	0.0014095451 	0.0006364092 	-2.6437399e-09 	0.0014537501 	-5.3878888e-09 	0.00025575174
0.72222222 	0.0014251327 	0.00065449064 	1.734359e-07 	0.0014694511 	-2.1895832e-07 	0.00033256851
0.73333333 	0.0014396434 	0.00067073377 	-3.394938e-09 	0.0014835371 	-7.4491758e-09 	0.00022285262
0.74444444 	0.0014513857 	0.00068123591 	-4.1070058e-08 	0.0014946774 	-3.3769829e-07 	0.00033859108
0.75555556 	0.001462248 	0.00068943119 	-3.3637482e-09 	0.0015042655 	-7.8066025e-09 	0.00020452217
0.76666667 	0.0014711468 	0.0006933737 	-1.8410861e-07 	0.0015119385 	-4.3192322e-07 	0.00034273209
0.77777778 	0.001479339 	0.00069677412 	-6.6968046e-09 	0.001517982 	-1.5794858e-08 	2.275833e-05
0.78888889 	0.0014864398 	0.00069991865 	-1.562244e-07 	0.0015240842 	-3.6381905e-07 	0.00034562167
0.8 	0.0014933664 	0.00070283159 	-2.8206985e-08 	0.0015293804 	-6.5942108e-08 	0.00034800619
0.81111111 	0.0015007339 	0.00070591406 	-4.3207244e-08 	0.0015350031 	-1.0100961e-07 	0.0003480169
0.82222222 	0.0015101193 	0.00070883815 	-1.5502364e-07 	0.0015423043 	-2.7095305e-07 	0.00035076117
0.83333333 	0.0015218195 	0.00071088967 	-9.6067646e-11 	0.0015514706 	-1.6664951e-10 	0.00034692348
0.84444444 	0.0015404319 	0.00071397277 	-2.4953287e-08 	0.0015666623 	-2.1447999e-08 	0.00035491232
0.85555556 	0.0015700825 	0.0007227645 	3.7546056e-08 	0.0015920273 	1.5632104e-07 	0.0003619705
0.86666667 	0.001615362 	0.00074154618 	2.5002719e-07 	0.0016323459 	4.5392345e-07 	0.00037431031
0.87777778 	0.0016859657 	0.000775713 	1.5245289e-07 	0.0016972829 	2.7027155e-07 	0.0003955837
0.88888889 	0.0018011381 	0.00083453735 	1.0772617e-08 	0.0018057358 	2.0587619e-08 	0.0002160385
0.9 	0.0019888194 	0.00092456685 	3.0297543e-08 	0.0019863521 	6.3667271e-08 	3.6078023e-05
0.91111111 	0.0022883401 	0.0010625785 	4.4969676e-08 	0.0022793384 	9.5292376e-08 	3.9122365e-05
0.92222222 	0.0027451207 	0.001274311 	2.5626519e-08 	0.002730965 	5.4572634e-08 	0.00040551285
0.93333333 	0.0033751257 	0.0015669738 	1.3162742e-06 	0.0033571081 	2.8202468e-06 	0.00081044405
0.94444444 	0.0041076586 	0.0019072731 	4.0972494e-06 	0.004087205 	8.8076261e-06 	0.00094647482
0.95555556 	0.004814007 	0.0022352401 	1.4945218e-07 	0.0047935477 	3.2235549e-07 	0.0010695963
0.96666667 	0.0052743333 	0.0024493257 	7.5600287e-07 	0.0052566984 	1.646452e-06 	0.001214247
0.97777778 	0.0051800233 	0.0024063789 	-7.1439848e-07 	0.0051672346 	-1.5319171e-06 	0.0011808203
0.98888889 	0.0031953812 	0.001486609 	-3.1439239e-06 	0.0031895644 	-6.7214914e-06 	0.00070246471
