/*--------------------------------*- C++ -*----------------------------------*\
  =========                 |
  \\      /  F ield         | OpenFOAM: The Open Source CFD Toolbox
   \\    /   O peration     | Website:  https://openfoam.org
    \\  /    A nd           | Version:  7
     \\/     M anipulation  |
\*---------------------------------------------------------------------------*/
FoamFile
{
    version     2.0;
    format      ascii;
    class       volSymmTensorField;
    location    "2000";
    object      Rall;
}
// * * * * * * * * * * * * * * * * * * * * * * * * * * * * * * * * * * * * * //

dimensions      [0 2 -2 0 0 0 0];

internalField   nonuniform List<symmTensor> 
15296
(
(0.0012064479 1.3189806e-05 5.2361766e-15 0.0010980698 4.5065844e-16 0.0010832116)
(0.0011347144 5.884413e-06 5.3399386e-15 0.0011220441 2.2853276e-18 0.0011204141)
(0.0011258309 5.2403482e-06 -5.4120792e-15 0.0011209991 1.263074e-16 0.001120275)
(0.0011180874 4.9162843e-06 5.4855986e-15 0.0011196931 2.4645723e-16 0.001119699)
(0.0011107154 4.6389998e-06 -5.5634832e-15 0.0011184297 1.2553737e-17 0.0011191043)
(0.0011063927 4.429878e-06 1.1277299e-14 0.0011160698 2.0178869e-16 0.0011169235)
(0.0011039097 4.2857294e-06 5.7182832e-15 0.0011131052 2.0717891e-16 0.0011138537)
(0.0011022052 4.1856946e-06 2.9427472e-18 0.0011099707 -3.4694536e-17 0.0011105049)
(0.0011009965 4.1184454e-06 -2.0537915e-21 0.0011067765 -1.0902819e-16 0.0011070353)
(0.0011000744 4.0767231e-06 5.9581049e-15 0.0011036033 1.7777573e-16 0.0011035607)
(0.0010992335 4.0530134e-06 -7.7670307e-19 0.0011005318 1.7587065e-17 0.0011001937)
(0.0010983625 4.0412927e-06 5.131811e-20 0.0010976039 5.8886669e-17 0.0010969932)
(0.0010974269 4.0377233e-06 -6.2203877e-15 0.0010948294 -2.1768178e-16 0.0010939736)
(0.0010964306 4.0401434e-06 6.3108416e-15 0.0010922027 2.6657841e-16 0.0010911276)
(0.0010954012 4.0478047e-06 5.1754159e-19 0.0010897079 -7.3449229e-18 0.0010884344)
(0.001094386 4.0613986e-06 6.4977611e-15 0.0010873215 2.6040594e-16 0.0010858621)
(0.0010934481 4.0831364e-06 6.5961757e-15 0.0010850119 1.6983105e-16 0.001083369)
(0.0010926694 4.1170053e-06 1.3390765e-14 0.0010827418 4.4302076e-16 0.0010809048)
(0.0010921547 4.1693729e-06 1.8987357e-18 0.0010804629 2.6153516e-16 0.0010784056)
(0.0010920439 4.2500542e-06 2.1619053e-18 0.0010781123 -1.0045104e-16 0.0010757873)
(0.0010925296 4.374027e-06 -2.2713546e-18 0.0010756041 -3.2933783e-16 0.0010729363)
(0.0010938836 4.564076e-06 -3.7370753e-18 0.0010728187 2.4785136e-16 0.0010696941)
(0.0010964971 4.8550052e-06 7.2293228e-15 0.0010695849 5.7902804e-16 0.0010658339)
(0.001100939 5.2999916e-06 -7.3349559e-15 0.0010656555 -2.6904284e-16 0.0010610287)
(0.0011080526 5.9812688e-06 1.1226873e-18 0.0010606664 -1.0883889e-16 0.0010547958)
(0.0011190863 7.0256134e-06 -7.5632247e-15 0.0010540814 -3.4531096e-16 0.0010464238)
(0.0011359514 8.634163e-06 -7.6764024e-15 0.0010450862 -3.3023389e-16 0.0010348276)
(0.0011615135 1.1120398e-05 -9.8429626e-19 0.0010324696 1.1496634e-19 0.0010183884)
(0.001200408 1.5007699e-05 1.6294877e-18 0.0010143048 9.9796994e-18 0.00099449617)
(0.0012595625 2.1116163e-05 -7.9610004e-15 0.00098771726 -2.789713e-16 0.00095923903)
(0.0013513917 3.0961186e-05 -8.0212834e-15 0.00094774047 -2.6910493e-16 0.00090562555)
(0.0014935193 4.6814262e-05 -1.5611803e-19 0.00088758376 6.1420603e-17 0.00082386784)
(0.0017220979 7.3895504e-05 -7.9446761e-15 0.00079425771 -3.2761023e-16 0.00069341359)
(0.0019293984 0.0001007516 -1.3013698e-14 0.00070955375 -1.1451155e-16 0.00058453191)
(0.0019415106 0.00010499692 -1.5421683e-18 0.00069844124 3.118129e-17 0.00060437412)
(0.0019811665 0.00011686744 6.1962458e-19 0.00068371327 -1.6210289e-16 0.0006485666)
(0.0020130677 9.4074437e-05 1.0552207e-15 0.00062325231 7.3778114e-16 0.00072895055)
(0.0023180515 0.0001075941 -5.0232622e-16 0.00053722035 -5.4920923e-16 0.0009878523)
(0.0012035294 2.9387384e-05 2.4828098e-19 0.0010954882 1.2929852e-16 0.0010888325)
(0.0011347749 1.40159e-05 -1.778836e-15 0.0011215002 2.0025989e-17 0.0011210157)
(0.0011259016 1.2200327e-05 1.8060197e-15 0.0011207531 1.4268119e-16 0.0011205768)
(0.0011180439 1.1512647e-05 -2.8212638e-18 0.0011197787 3.4632846e-18 0.001119788)
(0.001110551 1.0985234e-05 -4.010017e-18 0.0011188273 -5.2010304e-18 0.0011190056)
(0.0011061807 1.0572713e-05 -1.4342926e-18 0.0011165607 1.7013431e-16 0.0011167824)
(0.0011036962 1.0263935e-05 1.9173534e-18 0.0011135599 2.5837506e-16 0.0011137531)
(0.0011020086 1.0023039e-05 6.53451e-18 0.0011103385 -2.6669225e-18 0.0011104766)
(0.0011008283 9.8244728e-06 -1.9571902e-15 0.0011070285 -1.4865235e-16 0.0011070966)
(0.0010999407 9.6560045e-06 -3.2808966e-18 0.0011037265 -9.0900507e-18 0.001103718)
(0.001099135 9.5095916e-06 -2.0195771e-15 0.0011005279 -1.5553444e-16 0.0011004445)
(0.0010982968 9.3790094e-06 2.0414834e-15 0.0010974826 1.3459539e-16 0.0010973299)
(0.0010973902 9.2599312e-06 2.0722936e-15 0.0010946028 5.4379046e-17 0.0010943877)
(0.0010964191 9.149441e-06 2.1092928e-15 0.0010918821 1.0638369e-16 0.0010916111)
(0.001095412 9.0454509e-06 -4.2680968e-15 0.0010893026 -2.4181909e-16 0.0010889809)
(0.0010944173 8.9463767e-06 4.3329044e-15 0.0010868369 2.044899e-16 0.0010864677)
(0.0010935 8.8509337e-06 2.2015801e-15 0.0010844488 1.0688971e-16 0.0010840327)
(0.0010927442 8.7579629e-06 -2.8146382e-18 0.0010820949 3.0611746e-16 0.0010816293)
(0.0010922579 8.66627e-06 1.0638088e-18 0.0010797196 6.3152992e-17 0.0010791979)
(0.0010921851 8.5744913e-06 4.6999896e-19 0.0010772498 1.0859978e-16 0.0010766604)
(0.0010927242 8.4809488e-06 -5.3163417e-18 0.0010745865 -6.2658342e-17 0.0010739107)
(0.0010941549 8.3834433e-06 -2.3073678e-18 0.0010715913 3.7940849e-17 0.0010708007)
(0.0010968802 8.2789706e-06 4.0107743e-18 0.0010680665 1.3145419e-16 0.0010671189)
(0.001101486 8.1632433e-06 4.567451e-18 0.0010637263 -6.8099285e-17 0.0010625596)
(0.0011088405 8.0300929e-06 -2.4801902e-15 0.0010581499 -2.1134872e-16 0.0010566719)
(0.0011202293 7.8702149e-06 -4.3193676e-18 0.0010507171 -1.7086402e-16 0.0010487911)
(0.0011376199 7.6700968e-06 5.1046633e-15 0.001040485 1.4130062e-16 0.0010379044)
(0.0011639615 7.4081875e-06 2.591e-15 0.0010260501 1.2025675e-16 0.001022501)
(0.001204023 7.0547742e-06 2.8169172e-18 0.0010051694 -7.2129812e-18 0.0010001534)
(0.0012649262 6.5575171e-06 2.6485033e-15 0.00097449723 -8.9899273e-17 0.00096722435)
(0.0013594216 5.8644932e-06 2.6620892e-15 0.000928182 3.9907112e-17 0.0009172665)
(0.0015055718 4.7953932e-06 5.3234239e-15 0.00085818718 1.8483556e-16 0.00084128618)
(0.0017402388 3.9322343e-06 4.4517076e-18 0.0007486568 -7.1886032e-17 0.00072086553)
(0.0019383142 2.2302098e-06 -2.101037e-15 0.00065998758 -2.6213123e-16 0.00062507891)
(0.0019506681 -1.9850955e-06 -3.3780465e-18 0.00065901082 -1.0360129e-16 0.0006342193)
(0.0019921582 5.3629315e-06 6.5297451e-16 0.0006641645 2.3742279e-16 0.00065654048)
(0.0020189669 -5.823929e-05 -3.2130491e-16 0.00064896917 -1.6357617e-16 0.00069363145)
(0.0021863458 -0.00019556252 -1.8901031e-16 0.00016247725 -6.499746e-16 0.0014602402)
(0.001196962 4.5519014e-05 2.5037315e-18 0.0010988544 3.4345636e-17 0.0010922881)
(0.0011342851 2.3287599e-05 2.1393272e-15 0.0011218557 9.5561556e-17 0.001121407)
(0.0011258682 1.9902714e-05 -2.16374e-15 0.0011208481 -2.441034e-17 0.0011207843)
(0.0011181179 1.8746264e-05 -1.1042463e-15 0.0011198541 -1.5804551e-16 0.0011199139)
(0.001110706 1.7883627e-05 1.1095082e-15 0.001118897 8.372832e-17 0.0011190613)
(0.0011063632 1.7211023e-05 -1.1269408e-15 0.0011166253 2.3307558e-17 0.0011168199)
(0.0011038764 1.6708322e-05 1.287112e-18 0.0011136193 1.4134889e-16 0.0011138017)
(0.0011021751 1.6316343e-05 -1.1554185e-15 0.0011103928 -3.8496483e-17 0.0011105471)
(0.0011009739 1.5993854e-05 -1.1725837e-15 0.0011070782 -2.2215385e-16 0.0011071952)
(0.001100062 1.572108e-05 -1.1981087e-15 0.0011037719 -1.2888555e-16 0.0011038472)
(0.0010992323 1.5484812e-05 -4.3806643e-18 0.0011005693 -4.1795342e-17 0.0011006034)
(0.0010983719 1.5274812e-05 -3.681419e-15 0.0010975201 -4.2141263e-18 0.001097516)
(0.0010974455 1.5083955e-05 -1.248104e-15 0.0010946366 -3.2612305e-18 0.0010945982)
(0.0010964567 1.4907398e-05 -1.259586e-15 0.0010919124 2.1416118e-17 0.0010918432)
(0.0010954335 1.4741663e-05 1.2860485e-15 0.0010893295 -1.0891844e-16 0.0010892326)
(0.0010944233 1.4584159e-05 3.9315086e-18 0.0010868609 1.7113922e-16 0.0010867378)
(0.0010934899 1.4432901e-05 -2.6351757e-15 0.0010844701 -1.1765126e-16 0.0010843211)
(0.0010927157 1.4286263e-05 -4.7547239e-18 0.0010821142 8.5814675e-17 0.0010819374)
(0.0010922066 1.4142752e-05 -1.3603568e-15 0.0010797378 -4.0634228e-18 0.0010795289)
(0.0010921038 1.4000841e-05 -2.761898e-15 0.0010772684 -7.4572618e-17 0.0010770197)
(0.0010926017 1.3858822e-05 -1.4128165e-15 0.0010746079 -8.7637221e-17 0.001074307)
(0.0010939742 1.3714616e-05 1.4211316e-15 0.0010716189 8.2237088e-17 0.0010712472)
(0.0010966158 1.3565552e-05 1.4520669e-15 0.0010681059 1.7964347e-16 0.0010676354)
(0.0011011002 1.3407963e-05 -1.4642281e-15 0.0010637858 -1.4646493e-16 0.0010631751)
(0.0011082772 1.3236745e-05 1.4941801e-15 0.0010582422 -1.0883729e-16 0.0010574296)
(0.0011194044 1.3044116e-05 -1.4546949e-18 0.0010508618 -1.2066271e-16 0.0010497551)
(0.0011364064 1.2818824e-05 -9.384275e-18 0.0010407123 1.4033777e-17 0.0010391708)
(0.001162166 1.254129e-05 1.5525073e-15 0.0010264071 1.8211451e-16 0.001024215)
(0.0012013461 1.2183459e-05 -1.571819e-15 0.0010057286 -2.3469859e-17 0.0010025399)
(0.0012608989 1.1684429e-05 2.4615261e-18 0.00097537531 -1.1611099e-16 0.00097063163)
(0.0013532922 1.0968075e-05 -1.5987894e-15 0.00092955191 -6.8475503e-17 0.00092226315)
(0.0014961501 9.6928375e-06 1.5984445e-15 0.00086032587 1.657529e-16 0.0008487609)
(0.0017256326 8.2431115e-06 -1.5746278e-15 0.00075187975 -2.2430995e-16 0.00073234263)
(0.0019384561 4.6317229e-06 9.9994663e-19 0.00065680939 -1.767801e-16 0.00062810595)
(0.0019505721 -2.5970638e-06 4.1337635e-19 0.00065939121 -6.7901901e-17 0.00063355967)
(0.0019918761 9.2301866e-06 8.0561395e-16 0.00067248227 1.8738159e-16 0.00064790184)
(0.0020138744 -8.2122447e-05 2.048421e-16 0.0006729867 6.4033126e-18 0.00066961045)
(0.0021513505 -0.00015090843 -2.0871339e-17 0.00012638443 -4.2081725e-16 0.0014933364)
(0.0011926083 6.0111496e-05 5.6778595e-18 0.0011008982 1.6581591e-17 0.0010949728)
(0.0011338346 3.2922508e-05 -1.5248693e-15 0.0011222836 3.5006857e-17 0.0011218201)
(0.0011259041 2.7739395e-05 -1.9463898e-19 0.0011209821 -1.4678523e-16 0.0011210184)
(0.0011181929 2.6072227e-05 7.7883742e-16 0.0011200039 -1.0589359e-16 0.0011201008)
(0.0011107753 2.4873034e-05 -3.7131696e-18 0.0011190929 7.7588162e-17 0.0011192141)
(0.0011064346 2.3939546e-05 1.7337767e-18 0.0011168343 3.3525747e-17 0.0011169627)
(0.0011039563 2.3241516e-05 2.0695137e-18 0.0011138213 9.5993245e-17 0.0011139473)
(0.0011022649 2.2696711e-05 3.1387412e-18 0.0011105807 9.0666586e-18 0.0011107005)
(0.0011010741 2.2247865e-05 8.4433002e-16 0.0011072478 -1.1693135e-16 0.0011073592)
(0.001100173 2.186766e-05 -4.0965724e-18 0.0011039212 -1.3570099e-16 0.001104023)
(0.0010993537 2.1537883e-05 1.7230669e-15 0.0011006983 7.1292171e-17 0.0011007906)
(0.0010985027 2.1244388e-05 -1.2401355e-18 0.0010976303 -7.4389853e-17 0.0010977136)
(0.0010975847 2.0977322e-05 -8.9279481e-16 0.0010947297 -1.0310976e-16 0.0010948049)
(0.0010966033 2.0729983e-05 5.6754573e-18 0.0010919903 3.572614e-17 0.001092058)
(0.0010955864 2.0497533e-05 -9.0827989e-16 0.0010893936 -1.8530537e-18 0.0010894546)
(0.0010945817 2.0276325e-05 -9.2599827e-16 0.0010869121 2.9609558e-17 0.0010869666)
(0.0010936529 2.0063498e-05 5.5493662e-18 0.0010845087 -1.4302869e-16 0.0010845567)
(0.0010928829 1.9856612e-05 -4.2666542e-18 0.0010821395 5.7877837e-17 0.0010821807)
(0.0010923777 1.965331e-05 9.7043345e-16 0.0010797481 3.7438322e-17 0.0010797814)
(0.0010922786 1.9451035e-05 -1.9736198e-15 0.0010772607 -2.0700582e-16 0.0010772844)
(0.0010927802 1.9246761e-05 -1.0130318e-15 0.0010745772 -1.6504905e-16 0.0010745886)
(0.0010941565 1.9036618e-05 -5.2160275e-19 0.0010715578 6.0737457e-17 0.0010715527)
(0.0010968022 1.8815407e-05 5.240098e-18 0.0010680031 1.0721035e-16 0.0010679754)
(0.0011012907 1.8575785e-05 2.1013108e-15 0.0010636252 -5.1608363e-17 0.0010635656)
(0.0011084714 1.8307202e-05 -2.1243277e-15 0.0010579998 -1.095229e-16 0.0010578944)
(0.0011196008 1.7993594e-05 -2.7321744e-18 0.0010505023 -1.7693787e-16 0.0010503304)
(0.0011366014 1.761103e-05 -1.0359519e-17 0.0010401828 -3.0004044e-18 0.0010399125)
(0.0011623506 1.7119769e-05 1.1080516e-15 0.001025628 1.8354969e-16 0.0010252104)
(0.0012015033 1.6459966e-05 1.5251232e-19 0.0010045738 -3.0327737e-17 0.0010039299)
(0.0012609868 1.5516724e-05 2.2801089e-18 0.00097364871 -1.2046757e-16 0.00097265011)
(0.0013532386 1.4128407e-05 3.5043488e-18 0.00092690514 -1.3211122e-16 0.00092532025)
(0.0014957757 1.1760899e-05 1.1401531e-15 0.00085616934 1.0156614e-16 0.00085360063)
(0.0017246209 8.6838425e-06 1.1275722e-15 0.00074494287 -1.274747e-16 0.00074049694)
(0.0019385996 2.6598669e-06 -9.2372069e-16 0.00064582844 -1.0057484e-16 0.00063904527)
(0.0019504333 -7.6603002e-06 -5.3756405e-16 0.00064943898 -4.0922682e-17 0.00064339356)
(0.0019916883 7.8655791e-06 2.8751734e-16 0.00066588425 1.7326692e-16 0.00065426161)
(0.0020066721 -0.00010117833 1.5122402e-16 0.00067260798 3.0919141e-16 0.00066929616)
(0.0021591795 -0.00018971149 -8.9067032e-18 0.0001592922 -1.6611291e-16 0.0014725771)
(0.0011882481 7.3322138e-05 6.927027e-18 0.0011037076 1.6074488e-17 0.0010970148)
(0.0011332655 4.2682772e-05 1.883463e-18 0.0011228709 -8.7307531e-17 0.0011223257)
(0.0011259086 3.5635113e-05 -6.2063805e-20 0.0011212344 -1.406682e-16 0.0011212996)
(0.001118293 3.342091e-05 6.0438972e-16 0.0011201966 3.3148935e-17 0.0011203551)
(0.0011109004 3.18824e-05 6.1562507e-16 0.0011192771 9.9518244e-17 0.0011194593)
(0.0011065721 3.0688583e-05 -6.2476544e-16 0.0011170164 5.2837621e-17 0.0011172035)
(0.0011041018 2.979586e-05 -6.3396512e-16 0.0011140017 6.7999196e-17 0.0011141866)
(0.0011024159 2.9098988e-05 6.4708019e-16 0.0011107595 8.6881385e-17 0.0011109399)
(0.0011012287 2.8524716e-05 2.2864293e-18 0.0011074252 -4.1085944e-18 0.0011075994)
(0.0011003302 2.8038084e-05 6.5901456e-16 0.0011040972 -5.0339494e-17 0.0011042643)
(0.001099513 2.761574e-05 6.6556459e-16 0.0011008728 1.1104124e-16 0.0011010328)
(0.0010986639 2.7239552e-05 -4.1792393e-18 0.0010978032 -4.1341264e-17 0.0010979565)
(0.0010977473 2.6896939e-05 -6.952021e-16 0.0010949011 -8.6783773e-17 0.0010950482)
(0.001096767 2.6579405e-05 7.1044454e-16 0.0010921601 8.8489889e-17 0.0010923015)
(0.0010957506 2.6280851e-05 -7.0390901e-16 0.0010895621 -5.2809387e-17 0.001089698)
(0.0010947459 2.5996676e-05 -7.1892934e-16 0.0010870794 -8.0095075e-17 0.00108721)
(0.0010938163 2.5723234e-05 -2.1933366e-15 0.0010846751 -1.9906629e-16 0.0010848002)
(0.0010930445 2.5457356e-05 -1.4938898e-15 0.0010823052 1.118706e-17 0.0010824245)
(0.0010925361 2.5195922e-05 -7.6189439e-16 0.0010799136 -1.5930887e-17 0.0010800261)
(0.0010924318 2.4935515e-05 -7.7016917e-16 0.0010774265 -2.0058588e-16 0.001077531)
(0.0010929254 2.4672062e-05 7.6811073e-16 0.0010747442 -7.1765346e-17 0.0010748385)
(0.0010942897 2.4400349e-05 7.9351984e-16 0.0010717276 3.2166064e-17 0.0010718082)
(0.0010969172 2.4113353e-05 -7.9641312e-16 0.001068178 -4.0478736e-17 0.0010682398)
(0.0011013783 2.3801122e-05 8.1770348e-16 0.0010638088 3.8812964e-17 0.0010638441)
(0.0011085177 2.3449294e-05 1.6625595e-15 0.0010581977 -2.9951585e-17 0.001058195)
(0.001119584 2.3035987e-05 -1.4704882e-18 0.0010507234 -9.7716978e-17 0.0010506653)
(0.0011364881 2.2528406e-05 8.4328963e-16 0.0010404409 1.2527336e-16 0.0010403005)
(0.0011620871 2.1872398e-05 8.5981982e-16 0.0010259453 1.7714315e-16 0.0010256813)
(0.0012010048 2.0985452e-05 -2.3928555e-18 0.0010049857 -3.871558e-17 0.001004531)
(0.0012601099 1.9711839e-05 1.7693739e-15 0.00097421476 1.6191443e-17 0.00097346099)
(0.0013517497 1.782608e-05 5.7272417e-18 0.0009277204 -2.3194933e-17 0.00092646851)
(0.0014932663 1.4630691e-05 -8.8911499e-16 0.0008573892 1.200649e-17 0.00085531427)
(0.0017204266 1.0309435e-05 -1.7525168e-15 0.00074680237 -1.0231488e-16 0.00074314791)
(0.0019387362 2.2273276e-06 3.2467997e-18 0.00064536277 -1.0487562e-16 0.00063958735)
(0.0019502975 -1.1188407e-05 6.3052635e-18 0.00064925607 -4.291828e-17 0.00064357239)
(0.0019915475 7.4311622e-06 -2.3370182e-16 0.000667924 2.8130637e-17 0.00065211768)
(0.0019986624 -0.00011168778 -1.0472545e-16 0.00067557186 1.7722535e-16 0.00066373191)
(0.0021882057 -0.00022086549 -2.5690429e-18 0.00018973836 -3.5230339e-17 0.0014608495)
(0.0011832463 8.8239523e-05 7.6045489e-18 0.0011071614 1.639729e-17 0.0010993459)
(0.0011325004 5.526943e-05 -6.0224867e-16 0.0011237128 -7.1123512e-17 0.0011230955)
(0.0011258965 4.5872328e-05 2.2492343e-18 0.0011216663 -9.6540132e-17 0.0011217454)
(0.0011184442 4.2902119e-05 -6.220991e-16 0.0011205145 -9.491554e-17 0.0011207653)
(0.0011110935 4.0924088e-05 -4.6640256e-18 0.0011195684 -5.9899977e-19 0.0011198652)
(0.0011067846 3.9398195e-05 2.6611532e-18 0.0011173015 -2.1460424e-17 0.001117605)
(0.0011043276 3.8256681e-05 4.6661326e-18 0.0011142852 3.464871e-17 0.0011145834)
(0.0011026515 3.7364963e-05 -6.5117058e-16 0.0011110422 1.1727144e-17 0.0011113332)
(0.0011014711 3.6629689e-05 1.6618747e-18 0.0011077084 -4.3829335e-17 0.0011079897)
(0.001100578 3.6006335e-05 -4.0950067e-18 0.0011043812 -4.8785638e-17 0.0011046513)
(0.0010997652 3.5465155e-05 -9.7415686e-18 0.0011011577 1.2596001e-16 0.0011014166)
(0.0010989198 3.4983014e-05 -8.0395936e-18 0.0010980886 -2.7994504e-17 0.001098337)
(0.0010980062 3.4543852e-05 6.9938071e-16 0.0010951868 -3.8234999e-17 0.0010954254)
(0.0010970281 3.4136818e-05 7.2187841e-16 0.001092446 1.5581925e-16 0.0010926755)
(0.0010960132 3.3754108e-05 8.3829964e-18 0.001089848 -4.4990928e-17 0.001090069)
(0.001095009 3.3389824e-05 2.8077234e-18 0.0010873653 -8.0045597e-17 0.0010875779)
(0.0010940789 3.3039284e-05 7.5589497e-16 0.0010849612 -1.2860406e-16 0.0010851654)
(0.0010933054 3.2698433e-05 -7.5586741e-16 0.001082592 -2.1434415e-16 0.0010827871)
(0.0010927935 3.2363294e-05 7.5847292e-16 0.0010802017 1.346093e-17 0.0010803865)
(0.0010926835 3.202953e-05 -7.8063221e-16 0.0010777172 -1.0518738e-16 0.0010778897)
(0.0010931683 3.1692e-05 -8.0331328e-16 0.0010750391 -3.5053975e-17 0.0010751962)
(0.0010945191 3.1344129e-05 8.0291514e-16 0.0010720295 1.3009187e-16 0.0010721663)
(0.0010971262 3.0977074e-05 9.7993286e-18 0.0010684911 -3.9309231e-17 0.0010686005)
(0.0011015567 3.057832e-05 3.8702259e-18 0.0010641394 1.8818976e-17 0.0010642106)
(0.0011086496 3.012982e-05 4.6017026e-18 0.0010585558 1.4703476e-16 0.0010585723)
(0.0011196452 2.9604111e-05 -9.8112361e-19 0.0010511242 -7.8009949e-17 0.0010510618)
(0.0011364405 2.8960054e-05 8.5445114e-16 0.001040908 1.4431192e-16 0.0010407291)
(0.0011618698 2.8129797e-05 -8.4801915e-18 0.0010265164 8.3567675e-17 0.0010261635)
(0.0012005205 2.7009922e-05 8.8306005e-16 0.0010057211 5.8826885e-17 0.0010051002)
(0.0012591934 2.5405503e-05 8.9861536e-16 0.00097521434 1.6928224e-16 0.00097417716)
(0.0013501279 2.3034438e-05 9.0727611e-16 0.00092915332 2.446026e-17 0.00092742121)
(0.0014904635 1.9038606e-05 8.9874165e-16 0.00085952927 -1.489592e-17 0.00085667271)
(0.0017156418 1.3547534e-05 2.3371972e-19 0.00075016553 -1.6003064e-16 0.00074512046)
(0.0019389928 3.3277122e-06 7.5032071e-16 0.00064680669 2.1842306e-18 0.00063830362)
(0.0019502268 -1.3931819e-05 7.2456429e-18 0.0006505518 -3.0574773e-17 0.00064231997)
(0.0019914893 7.4175818e-06 -2.4176707e-16 0.00067154373 -1.6083716e-16 0.00064845927)
(0.0019888238 -0.00011444859 2.5334621e-18 0.00067750145 -1.9051979e-17 0.00065617385)
(0.0022188815 -0.00025999596 -3.7154504e-17 0.00021909533 -1.3289845e-16 0.0014649311)
(0.0011779068 0.00010495419 8.815025e-18 0.0011107644 3.0393374e-17 0.0011023827)
(0.0011314272 7.099777e-05 -4.1724603e-16 0.0011250122 -5.9707676e-17 0.0011242794)
(0.0011258621 5.892652e-05 8.4123128e-16 0.0011223728 1.3298172e-18 0.0011225108)
(0.0011186875 5.4964161e-05 -4.447895e-18 0.0011210471 -7.9745278e-17 0.0011214488)
(0.0011114107 5.2427629e-05 4.3011829e-16 0.0011200656 7.7579494e-19 0.0011205269)
(0.0011071361 5.0486899e-05 -4.3253471e-16 0.0011177886 -8.6279409e-17 0.0011182557)
(0.001104702 4.9033886e-05 5.7862375e-18 0.0011147669 2.8509507e-17 0.0011152271)
(0.0011030419 4.7897081e-05 1.9947445e-18 0.0011115203 -3.2318469e-17 0.0011119725)
(0.0011018727 4.6958408e-05 2.3584537e-18 0.0011081844 -9.8995796e-17 0.001108626)
(0.0011009878 4.6161675e-05 -1.5176637e-18 0.0011048557 -5.8532046e-17 0.0011052851)
(0.0011001816 4.5469406e-05 -1.1155517e-17 0.0011016306 9.3068507e-17 0.0011020477)
(0.0010993413 4.4852374e-05 9.4117635e-16 0.0010985599 2.2986168e-17 0.0010989653)
(0.0010984317 4.4290216e-05 -1.5303129e-19 0.0010956565 3.9647796e-17 0.0010960507)
(0.0010974564 4.3769106e-05 -4.7815318e-16 0.0010929139 9.6971744e-17 0.0010932976)
(0.0010964432 4.3279037e-05 6.210374e-18 0.0010903142 -1.5410874e-17 0.0010906878)
(0.0010954395 4.2812398e-05 3.4038045e-18 0.0010878298 -4.2912556e-17 0.0010881935)
(0.0010945085 4.2363131e-05 -5.0316646e-16 0.0010854243 -7.0634208e-17 0.001085778)
(0.0010937323 4.1926001e-05 -5.1970471e-16 0.0010830539 -2.4324455e-16 0.0010833971)
(0.0010932155 4.149588e-05 -6.9818147e-18 0.0010806629 4.4474707e-17 0.0010809947)
(0.0010930976 4.1067177e-05 -5.4226447e-16 0.0010781784 -1.1684278e-16 0.0010784972)
(0.0010935703 4.0633226e-05 5.3319858e-16 0.0010755018 -9.2188408e-18 0.001075805)
(0.0010949032 4.0185451e-05 1.0763943e-18 0.0010724956 1.204163e-16 0.0010727793)
(0.0010974836 3.9712256e-05 9.2320917e-18 0.0010689639 7.5797319e-18 0.0010692223)
(0.0011018741 3.9197184e-05 7.882709e-18 0.0010646241 3.0690236e-17 0.0010648483)
(0.0011089071 3.861645e-05 -1.1543951e-15 0.0010590602 -9.4731967e-18 0.0010592369)
(0.0011198118 3.793388e-05 -1.9754467e-18 0.0010516608 -7.9460043e-17 0.0010517703)
(0.0011364681 3.7095205e-05 -6.0707263e-16 0.0010414968 -4.0198745e-17 0.001041508)
(0.0011616809 3.6011243e-05 5.936877e-16 0.0010271892 1.2310964e-16 0.0010270552)
(0.0011999916 3.4545632e-05 -3.644137e-18 0.0010065294 1.3402366e-16 0.0010061717)
(0.0012581147 3.2443682e-05 1.2611221e-18 0.00097624659 1.7484734e-16 0.00097554323)
(0.0013481511 2.9333382e-05 4.2959482e-18 0.00093055641 2.7600937e-17 0.0009292642)
(0.0014869842 2.4137432e-05 -5.675428e-18 0.00086153955 3.4787212e-17 0.00085931847)
(0.0017096543 1.6811531e-05 1.228981e-15 0.00075317081 5.247008e-17 0.00074908557)
(0.0019394967 3.5215915e-06 7.2683642e-18 0.00064643012 5.863542e-17 0.00063898367)
(0.0019502788 -1.8501142e-05 5.2158095e-18 0.00064949775 -1.7415016e-17 0.00064359094)
(0.0019916451 3.8803772e-06 -2.9719851e-18 0.0006722175 -1.7607104e-16 0.00064780557)
(0.0019772494 -0.00011310393 -7.668468e-17 0.0006762557 1.9343053e-17 0.00064955371)
(0.0022413074 -0.00030952871 -1.0030778e-17 0.00025984807 -1.7603798e-16 0.0014548313)
(0.0011729512 0.0001211432 -5.6756207e-16 0.0011143397 -3.8440567e-17 0.0011056634)
(0.0011301869 8.8086773e-05 2.9292558e-16 0.0011266781 -4.6709966e-17 0.0011258564)
(0.001125813 7.3601582e-05 2.9812562e-16 0.0011233727 5.3372906e-17 0.0011236095)
(0.0011190271 6.8537949e-05 -6.5483396e-18 0.0011218088 -6.3005828e-18 0.0011224281)
(0.0011118601 6.5378154e-05 6.063891e-16 0.0011207736 8.2811278e-17 0.0011214731)
(0.0011076365 6.298221e-05 3.174326e-16 0.00111848 -3.6258569e-17 0.001119185)
(0.001105236 6.1187344e-05 -3.0596801e-16 0.0011154495 3.4281632e-17 0.0011161454)
(0.0011035991 5.9780505e-05 -3.0795596e-19 0.0011121978 -1.3024356e-17 0.0011128832)
(0.0011024459 5.8616907e-05 2.3876087e-18 0.001108859 -1.0812158e-16 0.0011095311)
(0.0011015727 5.7627853e-05 -3.2700036e-16 0.0011055282 -6.808331e-17 0.0011061853)
(0.0011007756 5.6767527e-05 -6.7675853e-16 0.0011023012 -7.1269037e-17 0.0011029432)
(0.0010999424 5.6000081e-05 3.2070285e-16 0.0010992286 1.1158615e-16 0.001099856)
(0.0010990381 5.530047e-05 1.0265069e-15 0.0010963231 1.8906119e-16 0.0010969364)
(0.0010980665 5.4651653e-05 1.5184797e-17 0.0010935784 4.6877218e-17 0.0010941782)
(0.0010970554 5.4041258e-05 6.606789e-18 0.0010909765 3.8260767e-18 0.0010915632)
(0.0010960523 5.3459838e-05 1.9867767e-18 0.0010884899 -1.7184117e-17 0.0010890638)
(0.0010951203 5.2899856e-05 -3.5293748e-16 0.0010860823 -1.9488592e-16 0.0010866434)
(0.0010943408 5.2354789e-05 4.2829712e-18 0.0010837099 -2.3882086e-16 0.001084258)
(0.0010938182 5.181826e-05 -7.2785975e-18 0.0010813175 -1.2437892e-17 0.0010818517)
(0.0010936912 5.1283313e-05 -5.5500338e-18 0.0010788325 -1.3393441e-16 0.0010793515)
(0.00109415 5.0741649e-05 3.7454954e-16 0.0010761569 7.9217498e-17 0.0010766587)
(0.0010954621 5.0182573e-05 3.930435e-16 0.0010731542 1.4581485e-16 0.0010736355)
(0.001098012 4.9591595e-05 -3.8755821e-16 0.0010696298 -5.5062713e-18 0.0010700856)
(0.0011023571 4.894813e-05 -3.9734088e-16 0.0010653035 -2.8414238e-17 0.0010657261)
(0.0011093221 4.8222402e-05 5.544036e-18 0.0010597627 -7.6665798e-17 0.0010601406)
(0.001120124 4.7369145e-05 -2.5259753e-18 0.001052402 -6.8512906e-17 0.0010527175)
(0.0011366232 4.632044e-05 -7.8724383e-18 0.0010423007 -1.117014e-16 0.0010425261)
(0.0011615916 4.4964819e-05 -8.8388738e-18 0.0010280953 8.6816861e-17 0.0010281882)
(0.0011995189 4.3131834e-05 -4.3899389e-16 0.0010076008 4.9369152e-17 0.0010074888)
(0.0012570231 4.050411e-05 2.5863257e-19 0.00097759248 1.2085122e-16 0.00097716406)
(0.0013460483 3.6616723e-05 3.9185674e-18 0.00093235755 2.1066639e-17 0.00093137734)
(0.001483192 3.0173802e-05 -4.458501e-16 0.00086409222 -1.2142966e-17 0.00086225792)
(0.0017030708 2.0896263e-05 -4.3581399e-16 0.00075693643 1.1649526e-16 0.00075337428)
(0.001940278 4.2914063e-06 6.685823e-18 0.00064662059 3.4367159e-17 0.00063927405)
(0.0019505698 -2.2747569e-05 3.0808936e-18 0.00064897983 -3.4261134e-18 0.00064451849)
(0.0019918494 -2.2794304e-06 -1.757719e-18 0.00067342194 -6.8383446e-17 0.00064669812)
(0.0019679508 -0.00010562137 -1.7410961e-18 0.00067776691 1.522478e-18 0.00064016916)
(0.0022472593 -0.0003552023 -3.3982196e-18 0.00030201131 -5.7448892e-17 0.001431137)
(0.0011682935 0.00013647184 -4.0588808e-16 0.0011180283 -1.0212293e-16 0.0011093543)
(0.001128906 0.00010643718 -4.245955e-16 0.0011286644 -2.5192096e-17 0.0011279276)
(0.001125775 8.9972979e-05 -4.3140105e-16 0.001124739 2.268739e-17 0.0011251374)
(0.0011194968 8.3768471e-05 -6.2619797e-18 0.0011228709 -4.026635e-17 0.0011237971)
(0.0011124893 7.9932369e-05 -7.5367967e-18 0.0011217519 6.4545343e-17 0.001122797)
(0.0011083394 7.7044212e-05 5.0598659e-18 0.0011194308 3.8037835e-17 0.0011204862)
(0.0011059868 7.4878988e-05 -4.4420015e-16 0.0011163854 -4.0766507e-17 0.0011174314)
(0.0011043829 7.3177711e-05 -3.7651546e-18 0.0011131247 3.9398773e-18 0.0011141588)
(0.0011032524 7.1767184e-05 4.6868908e-16 0.0011097806 -2.5424014e-17 0.0011107987)
(0.001102396 7.0565727e-05 5.9831427e-19 0.0011064461 -7.0296809e-17 0.0011074458)
(0.0011016117 6.9518883e-05 -6.5461656e-18 0.0011032157 -9.6977479e-17 0.0011041967)
(0.0011007882 6.8583823e-05 -1.1387632e-17 0.00110014 1.2178589e-16 0.0011011025)
(0.001099891 6.7730527e-05 -5.9586849e-18 0.0010972315 2.3340075e-16 0.0010981757)
(0.0010989244 6.6938536e-05 1.2549821e-17 0.0010944837 5.6334577e-17 0.0010954101)
(0.0010979162 6.619295e-05 -2.4826712e-16 0.0010918786 -2.5310224e-17 0.0010927874)
(0.0010969137 6.5482352e-05 -3.3732527e-18 0.0010893888 -3.6503401e-18 0.0010902803)
(0.0010959804 6.4797586e-05 2.7009918e-16 0.0010869785 -1.1769019e-16 0.0010878524)
(0.0010951969 6.4130703e-05 8.7549821e-18 0.0010846036 -1.385698e-16 0.0010854596)
(0.0010946671 6.3473906e-05 -2.7595031e-16 0.0010822095 -7.7393938e-17 0.0010830464)
(0.0010945288 6.2818669e-05 -4.8186098e-18 0.001079724 -6.712173e-17 0.0010805406)
(0.0010949709 6.2154796e-05 -8.5784838e-18 0.00107705 8.9953909e-17 0.0010778437)
(0.0010962586 6.1469124e-05 2.8057246e-16 0.001074052 2.1407099e-16 0.0010748194)
(0.0010987727 6.0743798e-05 -2.7999746e-16 0.0010705375 -4.0960603e-17 0.0010712729)
(0.0011030652 5.9953456e-05 9.6191784e-18 0.0010662287 -4.9809463e-17 0.0010669242)
(0.0011099524 5.9061434e-05 -5.872902e-16 0.0010607175 -5.5300836e-17 0.0010613606)
(0.0011206373 5.801208e-05 -3.0507798e-16 0.0010534049 -1.029846e-16 0.0010539774)
(0.0011369592 5.6722026e-05 -8.4296364e-18 0.0010433808 -6.7730216e-17 0.0010438541)
(0.0011616536 5.5054796e-05 -3.1793697e-16 0.0010292987 -8.4250377e-17 0.0010296298)
(0.0011991526 5.2802182e-05 -3.9039323e-18 0.0010090009 -6.5068141e-18 0.0010091163)
(0.0012559691 4.957789e-05 1.1786497e-18 0.00097931422 8.0278003e-17 0.00097910409)
(0.001343874 4.4815297e-05 3.2120708e-16 0.00093460698 6.9831313e-18 0.00093382988)
(0.0014791528 3.6999013e-05 -4.6050561e-18 0.00086720125 -7.7758562e-17 0.00086558109)
(0.0016959824 2.553037e-05 3.1711712e-16 0.00076140783 4.1946811e-17 0.00075811526)
(0.0019414318 5.2546807e-06 7.6255535e-18 0.00064713999 3.3767929e-17 0.00063946932)
(0.0019512108 -2.6824124e-05 -1.5803594e-16 0.00064872007 -8.4974925e-17 0.00064545029)
(0.001991848 -1.1879561e-05 -3.7290976e-18 0.00067409936 -2.7457722e-17 0.00064616193)
(0.0019638337 -9.4095581e-05 3.9620067e-17 0.00068139827 4.3558962e-17 0.00063129908)
(0.0022286862 -0.00039260189 -3.8656916e-19 0.00033751762 -1.1473181e-17 0.0013993346)
(0.0011647662 0.00015098537 1.035709e-17 0.0011213517 -5.8956689e-17 0.0011132427)
(0.001127769 0.00012586478 4.5632712e-18 0.0011309743 -4.1342644e-17 0.0011305806)
(0.0011257939 0.00010806736 3.415705e-19 0.001126569 2.7276448e-18 0.0011272096)
(0.0011201376 0.00010080094 -7.2182484e-18 0.0011243427 6.9051544e-19 0.0011256651)
(0.0011133494 9.6266483e-05 -3.302622e-16 0.0011231092 1.2925629e-17 0.0011246028)
(0.0011093025 9.285951e-05 -3.2534555e-16 0.0011207493 -2.5326069e-17 0.0011222599)
(0.0011070161 9.0302548e-05 -6.526755e-16 0.0011176838 -6.9614557e-17 0.0011191838)