14.3959 	0.433894 	-4.9636131e-19 	2.3331808 	-0.0092651085 	7.8429585e-09
14.398 	0.474532 	-6.1386172e-17 	2.3497709 	-0.0079485824 	2.5307655e-08
14.3997 	0.516552 	-7.0169903e-17 	2.358597 	-0.0066161129 	1.6482244e-08
14.404 	0.994023 	1.8561732e-16 	1.4780665 	0.00047505385 	-1.0356489e-09
14.404 	0.996033 	-4.0598543e-16 	1.2380676 	-0.000973972 	2.2753025e-10
14.404 	0.998043 	4.503149e-16 	0.5440795 	-0.0015598727 	1.0367788e-09
