5.49099 	0.471483 	-5.6920614e-19 	0.00069044087 	-7.6231638e-05 	3.2497428e-10 	0.0006869158 	-7.8169574e-10 	0.00067848025
5.49099 	0.472536 	1.084758e-18 	0.046398798 	-0.017337864 	1.2228236e-10 	0.043932372 	-2.9413897e-10 	0.046365838
5.49099 	0.473589 	3.9741727e-19 	0.084273656 	-0.034002553 	1.1115718e-09 	0.079133124 	-2.6789224e-09 	0.084141388
5.49099 	0.575867 	-1.154132e-17 	0.049342419 	-0.014977899 	-1.0107837e-11 	0.047301654 	-1.447941e-11 	0.049068464
5.49099 	0.588181 	3.4029019e-18 	0.047347223 	-0.012751827 	-8.3788579e-12 	0.045826279 	-1.5518821e-11 	0.047106937
5.49099 	0.996415 	4.1435073e-16 	0.07619158 	0.030861409 	-3.9117415e-11 	0.071514577 	-9.4292009e-11 	0.076114196
5.49099 	0.997468 	-3.4317074e-16 	0.037670229 	0.01388886 	-8.2045091e-11 	0.03571301 	-1.9776867e-10 	0.037622357
5.49099 	0.998522 	4.8921235e-17 	0.00053037465 	5.2324239e-05 	-3.6622932e-13 	0.00052843472 	-2.8385864e-12 	0.0005301586
