9.95045 	0.471483 	3.1775594e-17 	0.00063916396 	-6.9294502e-05 	-5.6814305e-10 	0.0006360097 	1.3089407e-09 	0.00062794073
9.95045 	0.472536 	3.261454e-17 	0.043438444 	-0.016168412 	-2.2151905e-10 	0.041145398 	5.1035617e-10 	0.043408855
9.95045 	0.473589 	-4.0931279e-18 	0.08155926 	-0.03295843 	-1.6147376e-09 	0.076576497 	3.6284828e-09 	0.081434798
9.95045 	0.630628 	1.9638485e-17 	0.036318224 	-0.0086006986 	5.8089428e-12 	0.035751355 	-5.0641209e-12 	0.03642023
9.95045 	0.996415 	-3.4905635e-16 	0.075258337 	0.030496516 	-7.2414609e-11 	0.070633652 	-1.6486956e-10 	0.075181487
9.95045 	0.997468 	4.2792581e-17 	0.036761852 	0.013532156 	-1.4808465e-10 	0.034856961 	-3.3715094e-10 	0.036715007
9.95045 	0.998522 	4.1047217e-17 	0.00051566884 	5.0447393e-05 	-3.4704087e-12 	0.00051381525 	-3.393896e-11 	0.00051545948
