8.66216 	0.471483 	2.9186214e-17 	0.00064528323 	-7.006719e-05 	7.6098385e-11 	0.00064208792 	-1.8327268e-10 	0.00063399584
8.66216 	0.472536 	-6.0692981e-17 	0.043800361 	-0.016309992 	2.6222641e-11 	0.041486136 	-6.3153685e-11 	0.043770214
8.66216 	0.473589 	-6.0504887e-17 	0.081901197 	-0.033088628 	2.6977671e-10 	0.076898528 	-6.4921595e-10 	0.081775714
8.66216 	0.615497 	-6.6926191e-17 	0.039398394 	-0.010596047 	2.0218202e-09 	0.038380988 	-2.1197152e-09 	0.039379194
8.66216 	0.630628 	-9.0563704e-18 	0.037484585 	-0.008326776 	1.5767565e-09 	0.036896805 	-1.357881e-09 	0.037493718
8.66216 	0.996415 	-3.0585513e-17 	0.075461333 	0.030576304 	-3.0273233e-11 	0.070826014 	-7.2740024e-11 	0.075384763
8.66216 	0.997468 	-2.6359559e-17 	0.036952771 	0.013607125 	-6.7549187e-11 	0.035037023 	-1.6230607e-10 	0.036905769
8.66216 	0.998522 	3.7388034e-17 	0.00051875592 	5.0859953e-05 	-3.0644636e-13 	0.00051688316 	-2.4345989e-12 	0.00051854464
