4.2027 	0.471483 	-1.6163083e-17 	0.63352884 	0.0012355406 	-9.4743656e-11
4.2027 	0.472536 	-1.8091141e-17 	1.5331884 	0.0015688195 	-3.1156362e-11
4.2027 	0.473589 	1.5285768e-18 	1.8958596 	-0.00029046804 	4.5213745e-12
4.2027 	0.553636 	-4.1678044e-17 	2.9247942 	0.0022458283 	-2.1105128e-11
4.2027 	0.56437 	1.0619676e-18 	2.9397617 	0.0023891611 	6.6667012e-11
4.2027 	0.996415 	-1.2517453e-17 	1.7750128 	0.00018395508 	-1.7912399e-12
4.2027 	0.997468 	-9.2853869e-18 	1.4164669 	-0.0015318 	-4.1283741e-12
4.2027 	0.998522 	3.8275555e-16 	0.56274175 	-0.00053293429 	-9.4013492e-13
