9.65315 	0.471483 	1.1991784e-16 	0.6009847 	0.00087868446 	-1.0863174e-11
9.65315 	0.472536 	-1.7667805e-16 	1.4806859 	0.0015438824 	-3.4234268e-12
9.65315 	0.473589 	1.2986931e-16 	1.8420495 	-0.00026366673 	-1.4316152e-11
9.65315 	0.630628 	1.0279634e-16 	2.9791431 	0.00013336105 	-3.1969031e-11
9.65315 	0.996415 	-2.8591258e-16 	1.7623336 	0.00016315142 	-2.051389e-12
9.65315 	0.997468 	1.9906545e-17 	1.4044497 	-0.0015304723 	-4.8681652e-12
9.65315 	0.998522 	1.8170551e-17 	0.55604485 	-0.00047347493 	6.1738847e-12
