4.8964 	0.471483 	-1.6448956e-17 	0.62388133 	0.0011279151 	-6.5002946e-11
4.8964 	0.472536 	7.6052547e-17 	1.51785 	0.0015622865 	-1.9557042e-11
4.8964 	0.473589 	-8.4396669e-17 	1.8801853 	-0.00028253152 	1.1214317e-12
4.8964 	0.56437 	1.712518e-17 	2.9300241 	0.0017892918 	8.2412624e-11
4.8964 	0.575867 	-2.7783316e-17 	2.9440888 	0.0018806241 	4.0473212e-11
4.8964 	0.996415 	-4.2624392e-17 	1.7743229 	0.0001795961 	-1.3247228e-12
4.8964 	0.997468 	3.3898428e-16 	1.4158475 	-0.0015332953 	-3.2439941e-12
4.8964 	0.998522 	-3.9887946e-16 	0.56244211 	-0.00053174736 	4.9953954e-12
