4.5 	0.471483 	-9.2005566e-17 	0.00072507116 	-8.1021749e-05 	5.5140083e-10 	0.00072128664 	-1.3246075e-09 	0.00071260261
4.5 	0.472536 	7.2829876e-17 	0.048361891 	-0.01811551 	2.2100228e-10 	0.045780332 	-5.3090469e-10 	0.04832674
4.5 	0.473589 	7.0023797e-17 	0.086032267 	-0.034677622 	1.836078e-09 	0.080789719 	-4.427338e-09 	0.085894791
4.5 	0.553636 	1.5130101e-17 	0.055153214 	-0.018112325 	-2.091087e-10 	0.05221718 	-4.960748e-11 	0.054685326
4.5 	0.56437 	1.5896011e-17 	0.05281531 	-0.015819785 	-6.3796301e-11 	0.050425489 	-4.4259314e-11 	0.05236477
4.5 	0.996415 	-1.1122551e-15 	0.076343402 	0.030920838 	-8.4709679e-12 	0.071658695 	-2.1146876e-11 	0.076266316
4.5 	0.997468 	2.6472059e-17 	0.037803449 	0.01394076 	-1.6983663e-11 	0.035838819 	-4.2398009e-11 	0.037755499
4.5 	0.998522 	3.5934526e-17 	0.00053254486 	5.2608821e-05 	-7.1618105e-14 	0.00053059184 	-4.5874632e-13 	0.00053232804
