4.7973 	0.471483 	-1.0258628e-18 	0.00071278705 	-7.9315694e-05 	4.2285169e-10 	0.0007090954 	-1.0159524e-09 	0.00070050118
4.7973 	0.472536 	-1.0714967e-18 	0.047668434 	-0.017840678 	1.3905389e-10 	0.045127571 	-3.3409381e-10 	0.047634069
4.7973 	0.473589 	-1.7330294e-18 	0.08541379 	-0.034440433 	1.4876472e-09 	0.080207116 	-3.5851269e-09 	0.085278175
4.7973 	0.56437 	8.8509384e-18 	0.052444262 	-0.016299337 	2.0967743e-09 	0.049991323 	-2.2617593e-09 	0.052042633
4.7973 	0.575867 	1.0222311e-17 	0.050418509 	-0.014029401 	1.6906458e-09 	0.048505445 	-1.4991956e-09 	0.0500427
4.7973 	0.996415 	-1.7064538e-17 	0.076316339 	0.030910219 	-1.7595043e-11 	0.071632774 	-4.2813615e-11 	0.07623909
4.7973 	0.997468 	3.5854227e-16 	0.037783056 	0.013932931 	-4.0553103e-11 	0.035819483 	-9.8676925e-11 	0.037735097
4.7973 	0.998522 	-4.031286e-16 	0.00053220966 	5.2562312e-05 	-1.8287428e-13 	0.00053025877 	-1.3583477e-12 	0.00053199292
