14.8947 	0.474911 	-3.6610458e-17 	0.040548882 	-0.0048279739 	7.0811042e-08 	0.038841673 	-1.2048758e-07 	0.040559158
14.8962 	0.516903 	-3.3334055e-18 	0.038420674 	-0.0016725699 	1.709098e-08 	0.036721643 	-2.444823e-08 	0.038210863
14.9002 	0.994027 	-2.5430301e-16 	0.042393605 	0.016898351 	-2.4937497e-08 	0.039872133 	-6.0613573e-08 	0.042339372
14.9002 	0.996036 	-1.787968e-16 	0.027375592 	0.010343392 	-8.5869557e-09 	0.025908276 	-2.0195336e-08 	0.027351811
14.9002 	0.998044 	3.1291938e-17 	0.00023689934 	2.2584631e-05 	-3.5313919e-08 	0.00023591192 	-8.852273e-08 	0.00023174471
