0.17894737 	0.0002889309 	-6.2770959e-05 	1.0611301e-07 	0.00013849913 	-2.992805e-07 	0.00014583862
0.18947368 	2.6096748e-06 	-3.1765551e-07 	3.5979318e-09 	2.4569003e-06 	-2.0870363e-08 	2.1027488e-07
0.2 	3.2836549e-09 	5.0370649e-12 	-7.1516753e-14 	3.4741236e-09 	-2.6771519e-11 	4.816218e-10
0.21052632 	2.4553269e-12 	-1.4557725e-14 	1.2912496e-16 	2.7197158e-12 	-4.0663965e-14 	5.6211102e-13
0.22105263 	1.9092305e-13 	-1.0707316e-16 	7.5244146e-19 	1.9104251e-13 	-1.3415108e-15 	3.878538e-16
0.23157895 	1.4802952e-16 	-2.3898992e-22 	7.1713726e-24 	1.4775503e-16 	-6.2055149e-20 	3.5060018e-18
0.24210526 	1.4802972e-16 	-2.154787e-23 	8.646037e-25 	1.477795e-16 	-6.7789901e-20 	1.6726577e-17
0.25263158 	1.4802971e-16 	-4.3315112e-23 	-1.372405e-24 	1.4781593e-16 	-8.2950725e-20 	3.5813593e-17
0.26315789 	1.4802957e-16 	-3.1119408e-22 	-1.0718398e-23 	1.4785184e-16 	-5.441123e-20 	5.4344228e-17
0.27368421 	1.4802927e-16 	-7.8575162e-22 	3.9061163e-24 	1.4785018e-16 	-5.2817658e-20 	5.2861713e-17
0.28421053 	1.7053901e-16 	-2.2787835e-21 	1.3574395e-23 	1.7026623e-16 	-1.9902691e-19 	2.1228886e-17
0.29473684 	2.0884926e-16 	-5.970289e-21 	-6.6388658e-24 	2.0874028e-16 	1.9832487e-20 	1.4335986e-16
0.30526316 	2.2609e-16 	-5.8513194e-21 	9.4716103e-23 	2.2594297e-16 	-1.826684e-19 	1.4008893e-16
0.31578947 	2.8246437e-16 	-1.008804e-20 	4.2764651e-22 	2.8198042e-16 	-4.9403886e-19 	1.539404e-17
0.32631579 	2.8366801e-16 	-1.496838e-24 	3.9081658e-26 	2.8359593e-16 	-1.8493774e-20 	2.4584907e-16
0.33684211 	2.4099636e-16 	-4.3234657e-24 	1.8321078e-25 	2.4067456e-16 	-8.6696905e-20 	7.2176631e-17
0.34736842 	2.6300298e-16 	-3.815985e-22 	1.6658615e-23 	2.6271227e-16 	3.391052e-19 	1.1001491e-16
0.35789474 	4.0309571e-16 	-1.7804569e-22 	7.7647751e-24 	4.028207e-16 	1.580609e-19 	2.5860878e-16
0.36842105 	1.306995e-15 	-8.0169638e-22 	2.1788438e-23 	1.3048362e-15 	3.1170875e-18 	1.7071625e-16
0.37894737 	4.6786429e-15 	-4.7609206e-22 	-8.1064378e-25 	4.6729027e-15 	9.0087816e-17 	1.6635542e-15
0.38947368 	2.3620948e-14 	-1.3823233e-20 	5.7428527e-22 	2.3578341e-14 	9.144144e-18 	1.2437312e-15
0.4 	5.5756307e-14 	-7.2572496e-22 	1.9423289e-24 	5.5690743e-14 	4.8649154e-16 	2.1355056e-14
0.41052632 	1.092456e-13 	-5.4044987e-22 	1.9567913e-24 	1.0907038e-13 	4.901139e-16 	1.7322227e-14
0.42105263 	1.7346245e-13 	-3.6280321e-22 	1.256101e-24 	1.7322271e-13 	5.0068744e-16 	4.7695072e-14
0.43157895 	2.4072269e-13 	-2.133657e-22 	4.5097753e-24 	2.403301e-13 	1.7976164e-15 	3.4774193e-14
0.44210526 	3.0723009e-13 	-3.5265951e-22 	1.1993219e-23 	3.0671307e-13 	1.1885346e-18 	3.600749e-14
0.45263158 	3.5931077e-13 	1.0520193e-22 	8.1453931e-24 	3.5866107e-13 	2.1000163e-15 	1.8480529e-14
0.46315789 	4.1144951e-13 	2.8823463e-22 	2.6483628e-24 	4.1066988e-13 	6.8279148e-16 	2.4597796e-15
0.47368421 	4.502761e-13 	6.0470895e-21 	2.4298898e-22 	4.4946722e-13 	4.9395897e-16 	2.5884642e-14
0.48421053 	4.804359e-13 	1.5399539e-20 	3.6000394e-22 	4.7961046e-13 	7.3183228e-16 	4.7261124e-14
0.49473684 	5.0851847e-13 	3.2617291e-20 	2.7766636e-22 	5.0755821e-13 	-3.8489813e-17 	4.4938141e-15
0.50526316 	5.15587e-13 	3.0122892e-19 	1.1372675e-20 	5.1478535e-13 	-2.2845686e-16 	9.3620173e-14
0.51578947 	5.1984647e-13 	6.3620163e-19 	7.9994935e-21 	5.1907489e-13 	-1.6069563e-16 	1.1223977e-13
0.52631579 	5.1272827e-13 	1.482879e-18 	7.221796e-21 	5.118555e-13 	-1.4287014e-17 	4.8866646e-14
0.53684211 	2.2015456e-12 	1.1106396e-16 	4.7710995e-18 	2.1982294e-12 	7.3752036e-14 	1.2649605e-13
0.54736842 	4.3638336e-12 	2.5029174e-16 	2.6302785e-18 	4.3572229e-12 	4.0659055e-14 	1.425809e-13
0.55789474 	8.8041427e-12 	5.4977363e-16 	1.2131368e-19 	8.7943724e-12 	-2.8441519e-15 	2.0362897e-12
0.56842105 	1.7417453e-11 	1.1568454e-15 	1.164985e-17 	1.7407185e-11 	1.6031438e-13 	8.769831e-12
0.57894737 	2.4023932e-11 	1.633802e-15 	1.0519018e-17 	2.4004088e-11 	1.4475293e-13 	9.2474706e-12
0.58947368 	2.8265835e-11 	1.9629139e-15 	6.6627036e-20 	2.8225015e-11 	-7.4036554e-15 	1.9880007e-12
0.6 	6.2094051e-11 	3.9166024e-15 	1.4425987e-17 	6.2054485e-11 	5.238997e-13 	3.2415839e-11
0.61052632 	1.0807994e-10 	5.2290025e-15 	3.7992195e-17 	1.0795875e-10 	1.3797392e-12 	3.3382572e-11
0.62105263 	1.5777609e-10 	6.3713884e-15 	7.8617657e-18 	1.5753609e-10 	-2.3732786e-14 	1.9263325e-11
0.63157895 	5.2432219e-10 	2.7129088e-14 	6.9343223e-16 	5.2386666e-10 	7.6730085e-12 	2.430109e-10
0.64210526 	7.147015e-09 	6.2437132e-13 	1.9034678e-14 	7.1355295e-09 	2.1062367e-10 	2.5811364e-10
0.65263158 	3.2946978e-08 	3.4883005e-11 	1.4628766e-12 	3.2965562e-08 	7.6567446e-10 	2.1267577e-10
0.66315789 	3.0198044e-08 	1.6160601e-11 	5.6805196e-13 	3.0191012e-08 	3.4162222e-10 	1.0527591e-08
0.67368421 	2.4767682e-07 	3.7761362e-10 	9.2444018e-12 	2.4787602e-07 	5.5595144e-09 	1.0925974e-08
0.68421053 	7.7004133e-07 	2.1805849e-09 	5.6441215e-11 	7.7212875e-07 	9.5030315e-09 	4.9384851e-09
0.69473684 	8.0309918e-06 	1.0631066e-07 	4.5462134e-09 	8.1436917e-06 	3.0564314e-07 	7.7887746e-07
0.70526316 	3.4019882e-05 	4.9896537e-07 	4.7675693e-09 	3.454618e-05 	3.2052496e-07 	8.2089693e-07
0.71578947 	8.8768505e-05 	1.3987296e-06 	5.3467398e-09 	9.0278634e-05 	2.0271961e-07 	2.5464214e-05
0.72631579 	0.00019933442 	5.9653053e-06 	1.8678215e-07 	0.00020542618 	4.0794591e-06 	6.8262963e-05
0.73684211 	0.00035127929 	1.5269833e-05 	9.0657435e-08 	0.00036681211 	6.2127574e-07 	3.9422203e-05
0.74736842 	0.00059481499 	6.2048159e-05 	1.5655871e-06 	0.0006636134 	4.558569e-06 	0.00029445591
0.75789474 	0.00081106221 	0.0001848613 	7.5456116e-07 	0.0010231698 	2.1970793e-06 	0.00028755763
0.76842105 	0.0010198353 	0.00041498802 	3.4861395e-07 	0.0015296291 	8.9285028e-07 	0.00051984335
0.77894737 	0.0012004072 	0.00056200704 	2.0691701e-06 	0.0019130245 	5.2994412e-06 	0.00050388161
0.78947368 	0.0013407059 	0.00063014205 	-2.428629e-08 	0.0021798413 	1.3410686e-07 	0.00053105599
0.8 	0.0014816606 	0.00065317986 	2.2555046e-07 	0.0023544301 	2.3885682e-06 	0.00057159342
0.81052632 	0.0016191346 	0.00066598512 	5.2549168e-09 	0.002461645 	2.0643319e-08 	0.00061708132
0.82105263 	0.0017471526 	0.00068472364 	1.2719968e-07 	0.0025315855 	4.996889e-07 	0.00058949605
0.83157895 	0.0018594652 	0.00072585984 	3.2712003e-07 	0.002592397 	2.1399932e-07 	0.0006130797
0.84210526 	0.0019607398 	0.00077424835 	1.4830374e-07 	0.002650317 	9.7019131e-08 	0.00058121109
0.85263158 	0.0020534652 	0.00082224643 	8.1851588e-07 	0.0027104451 	6.0523641e-07 	0.00058630262
0.86315789 	0.0021444145 	0.00086910806 	1.0800087e-07 	0.0027706763 	2.6301597e-07 	0.00018173411
0.87368421 	0.0022361889 	0.00091452663 	4.5361454e-07 	0.0028356864 	3.9941949e-07 	0.0005441141
0.88421053 	0.002330797 	0.00095678957 	5.0717061e-07 	0.0028979104 	4.8017775e-07 	0.00053165412
0.89473684 	0.0024267455 	0.00099664947 	9.6146773e-09 	0.002958925 	3.5298709e-08 	0.00044328547
0.90526316 	0.0025218517 	0.0010324848 	1.1769695e-07 	0.0030167747 	1.142902e-07 	0.00046866343
0.91578947 	0.002612732 	0.001063423 	2.9012398e-07 	0.0030656951 	1.9927632e-07 	0.00044030809
0.92631579 	0.0026950968 	0.0010899027 	2.3025939e-07 	0.0031025667 	-1.0940784e-07 	0.00040513727
0.93684211 	0.0027628139 	0.0011101373 	1.6758888e-08 	0.0031223319 	-3.908296e-07 	0.00036365888
0.94736842 	0.0028096812 	0.0011222745 	-2.0627374e-08 	0.0031173706 	-6.8097212e-07 	0.00031660983
0.95789474 	0.0028192087 	0.0011325493 	-4.6447965e-09 	0.0030659357 	-1.8859589e-07 	0.00026632099
0.96842105 	0.0027578137 	0.0011351688 	-6.8098481e-08 	0.0029374062 	-9.6716644e-07 	0.00021055733
0.97894737 	0.0025930123 	0.0011163425 	-8.7151022e-08 	0.0026958718 	-4.5768962e-07 	0.00014785656
0.98947368 	0.0019140884 	0.000878029 	-3.642608e-06 	0.0019346132 	-8.4921168e-06 	7.8136337e-05
