0.47916667 	2.510671e-10 	-2.7606903e-17 	3.2519785e-21 	2.5083718e-10 	1.8392775e-14 	1.3045357e-10
0.48958333 	2.3560214e-10 	-5.648441e-16 	-1.7991222e-17 	2.35196e-10 	4.813054e-13 	2.2548929e-11
0.5 	1.2246923e-10 	-1.3827281e-15 	-3.6181957e-19 	1.2239163e-10 	-5.0402294e-14 	8.1770583e-11
0.51041667 	1.3111717e-11 	-3.7192346e-15 	-2.7920382e-17 	1.310081e-11 	-1.5103123e-13 	7.3957933e-12
0.52083333 	3.0331335e-12 	-8.1720855e-15 	1.0503874e-17 	3.028413e-12 	-5.1001653e-15 	4.3996098e-13
0.53125 	1.4778132e-11 	4.2549723e-14 	-2.3651013e-17 	1.4777773e-11 	-6.2078535e-15 	8.6064307e-12
0.54166667 	1.5431e-11 	4.85773e-13 	1.2817655e-14 	1.5492001e-11 	1.3621548e-13 	5.6544987e-12
0.55208333 	3.5782305e-10 	2.3667479e-11 	2.0344403e-13 	3.6099562e-10 	8.5351825e-12 	1.1864128e-10
0.5625 	7.6245418e-09 	1.8169428e-10 	2.9543676e-12 	7.6403851e-09 	1.7109595e-10 	2.6349426e-09
0.57291667 	8.8010687e-08 	1.6134443e-09 	8.6865849e-13 	8.8169525e-08 	6.9298874e-12 	5.9686647e-08
0.58333333 	1.4938494e-06 	3.6284443e-08 	2.7675697e-10 	1.4965197e-06 	1.1969356e-09 	5.7700631e-07
0.59375 	1.4631323e-05 	4.166997e-07 	9.5201023e-10 	1.4648115e-05 	1.3130385e-08 	3.184469e-07
0.60416667 	6.4998663e-05 	2.3901237e-06 	5.3845962e-09 	6.5102715e-05 	1.2985333e-07 	1.6506063e-05
0.61458333 	0.00019855133 	9.3908852e-06 	1.3498683e-07 	0.00019896054 	2.0643426e-06 	9.952487e-05
0.625 	0.0004308226 	2.6213949e-05 	8.0790876e-09 	0.00043156348 	1.3140418e-08 	0.00016131779
0.63541667 	0.00070815375 	6.1957985e-05 	1.0105511e-08 	0.00070890929 	3.1998824e-09 	0.0002194707
0.64583333 	0.0009911509 	0.00012163948 	9.4015559e-07 	0.0009918225 	2.9918687e-06 	0.00053863117
0.65625 	0.0012230987 	0.00020946097 	4.2419118e-08 	0.001221324 	7.432565e-08 	0.00016607143
0.66666667 	0.0014053158 	0.0003058607 	7.0391534e-07 	0.0014020067 	1.0890706e-06 	0.0007212591
0.67708333 	0.0015465417 	0.00040658542 	7.6169312e-09 	0.0015400551 	3.3191815e-08 	0.0006634612
0.6875 	0.0016624477 	0.00052576558 	-2.2289723e-09 	0.0016510255 	4.5471227e-09 	0.00082136708
0.69791667 	0.001756666 	0.0006604704 	6.9148451e-08 	0.001738724 	3.7951449e-08 	0.00093654226
0.70833333 	0.0018336445 	0.00076880146 	-8.0457252e-09 	0.001818653 	1.8056411e-08 	0.00080863103
0.71875 	0.0018958642 	0.00085607178 	3.4145183e-09 	0.0018910626 	3.4694804e-09 	0.0010084092
0.72916667 	0.0019504948 	0.00090851617 	1.8157564e-08 	0.0019593005 	1.8449839e-08 	0.0010085393
0.73958333 	0.0019987843 	0.00093492446 	1.08893e-08 	0.0020239057 	2.009261e-08 	0.00084931036
0.75 	0.0020484387 	0.00096075761 	6.813287e-08 	0.0020856889 	1.7679403e-07 	0.0010711848
0.76041667 	0.0020991024 	0.00098584176 	1.6825464e-08 	0.002143304 	3.5015345e-08 	0.00070462664
0.77083333 	0.002153422 	0.0010123974 	7.7352627e-08 	0.0022031295 	1.7595565e-07 	0.0011298207
0.78125 	0.0022102041 	0.0010391023 	1.2060676e-08 	0.0022604501 	2.5107845e-08 	0.00085086343
0.79166667 	0.0022717897 	0.0010679647 	1.314058e-08 	0.0023222662 	2.7378469e-08 	0.0011888884
0.80208333 	0.0023391605 	0.0010983428 	1.963682e-08 	0.0023870146 	8.4257033e-08 	0.0012508826
0.8125 	0.0024136593 	0.0011200833 	4.7388615e-08 	0.0024572787 	5.580316e-08 	0.00062601151
0.82291667 	0.0024987664 	0.0011411981 	1.765697e-07 	0.0025396884 	8.4441613e-07 	0.0013195995
0.83333333 	0.0025961327 	0.0011728279 	8.2313967e-08 	0.0026301688 	8.9237787e-08 	0.00060127425
0.84375 	0.0027126331 	0.0012120028 	2.3677897e-08 	0.0027410895 	3.3482211e-08 	0.0012000122
0.85416667 	0.0028568496 	0.0012557247 	4.0311964e-07 	0.002878779 	1.5249262e-06 	0.0015041028
0.86458333 	0.0030316437 	0.0013045116 	4.3176687e-08 	0.0030462882 	7.7143418e-08 	0.0012568257
0.875 	0.003246919 	0.001359494 	1.7280575e-07 	0.003252242 	3.9085686e-07 	0.0002258985
0.88541667 	0.0035062148 	0.001422785 	3.2306129e-08 	0.0035060875 	8.7877011e-08 	0.0015120401
0.89583333 	0.0038090152 	0.0014932027 	2.7103926e-07 	0.0038018269 	1.2654149e-06 	0.0019712432
0.90625 	0.0041378424 	0.0015714844 	5.4774512e-07 	0.0041231744 	2.3821754e-06 	0.002159617
0.91666667 	0.0044697872 	0.0016581245 	6.6393404e-07 	0.0044486137 	2.4923685e-06 	0.0023374414
0.92708333 	0.0047898314 	0.001755011 	5.6438659e-07 	0.0047642156 	1.7626248e-06 	0.0024968257
0.9375 	0.0050956874 	0.0018635612 	1.6042828e-07 	0.0050682192 	4.2911303e-07 	0.0026406422
0.94791667 	0.0053714435 	0.0019748928 	1.0359945e-07 	0.0053425762 	3.3769775e-07 	0.0010046509
0.95833333 	0.0055919065 	0.0020857668 	1.2032895e-08 	0.0055693311 	4.0936329e-08 	0.0026821922
0.96875 	0.005701663 	0.0021637351 	8.6016038e-08 	0.0056811362 	3.2307981e-07 	0.0001293197
0.97916667 	0.0055226116 	0.0022087598 	-2.1253884e-08 	0.0055138127 	-4.489642e-07 	0.0029019035
0.98958333 	0.0045086598 	0.0019968406 	-6.1714084e-07 	0.0045102851 	-1.8729664e-06 	0.002398195
