0.31958763 	0.35561943 	0.068775921 	-7.4162784e-05
0.32989691 	1.263382 	0.24145575 	-0.00075738154
0.34020619 	1.3075039 	0.2400732 	-9.0071259e-05
0.35051546 	1.3032126 	0.23031872 	-2.6699285e-05
0.36082474 	1.3004664 	0.22117605 	-4.7868372e-05
0.37113402 	1.2980876 	0.2129642 	-0.00015887456
0.3814433 	1.2957009 	0.20496157 	-0.00018640933
0.39175258 	1.2933256 	0.19731875 	-0.00023185612
0.40206186 	1.29089 	0.19002088 	-0.00022240957
0.41237113 	1.2883644 	0.18305556 	-0.0001234548
0.42268041 	1.2857226 	0.17637526 	-1.8326798e-05
0.43298969 	1.2829471 	0.16989637 	-2.3418089e-05
0.44329897 	1.2799886 	0.16381226 	-0.00012636409
0.45360825 	1.2768374 	0.15794315 	-7.4683083e-06
0.46391753 	1.2734787 	0.15205701 	-0.00011926878
0.4742268 	1.2702348 	0.14675918 	-0.00010191291
0.48453608 	1.2666277 	0.14128107 	-0.00015982476
0.49484536 	1.2633481 	0.13637358 	-1.5857102e-05
0.50515464 	1.259676 	0.13135815 	-0.0001271738
0.51546392 	1.2562031 	0.12671787 	-6.1008507e-05
0.5257732 	1.2524676 	0.12205372 	-0.00013091819
0.53608247 	1.2488871 	0.11777574 	-5.6501566e-05
0.54639175 	1.2449821 	0.11330952 	-0.00013231511
0.55670103 	1.2413773 	0.10946245 	-4.7021166e-06
0.56701031 	1.2372789 	0.10505906 	-0.00013950704
0.57731959 	1.2336666 	0.10153594 	-6.0087012e-06
0.58762887 	1.2296519 	0.097620019 	-6.0594842e-05
0.59793814 	1.2258014 	0.093985663 	-5.0820038e-05
0.60824742 	1.2219877 	0.090624677 	-1.4405925e-05
0.6185567 	1.2179322 	0.086870405 	-7.7378663e-05
0.62886598 	1.2142108 	0.083780425 	-1.0260264e-05
0.63917526 	1.2103277 	0.08061946 	-7.2918445e-06
0.64948454 	1.2063915 	0.077282457 	-5.9342921e-05
0.65979381 	1.2025045 	0.074381267 	-1.6501837e-05
0.67010309 	1.1985214 	0.071418126 	-1.3275283e-05
0.68041237 	1.1945135 	0.068437836 	-3.7312188e-05
0.69072165 	1.1902361 	0.06565113 	-5.8298125e-05
0.70103093 	1.1857605 	0.062804726 	-2.5436422e-05
0.71134021 	1.1810715 	0.060088696 	-1.1880261e-05
0.72164948 	1.1756077 	0.057402071 	-1.9479324e-07
0.73195876 	1.1693958 	0.054593605 	-2.9962779e-05
0.74226804 	1.1623341 	0.052003699 	-4.9203904e-05
0.75257732 	1.1538089 	0.049403319 	-2.6678821e-05
0.7628866 	1.1444303 	0.046994981 	-1.0372194e-05
0.77319588 	1.1354504 	0.044356573 	-1.7443595e-05
0.78350515 	1.1262608 	0.041761568 	-1.8403227e-06
0.79381443 	1.1199159 	0.039438371 	-1.4671815e-05
0.80412371 	1.1146512 	0.037356709 	-1.1012008e-06
0.81443299 	1.1099635 	0.035259621 	-1.7584634e-05
0.82474227 	1.1051731 	0.033291704 	-1.2285379e-05
0.83505155 	1.1000982 	0.031249607 	-2.0567249e-05
0.84536082 	1.0943774 	0.0293301 	-2.3189694e-06
0.8556701 	1.0880671 	0.027334065 	-7.2607266e-06
0.86597938 	1.0810453 	0.025316079 	-1.5303855e-05
0.87628866 	1.0731326 	0.023356569 	-1.7252459e-06
0.88659794 	1.0643425 	0.021349398 	-4.023848e-06
0.89690722 	1.0546113 	0.019324911 	-1.2503146e-05
0.90721649 	1.0436852 	0.017329719 	-1.0821359e-05
0.91752577 	1.0313761 	0.015341319 	-5.6719642e-06
0.92783505 	1.0174513 	0.013344033 	-2.7513101e-06
0.93814433 	1.0013851 	0.011331755 	-1.6780423e-06
0.94845361 	0.98264097 	0.0093506302 	-2.1239033e-06
0.95876289 	0.95862257 	0.0072840745 	-8.5050012e-06
0.96907216 	0.92642113 	0.0052328052 	-5.9260052e-06
0.97938144 	0.87452324 	0.0031687159 	-9.9586411e-07
0.98969072 	0.73512773 	0.0010676615 	-1.9426097e-06
