0.12903226 	2.2540797e-05 	-4.8959411e-06 	3.5376154e-08 	1.7981507e-05 	-7.2735626e-08 	4.0703063e-06
0.13978495 	7.1393704e-08 	-3.7932866e-09 	1.8534451e-10 	8.6106451e-08 	1.954607e-10 	1.8257196e-10
0.15053763 	5.7456459e-10 	-2.9388136e-12 	2.6524295e-14 	6.0386456e-10 	-5.1459839e-12 	1.1512151e-12
0.16129032 	1.5202873e-12 	-2.8785408e-15 	-3.6711548e-18 	1.5341284e-12 	1.9901014e-15 	9.5959651e-15
0.17204301 	1.5228543e-13 	-1.9351885e-16 	3.8358459e-18 	1.529088e-13 	-3.8313756e-15 	1.356234e-15
0.1827957 	1.4802813e-16 	-1.1406386e-20 	5.4842857e-24 	1.4778137e-16 	-5.217171e-20 	1.0345801e-17
0.19354839 	1.4802916e-16 	-5.1190579e-21 	1.4126412e-23 	1.4775847e-16 	-1.8726317e-20 	2.6316987e-18
0.20430108 	1.4802971e-16 	-3.447666e-22 	3.2022625e-24 	1.4778967e-16 	-4.2449973e-21 	2.1896383e-17
0.21505376 	1.4802969e-16 	-1.959875e-22 	4.9002213e-25 	1.4782538e-16 	-4.850446e-20 	4.0681732e-17
0.22580645 	1.498917e-16 	-6.5849953e-22 	-1.4659279e-23 	1.4972025e-16 	-1.0957526e-20 	5.9053548e-17
0.23655914 	1.5176792e-16 	-2.9130537e-21 	1.258018e-24 	1.5159865e-16 	-9.4717488e-20 	5.8835505e-17
0.24731183 	1.6979628e-16 	-3.6496052e-21 	9.4357013e-24 	1.6954437e-16 	-2.9676916e-19 	3.2743069e-17
0.25806452 	2.0408148e-16 	-9.738652e-21 	-7.9856684e-23 	2.0400315e-16 	1.5022181e-19 	1.5081575e-16
0.2688172 	2.6587811e-16 	-4.5264228e-20 	1.2569566e-22 	2.6570851e-16 	-3.6566356e-19 	1.194637e-16
0.27956989 	3.0565365e-16 	-6.2651431e-20 	8.109662e-22 	3.054535e-16 	-7.257902e-19 	1.3359106e-16
0.29032258 	3.0279023e-16 	-1.0487056e-20 	2.3775869e-22 	3.0266541e-16 	-2.1278683e-19 	2.2796351e-16
0.30107527 	2.5510088e-16 	-4.5186401e-18 	1.9728719e-19 	2.5892252e-16 	-6.6899804e-19 	3.3760415e-17
0.31182796 	2.0334041e-16 	-3.6679742e-22 	-1.5747e-23 	2.0320855e-16 	-3.867577e-20 	1.337038e-16
0.32258065 	2.2282498e-16 	-3.8093381e-18 	1.6617598e-19 	2.2599235e-16 	6.7550006e-19 	4.8997567e-18
0.33333333 	4.1797551e-16 	-8.7020298e-21 	-1.5012151e-23 	4.1735209e-16 	8.1163218e-18 	7.9791022e-17
0.34408602 	9.7241145e-16 	-7.5209664e-21 	1.1711224e-22 	9.7061434e-16 	6.4158104e-18 	2.1842895e-17
0.35483871 	8.6324296e-15 	-1.2957729e-19 	-5.417164e-21 	8.6168498e-15 	3.322403e-16 	2.6971107e-16
0.3655914 	2.4970859e-14 	-2.0618015e-18 	7.3516774e-20 	2.49265e-14 	-3.9622089e-17 	1.1569888e-16
0.37634409 	5.8074457e-14 	-7.2133104e-19 	-9.0809178e-22 	5.7983289e-14 	1.1893191e-15 	9.1843411e-15
0.38709677 	1.0331322e-13 	-6.7350749e-19 	-3.0103107e-22 	1.0312984e-13 	3.9425752e-16 	6.1115231e-15
0.39784946 	1.601019e-13 	-4.1898145e-19 	4.1755945e-21 	1.5982179e-13 	1.3389807e-15 	1.2520661e-14
0.40860215 	2.2248116e-13 	-2.4924765e-19 	5.9807178e-21 	2.2206008e-13 	1.9178265e-15 	1.1990665e-15
0.41935484 	2.848727e-13 	-1.6675812e-19 	-2.5977991e-21 	2.8437165e-13 	2.7882744e-16 	2.1682339e-14
0.43010753 	3.4062867e-13 	-5.7519697e-19 	-2.0589947e-20 	3.400621e-13 	2.2099638e-15 	4.1953783e-14
0.44086022 	3.9638464e-13 	-9.8363582e-19 	-2.4631781e-21 	3.9575255e-13 	2.6437827e-16 	6.2225227e-14
0.4516129 	4.3631897e-13 	-9.8335804e-19 	4.5741553e-22 	4.3568997e-13 	3.3077461e-16 	1.0374435e-13
0.46236559 	4.6765899e-13 	-9.2652317e-19 	8.4036625e-22 	4.6701187e-13 	6.0770088e-16 	1.2565864e-13
0.47311828 	4.9429588e-13 	-1.0285493e-18 	7.6101475e-21 	4.9340387e-13 	-5.208373e-17 	2.3449947e-14
0.48387097 	5.1068927e-13 	-6.358521e-19 	8.7313108e-21 	5.1006708e-13 	3.7870481e-17 	1.8227085e-13
0.49462366 	5.2410387e-13 	-1.8484151e-19 	8.0736286e-21 	5.2349117e-13 	3.5017903e-17 	2.0168328e-13
0.50537634 	5.2845078e-13 	2.0793716e-19 	8.8439323e-21 	5.2746791e-13 	-3.1028629e-16 	1.1393173e-14
0.51612903 	5.9893663e-13 	1.0399298e-18 	4.2189443e-20 	5.9827254e-13 	2.4486889e-15 	2.451654e-13
0.52688172 	7.6858248e-13 	3.7709341e-18 	4.2099075e-20 	7.676481e-13 	2.4434439e-15 	2.6083937e-13
0.53763441 	2.4757081e-12 	1.0605191e-16 	4.2553333e-18 	2.4716774e-12 	6.1359953e-14 	3.256086e-14
0.5483871 	2.024453e-12 	2.3306402e-17 	9.7407322e-22 	2.0236336e-12 	6.1638668e-16 	1.4894402e-12
0.55913978 	2.3115802e-12 	2.438066e-17 	8.010509e-21 	2.3103286e-12 	5.0689937e-15 	1.545745e-12
0.56989247 	6.3770479e-12 	3.2670201e-16 	1.3517616e-17 	6.3678153e-12 	1.8250654e-13 	7.0438403e-13
0.58064516 	4.6441289e-12 	2.1180736e-16 	8.854837e-18 	4.6375417e-12 	1.1955256e-13 	6.5912067e-13
0.59139785 	1.9166786e-09 	1.4127049e-15 	6.1331795e-17 	1.913039e-09 	8.3443172e-11 	4.6863248e-12
0.60215054 	4.9083005e-09 	4.1080279e-15 	-5.17701e-18 	4.8989781e-09 	-3.6721132e-11 	1.0104894e-11
0.61290323 	6.0867815e-09 	5.760368e-15 	-1.286273e-17 	6.0752394e-09 	-9.1236836e-11 	2.0956871e-11
0.62365591 	1.3683855e-08 	1.4774624e-13 	6.3162842e-15 	1.3658272e-08 	4.2213856e-10 	5.54797e-11
0.6344086 	4.2428945e-08 	6.4659874e-13 	1.1925504e-15 	4.2349984e-08 	-1.7303538e-10 	1.0547852e-10
0.64516129 	7.1668551e-08 	1.5784074e-12 	5.4062541e-15 	7.1552567e-08 	-7.8443076e-10 	8.6132698e-09
0.65591398 	1.4018419e-07 	2.0929641e-11 	8.2726427e-13 	1.4002291e-07 	3.0266442e-09 	3.4428837e-08
0.66666667 	4.0504037e-07 	1.6225156e-10 	3.0358168e-12 	4.0460778e-07 	-3.2098066e-10 	2.5987618e-08
0.67741935 	6.8316329e-07 	3.7507657e-10 	6.6558061e-12 	6.8285802e-07 	-7.0372659e-10 	1.7181366e-07
0.68817204 	7.4950782e-06 	2.0457213e-07 	8.2930639e-09 	7.7293546e-06 	2.8619295e-07 	4.1485133e-07
0.69892473 	3.327242e-05 	7.903996e-07 	-3.043707e-10 	3.4160373e-05 	2.5880419e-07 	2.2478342e-07
0.70967742 	7.391999e-05 	1.2973375e-06 	-5.4655795e-11 	7.545517e-05 	4.6473424e-08 	5.6659605e-05
0.72043011 	0.00014943864 	4.0606002e-06 	1.0185694e-08 	0.00015336901 	2.7846653e-07 	6.3004538e-05
0.7311828 	0.00031120947 	1.1839222e-05 	7.2712471e-08 	0.00032230478 	1.5197641e-06 	7.9976857e-05
0.74193548 	0.0004928777 	5.021165e-05 	1.4484493e-06 	0.00054146284 	5.1676142e-06 	0.0003049483
0.75268817 	0.00070273418 	0.00018213452 	1.1258277e-06 	0.00089216613 	3.5556663e-06 	7.1621132e-05
0.76344086 	0.00093991718 	0.00040482691 	1.3584758e-06 	0.001361001 	3.69609e-06 	0.00067645636
0.77419355 	0.0011427214 	0.00050882536 	7.1042229e-07 	0.0017016276 	1.9498738e-06 	0.00037305284
0.78494624 	0.0013031073 	0.00059573553 	3.1232822e-07 	0.0020214509 	1.238074e-06 	0.00089921382
0.79569892 	0.0014781114 	0.00064310962 	1.4128926e-07 	0.0022478022 	6.1583554e-07 	0.00061000487
0.80645161 	0.001633962 	0.00062812614 	6.7893107e-08 	0.0023541658 	5.210269e-07 	0.00099958658
0.8172043 	0.0017672735 	0.00065187874 	1.815764e-07 	0.0024522427 	4.2789646e-07 	0.000557897
0.82795699 	0.0018778218 	0.00069539138 	4.7012442e-07 	0.0025156063 	4.1270603e-07 	0.0010400347
0.83870968 	0.001978095 	0.00074164416 	4.0728414e-07 	0.0025730632 	7.5074348e-07 	0.00011587525
0.84946237 	0.0020693971 	0.00079633872 	6.2679471e-07 	0.0026370037 	4.2012023e-07 	0.0010522471
0.86021505 	0.0021581671 	0.00084666432 	4.6551361e-08 	0.0027008352 	1.1063864e-07 	0.00092574466
0.87096774 	0.0022464114 	0.00089561766 	5.1442978e-08 	0.0027657056 	1.5509959e-07 	0.0008195443
0.88172043 	0.002338912 	0.0009415412 	6.090215e-07 	0.0028322208 	5.7748136e-07 	0.0010605525
0.89247312 	0.002433087 	0.00098434143 	2.9238859e-08 	0.0028970872 	3.068668e-08 	0.0010704185
0.90322581 	0.0025260032 	0.0010224534 	7.7454956e-08 	0.0029567388 	3.952931e-07 	0.00025928447
0.91397849 	0.0026167524 	0.001056565 	9.0653525e-08 	0.0030151518 	8.8024757e-08 	0.001027189
0.92473118 	0.0026987982 	0.0010841858 	1.7567747e-07 	0.0030578141 	5.2552372e-08 	0.0010139635
0.93548387 	0.0027657723 	0.001104773 	2.5992147e-08 	0.0030834428 	-2.6354783e-07 	0.00098823663
0.94623656 	0.0028116263 	0.0011166102 	-8.6280291e-09 	0.0030839364 	-5.3046377e-07 	0.00094876326
0.95698925 	0.0028163744 	0.0011274856 	2.6572197e-08 	0.0030342922 	1.4962017e-07 	1.2920825e-05
0.96774194 	0.002750115 	0.0011315792 	-4.9781479e-09 	0.0029118288 	-7.6372121e-08 	0.00082778975
0.97849462 	0.0025817091 	0.0011144647 	-6.8887532e-08 	0.0026753188 	-3.7563417e-07 	0.00071267641
0.98924731 	0.0019264896 	0.00088557913 	-2.7269771e-06 	0.0019462685 	-6.366643e-06 	0.00050892685
