0.47826087 	2.8518653e-10 	-1.1647994e-14 	-6.856999e-17 	2.8491264e-10 	-3.323958e-14 	1.4152344e-10
0.48913043 	1.6277077e-10 	-1.1244495e-14 	-5.2361586e-17 	1.6256078e-10 	-5.4059563e-13 	5.2647377e-11
0.5 	2.5612115e-11 	-1.5099129e-13 	4.0517612e-17 	2.5585754e-11 	-3.3872204e-15 	1.255687e-11
0.51086957 	3.6904679e-12 	-1.3719713e-14 	1.6948764e-17 	3.6844921e-12 	-1.6670796e-14 	6.2022793e-13
0.52173913 	3.9500706e-13 	-2.190192e-16 	3.2349134e-18 	3.9427649e-13 	-2.3953838e-15 	1.139104e-14
0.5326087 	6.1459859e-13 	4.9986219e-16 	2.1686446e-17 	6.1356709e-13 	1.630746e-14 	2.8463143e-14
0.54347826 	1.7493012e-11 	3.5054783e-14 	1.2819335e-15 	1.7465442e-11 	5.614252e-13 	1.4297522e-13
0.55434783 	6.4962512e-10 	7.595891e-12 	1.6841316e-13 	6.4948194e-10 	1.3685925e-11 	6.762414e-12
0.56521739 	2.0592565e-08 	8.6548968e-10 	1.7644147e-11 	2.0667386e-08 	3.981212e-10 	4.6697087e-10
0.57608696 	4.4036203e-07 	1.9571953e-08 	6.5318761e-10 	4.4196107e-07 	1.3119474e-08 	4.7433128e-08
0.58695652 	4.6675218e-06 	1.5487251e-07 	3.0935424e-09 	4.6792402e-06 	9.3244718e-08 	1.8389188e-06
0.59782609 	2.6446614e-05 	9.2913604e-07 	-3.5015721e-10 	2.6522717e-05 	-1.911446e-09 	1.6902709e-05
0.60869565 	0.00012145748 	5.7034263e-06 	8.2354815e-09 	0.00012164347 	-1.7380429e-08 	1.4611653e-05
0.61956522 	0.0002996109 	1.8355292e-05 	6.4589331e-09 	0.0003000924 	-1.0501917e-08 	8.7994345e-05
0.63043478 	0.00056791791 	4.784272e-05 	5.5903021e-07 	0.00056888409 	3.7248868e-06 	0.00031357212
0.64130435 	0.0008768462 	0.00010554846 	3.7334176e-08 	0.00087748612 	-2.3053481e-08 	0.0003548386
0.65217391 	0.001146971 	0.00018780334 	5.8287568e-08 	0.0011461922 	-7.9079523e-09 	0.00037309446
0.66304348 	0.0013613498 	0.00028846061 	1.1194338e-06 	0.0013590687 	1.8205697e-06 	0.00077872201
0.67391304 	0.0015230212 	0.00039246402 	1.4338144e-07 	0.0015176348 	6.0953245e-09 	0.00013523346
0.68478261 	0.0016497648 	0.00050124553 	9.6399851e-07 	0.001643066 	7.8812846e-07 	0.00091194294
0.69565217 	0.0017518248 	0.00062707723 	3.9670226e-08 	0.001739736 	1.3130604e-08 	0.00057794611
0.70652174 	0.0018363468 	0.00074278177 	2.8848955e-07 	0.0018245182 	1.5173079e-07 	0.0010096196
0.7173913 	0.0019037948 	0.00084423303 	4.7782834e-09 	0.0018968774 	9.7370224e-09 	0.00078132427
0.72826087 	0.0019619286 	0.00091137176 	1.1835348e-07 	0.001966449 	9.6776553e-08 	0.0010861742
0.73913043 	0.0020119021 	0.00094012462 	4.0367814e-09 	0.0020329368 	8.0621366e-09 	0.00076990983
0.75 	0.0020623443 	0.00096678353 	4.5671064e-08 	0.0020977179 	1.2206282e-07 	0.0011518141
0.76086957 	0.0021146359 	0.00099286956 	5.2424879e-09 	0.0021580105 	8.7175977e-09 	0.00080317159
0.77173913 	0.002171236 	0.0010205533 	9.9251741e-09 	0.002220357 	2.2565509e-08 	0.0012144342
0.7826087 	0.0022326911 	0.0010492419 	1.8446161e-09 	0.0022813435 	3.2082326e-09 	0.0011771274
0.79347826 	0.0022999609 	0.0010800362 	1.3459487e-08 	0.002345809 	2.4592391e-08 	0.00081469587
0.80434783 	0.0023751676 	0.0011129428 	1.4476293e-07 	0.0024182656 	4.3055642e-07 	0.0013473479
0.81521739 	0.0024587615 	0.0011410365 	8.5607566e-08 	0.0024952617 	9.9059185e-08 	0.0001231798
0.82608696 	0.0025558446 	0.001172768 	5.6416099e-08 	0.0025899532 	2.041597e-07 	0.0014252331
0.83695652 	0.0026709732 	0.0012117572 	1.0949444e-07 	0.0026999535 	3.6415413e-07 	0.0015189267
0.84782609 	0.0028121115 	0.0012560203 	1.3613277e-07 	0.0028323945 	2.2734081e-07 	0.00024263599
0.85869565 	0.0029864462 	0.0013073457 	4.2142063e-08 	0.0030019406 	8.7316449e-08 	0.0012679887
0.86956522 	0.0032051337 	0.0013645238 	3.5506142e-07 	0.0032147053 	1.5803781e-06 	0.001787113
0.88043478 	0.0034706626 	0.0014278557 	2.8117346e-07 	0.0034731402 	1.3576053e-06 	0.0019673056
0.89130435 	0.003781237 	0.0014981911 	1.5056809e-08 	0.0037759809 	4.4138016e-08 	0.0020168091
0.90217391 	0.0041223226 	0.0015766692 	7.3297515e-08 	0.0041084044 	2.2804749e-07 	0.0015868776
0.91304348 	0.0044696206 	0.0016635339 	8.0703812e-08 	0.0044488079 	2.522863e-07 	0.0016315356
0.92391304 	0.0048048052 	0.0017606344 	2.8869601e-08 	0.0047804844 	8.8800459e-08 	0.002371058
0.93478261 	0.0051233951 	0.0018694277 	3.7402296e-07 	0.0050976747 	1.0091739e-06 	0.0028825327
0.94565217 	0.0054120544 	0.0019821517 	2.5144555e-07 	0.0053882985 	5.9793846e-07 	0.0030130441
0.95652174 	0.005635998 	0.0020884514 	1.302767e-07 	0.0056096668 	4.6041902e-07 	9.8400219e-05
0.9673913 	0.0057601991 	0.0021715426 	1.1154778e-08 	0.005746459 	1.6690834e-09 	0.0032216167
0.97826087 	0.0055947032 	0.0022183076 	-4.5148727e-08 	0.0055866442 	-7.7939178e-07 	0.003124217
0.98913043 	0.0046182957 	0.0020325769 	-8.9778169e-07 	0.0046203736 	-2.7350318e-06 	0.0025729967
