0.4742268 	0.21299029 	3.5042756e-05 	-3.9859203e-09
0.48453608 	0.82180113 	0.00057127961 	-3.0216436e-08
0.49484536 	1.2482722 	0.0014363469 	3.1746473e-06
0.50515464 	1.4460976 	0.0020060883 	-3.6446912e-08
0.51546392 	1.4945561 	0.002067793 	-2.5178098e-07
0.5257732 	1.5011044 	0.0019386266 	-1.8129216e-06
0.53608247 	1.4990877 	0.0017747434 	-6.9152141e-07
0.54639175 	1.4959071 	0.0016122142 	-4.5350503e-08
0.55670103 	1.4924708 	0.001452913 	-3.17535e-09
0.56701031 	1.4887873 	0.0012964765 	-4.5928684e-07
0.57731959 	1.4848532 	0.0011442296 	-1.4693178e-06
0.58762887 	1.4807 	0.00099370469 	-2.2900793e-06
0.59793814 	1.4764475 	0.00084555538 	-3.8237128e-07
0.60824742 	1.4719472 	0.00070984317 	-1.5924202e-07
0.6185567 	1.4672688 	0.00059185162 	-6.3210059e-07
0.62886598 	1.4621617 	0.00049841649 	-9.2553024e-07
0.63917526 	1.4569244 	0.00044472682 	-1.3239881e-07
0.64948454 	1.4517436 	0.00041891524 	-2.9249278e-07
0.65979381 	1.4464929 	0.00040665594 	-2.690369e-09
0.67010309 	1.4412873 	0.00041361696 	-5.5962435e-09
0.68041237 	1.4360383 	0.00043907632 	7.0535024e-08
0.69072165 	1.4303405 	0.00044756383 	1.1063545e-07
0.70103093 	1.4241281 	0.00044292779 	-7.3121886e-07
0.71134021 	1.4169718 	0.00040041188 	3.0868593e-07
0.72164948 	1.4090889 	0.00034197726 	-1.0857927e-06
0.73195876 	1.4005765 	0.0002850844 	1.5950529e-07
0.74226804 	1.391396 	0.0002238177 	-8.4859974e-07
0.75257732 	1.3823998 	0.00015287314 	3.0083012e-09
0.7628866 	1.3735821 	5.6375717e-05 	-6.4149993e-07
0.77319588 	1.3654441 	-3.9280866e-05 	-8.961748e-08
0.78350515 	1.3583266 	-0.00013655154 	-7.0838671e-07
0.79381443 	1.3517227 	-0.0002260866 	5.0873257e-08
0.80412371 	1.345614 	-0.00031009409 	-1.251349e-06
0.81443299 	1.3395662 	-0.00039685373 	2.373559e-07
0.82474227 	1.3332446 	-0.00048514169 	-1.1305073e-06
0.83505155 	1.3266816 	-0.00056521573 	-5.6688309e-08
0.84536082 	1.3197319 	-0.00062844275 	1.3488539e-07
0.8556701 	1.3122174 	-0.0006776385 	-5.1533861e-07
0.86597938 	1.3041693 	-0.0007193871 	-1.3281109e-07
0.87628866 	1.2954192 	-0.00074744056 	2.4851869e-07
0.88659794 	1.2856528 	-0.00076165699 	1.4229253e-07
0.89690722 	1.2746182 	-0.00075982031 	4.5730744e-08
0.90721649 	1.2618879 	-0.00073893002 	2.5638492e-07
0.91752577 	1.2468097 	-0.00069667089 	4.7890204e-07
0.92783505 	1.2284005 	-0.00062946658 	4.9781385e-07
0.93814433 	1.2054588 	-0.00053648902 	1.2318927e-07
0.94845361 	1.1763711 	-0.00042298011 	2.4553481e-07
0.95876289 	1.1388274 	-0.00029298222 	3.655321e-07
0.96907216 	1.0880846 	-0.00017364403 	1.0343865e-07
0.97938144 	1.0114143 	-7.7337183e-05 	7.2301332e-08
0.98969072 	0.8502645 	-9.5634921e-05 	-3.7720411e-07
