0.4742268 	4.8312814e-11 	-1.8043063e-19 	1.1549173e-21 	4.8250025e-11 	3.79422e-14 	1.5374607e-11
0.48453608 	3.0328264e-11 	-1.8022531e-17 	4.5396332e-20 	3.0290237e-11 	6.8268027e-14 	1.0379894e-11
0.49484536 	1.3881421e-12 	-4.8657524e-17 	-1.8733636e-18 	1.3864271e-12 	-1.9072751e-14 	4.8879874e-13
0.50515464 	3.9870464e-13 	-1.5644449e-15 	3.8599626e-19 	3.9797231e-13 	-3.307549e-16 	2.3209002e-14
0.51546392 	1.1116567e-13 	-5.6771682e-16 	2.3958039e-18 	1.109903e-13 	-2.3716812e-16 	2.1116039e-14
0.5257732 	6.7554235e-14 	-1.1578926e-18 	1.9122486e-19 	6.748588e-14 	8.3930012e-18 	3.0795462e-14
0.53608247 	7.807306e-14 	3.0924032e-17 	1.3656395e-19 	7.7993746e-14 	5.537088e-17 	3.3281447e-14
0.54639175 	1.204055e-12 	2.2043206e-15 	9.0742456e-19 	1.202234e-12 	4.691553e-16 	5.6446192e-14
0.55670103 	1.705684e-10 	6.599425e-13 	9.3537788e-17 	1.703488e-10 	5.6025244e-15 	2.335484e-12
0.56701031 	1.1672001e-08 	8.1823086e-11 	3.5282193e-13 	1.1661794e-08 	4.9590771e-11 	2.6238906e-10
0.57731959 	4.5341333e-07 	4.9602133e-09 	8.2829703e-11 	4.5324649e-07 	7.4081289e-09 	1.7665892e-08
0.58762887 	6.4105217e-06 	1.0462074e-07 	3.8862748e-09 	6.4126e-06 	2.2111679e-07 	7.4292508e-07
0.59793814 	3.1243135e-05 	6.3316758e-07 	6.6309886e-09 	3.1284182e-05 	1.7518723e-07 	1.4807972e-05
0.60824742 	0.00011481511 	3.8508566e-06 	-3.378186e-09 	0.00011496855 	-2.9640754e-08 	2.4020296e-06
0.6185567 	0.00025083702 	1.7928902e-05 	9.0224664e-08 	0.00025161801 	7.2604592e-07 	7.9604657e-05
0.62886598 	0.0004424721 	5.2910085e-05 	6.8798978e-07 	0.00044403626 	2.145842e-06 	0.00020385974
0.63917526 	0.0006319804 	0.00012070234 	-6.8777326e-08 	0.00063308182 	6.0190047e-07 	7.3728264e-05
0.64948454 	0.00081567145 	0.00021319736 	8.7556895e-07 	0.00081532417 	1.5260308e-06 	0.00033469727
0.65979381 	0.00098877242 	0.00032094741 	4.204435e-07 	0.0009849599 	5.2821441e-07 	0.00045415514
0.67010309 	0.0011424795 	0.00043664881 	-8.4616422e-09 	0.0011366905 	1.9152651e-07 	0.00037317439
0.68041237 	0.001279334 	0.00055578234 	1.1578613e-06 	0.0012739843 	1.5908159e-06 	0.00055908764
0.69072165 	0.0014003551 	0.00063800496 	1.2555558e-07 	0.0013997578 	5.4008367e-07 	0.00023275072
0.70103093 	0.0015066425 	0.00069982843 	8.0580894e-07 	0.0015147891 	1.6541673e-06 	0.00064719352
0.71134021 	0.0016050825 	0.00074904645 	2.1626623e-07 	0.0016178029 	4.585397e-07 	0.00024776799
0.72164948 	0.0016928758 	0.00079112651 	5.2926994e-07 	0.0017110809 	1.1638117e-06 	0.00072390266
0.73195876 	0.0017774016 	0.00083104325 	8.3124376e-08 	0.0017982392 	1.8384837e-07 	0.00048772559
0.74226804 	0.0018534495 	0.00086742808 	2.7855991e-07 	0.0018786847 	6.2863413e-07 	0.00079241096
0.75257732 	0.0019283835 	0.00090354109 	1.8764766e-09 	0.0019590877 	4.2149868e-09 	0.0007841201
0.7628866 	0.0019948607 	0.00093630854 	1.4028485e-07 	0.0020335677 	3.2472993e-07 	0.00085274695
0.77319588 	0.0020633125 	0.00096996372 	1.9597781e-08 	0.0021096566 	4.5364741e-08 	0.00085289199
0.78350515 	0.0021276777 	0.00099992103 	8.9647502e-08 	0.0021801591 	3.4930973e-07 	0.00090710416
0.79381443 	0.0021951172 	0.0010233615 	2.7194892e-08 	0.002251546 	4.38572e-08 	0.00070392454
0.80412371 	0.0022650764 	0.0010380342 	-3.7138745e-08 	0.002322874 	6.5028753e-07 	0.00095853759
0.81443299 	0.0023387717 	0.0010467709 	1.2945062e-07 	0.0023932781 	1.4229542e-07 	0.00010618975
0.82474227 	0.0024214521 	0.0010599767 	4.8124479e-08 	0.0024725809 	6.7977362e-07 	0.0010107727
0.83505155 	0.002510767 	0.0010848059 	1.7314896e-08 	0.0025544746 	5.9281298e-08 	0.0010680365
0.84536082 	0.0026130139 	0.0011161603 	7.2374274e-08 	0.0026474242 	7.4848868e-08 	0.00062298185
0.8556701 	0.0027339128 	0.0011538252 	3.4177527e-07 	0.002760826 	1.1409418e-06 	0.0011343233
0.86597938 	0.002876875 	0.0011981061 	2.0155337e-07 	0.002895798 	6.8372843e-07 	0.0012149561
0.87628866 	0.0030497497 	0.0012496121 	1.3408079e-07 	0.0030586444 	2.1600692e-07 	0.00040767899
0.88659794 	0.0032611624 	0.0013105136 	7.6554919e-08 	0.0032619999 	1.5732087e-07 	0.00081200091
0.89690722 	0.003516691 	0.0013808197 	1.7667739e-07 	0.0035098773 	6.7354969e-07 	0.0014316352
0.90721649 	0.0038136962 	0.0014604032 	4.7447037e-07 	0.0037983572 	1.8208916e-06 	0.0015648743
0.91752577 	0.0041367554 	0.0015498335 	6.1284035e-07 	0.0041134634 	2.19721e-06 	0.0017032069
0.92783505 	0.0044657167 	0.0016505905 	5.2140259e-07 	0.0044360487 	1.6272928e-06 	0.0018347096
0.93814433 	0.0047883978 	0.0017653015 	1.1394263e-07 	0.0047550011 	3.0362937e-07 	0.0019548872
0.94845361 	0.0050963259 	0.0018909325 	1.2159319e-07 	0.0050599616 	4.1262075e-07 	0.00031199803
0.95876289 	0.0053665451 	0.0020208976 	2.3728817e-07 	0.0053370115 	4.3972387e-07 	0.002238991
0.96907216 	0.0055317747 	0.0021202659 	4.7056555e-08 	0.0055074602 	1.8783852e-07 	0.0007083295
0.97938144 	0.0054092207 	0.0021818438 	-1.8162525e-09 	0.0053963435 	-3.2709672e-07 	0.0022518289
0.98969072 	0.004446357 	0.0019761892 	-6.2211532e-07 	0.0044459168 	-1.8677099e-06 	0.0018824817
