0 	0.84359063 	-5.7292438e-14 	-2.3334413e-20
0.010869565 	0.84363764 	-0.0006849449 	1.2050781e-07
0.02173913 	0.84446124 	-0.0013551011 	3.4317862e-08
0.032608696 	0.84627866 	-0.0020223815 	1.963542e-08
0.043478261 	0.84906579 	-0.0026825633 	6.8664738e-08
0.054347826 	0.8527875 	-0.0033341425 	8.353702e-07
0.065217391 	0.85783365 	-0.004023055 	2.055873e-06
0.076086957 	0.86292758 	-0.0045888643 	1.4980114e-06
0.086956522 	0.8691531 	-0.005181316 	2.0196985e-07
0.097826087 	0.87638338 	-0.0057628463 	6.9769175e-07
0.10869565 	0.88459198 	-0.0063247995 	4.4703991e-06
0.11956522 	0.89302522 	-0.0068388806 	6.4981079e-07
0.13043478 	0.90265389 	-0.007340824 	2.0397032e-06
0.14130435 	0.91304493 	-0.0078241348 	4.6502791e-06
0.15217391 	0.92352958 	-0.0082852761 	2.554258e-07
0.16304348 	0.93572885 	-0.0086631405 	7.2764365e-06
0.17391304 	0.94719117 	-0.009007613 	7.4152199e-08
0.18478261 	0.96099299 	-0.0092742138 	7.5929832e-06
0.19565217 	0.97375824 	-0.0095182677 	2.7650892e-07
0.20652174 	0.98908199 	-0.0097185961 	8.3537669e-06
0.2173913 	1.0030072 	-0.0099043385 	1.9394623e-07
0.22826087 	1.0192084 	-0.0099427315 	6.7772514e-06
0.23913043 	1.0343105 	-0.0099719274 	1.8962964e-06
0.25 	1.0504114 	-0.0099136056 	3.5509071e-06
0.26086957 	1.0664081 	-0.0098099759 	4.3488791e-06
0.27173913 	1.0818571 	-0.009679793 	8.7640715e-07
0.2826087 	1.0979005 	-0.0094005104 	6.2696135e-06
0.29347826 	1.1125638 	-0.009146921 	1.1739604e-06
0.30434783 	1.127139 	-0.0087875533 	1.4264652e-06
0.31521739 	1.1411493 	-0.0083461298 	4.9855577e-06
0.32608696 	1.1540576 	-0.0079362476 	2.3557097e-06
0.33695652 	1.1664085 	-0.0074427118 	1.4219041e-06
0.34782609 	1.1779657 	-0.0069324445 	3.4030571e-06
0.35869565 	1.1885845 	-0.006456649 	4.1423387e-06
0.36956522 	1.1980635 	-0.0059644457 	6.6655661e-07
0.38043478 	1.2064956 	-0.0054793449 	2.8644776e-06
0.39130435 	1.2142479 	-0.0050334307 	6.3030092e-08
0.40217391 	1.2198993 	-0.004580106 	2.8652771e-06
0.41304348 	1.2236048 	-0.004127216 	2.1315981e-06
0.42391304 	1.2268122 	-0.0037048109 	9.1286199e-07
0.43478261 	1.2283462 	-0.0033260218 	1.2283492e-05
0.44565217 	1.2280302 	-0.0029906213 	5.8102709e-07
0.45652174 	1.2259684 	-0.0027052931 	1.8519071e-06
0.4673913 	1.2240546 	-0.0024390826 	5.3729837e-08
0.47826087 	1.2196732 	-0.0021805359 	6.8211475e-06
0.48913043 	1.2141072 	-0.0019279222 	7.5759631e-07
0.5 	1.2073512 	-0.001683367 	1.3473306e-06
0.51086957 	1.2004053 	-0.0014522614 	1.5638029e-06
0.52173913 	1.1917672 	-0.0012730445 	3.7846437e-06
0.5326087 	1.1820668 	-0.0011291785 	9.1447151e-07
0.54347826 	1.1713953 	-0.0010092536 	1.0023932e-06
0.55434783 	1.1608464 	-0.00090014443 	2.0392591e-06
0.56521739 	1.1507404 	-0.00081127951 	6.2505147e-07
0.57608696 	1.1413227 	-0.0007547304 	1.3873718e-06
0.58695652 	1.1317053 	-0.00069958213 	1.6392841e-07
0.59782609 	1.1234289 	-0.00060273413 	2.7916741e-06
0.60869565 	1.1159232 	-0.00048519752 	5.9931835e-07
0.61956522 	1.1091712 	-0.00033989567 	5.9172087e-07
0.63043478 	1.1025421 	-0.00020235289 	3.7377636e-06
0.64130435 	1.0961651 	-7.7143235e-05 	2.6667523e-07
0.65217391 	1.0900394 	3.1204843e-05 	6.6340303e-07
0.66304348 	1.0836844 	0.00013666784 	2.3642339e-06
0.67391304 	1.0772819 	0.00023108936 	2.3747269e-07
0.68478261 	1.0706933 	0.00031156731 	4.2405997e-07
0.69565217 	1.0639099 	0.00040218814 	2.2439915e-06
0.70652174 	1.0571338 	0.00049684499 	4.201879e-07
0.7173913 	1.0501279 	0.00059933103 	1.7235678e-08
0.72826087 	1.0429472 	0.00068871761 	7.187964e-07
0.73913043 	1.0357002 	0.00076130275 	4.9033349e-07
0.75 	1.0280525 	0.00083383258 	1.2269026e-06
0.76086957 	1.0203471 	0.00089991932 	2.4502605e-07
0.77173913 	1.0122841 	0.00096338597 	2.5689212e-07
0.7826087 	1.0040427 	0.0010196902 	4.0253269e-08
0.79347826 	0.99555675 	0.0010656355 	2.995671e-08
0.80434783 	0.9867877 	0.0011057585 	4.259781e-08
0.81521739 	0.97783851 	0.0011327396 	3.0220712e-08
0.82608696 	0.96855744 	0.0011528385 	3.4307622e-09
0.83695652 	0.95907753 	0.0011580727 	7.5513348e-10
0.84782609 	0.9492883 	0.0011531343 	-1.6915857e-08
0.85869565 	0.93917203 	0.001134752 	-3.6526985e-07
0.86956522 	0.92885494 	0.0011031812 	-1.2427021e-07
0.88043478 	0.91792527 	0.0010594009 	-5.4287983e-07
0.89130435 	0.90671644 	0.0010021139 	-5.2766166e-09
0.90217391 	0.89492454 	0.00092824242 	-1.6364345e-07
0.91304348 	0.88227348 	0.00084128136 	-4.9361199e-07
0.92391304 	0.86891184 	0.00074658412 	-8.4999199e-07
0.93478261 	0.85434857 	0.00064018 	-6.8755127e-08
0.94565217 	0.83650564 	0.00051277081 	-9.8466915e-07
0.95652174 	0.81576081 	0.00038764078 	-1.2764202e-07
0.9673913 	0.78764329 	0.00025682689 	-7.6200601e-08
0.97826087 	0.74199511 	0.00013308926 	-5.6312909e-08
0.98913043 	0.61806545 	-4.9887403e-05 	-1.902691e-08
