0.4742268 	0.21088173 	3.409915e-05 	-4.0986085e-09
0.48453608 	0.81414982 	0.00055144925 	-3.343812e-08
0.49484536 	1.2404927 	0.0013907454 	3.0052443e-06
0.50515464 	1.4429258 	0.001959944 	-4.916534e-08
0.51546392 	1.4946871 	0.0020336526 	-1.9562682e-07
0.5257732 	1.5021948 	0.001910078 	-1.7142001e-06
0.53608247 	1.5003416 	0.001748543 	-6.1493345e-07
0.54639175 	1.4971708 	0.0015876906 	-2.9360197e-09
0.55670103 	1.4937342 	0.0014300375 	-9.7622638e-09
0.56701031 	1.4900556 	0.0012754747 	-3.7929413e-07
0.57731959 	1.4861239 	0.0011247843 	-1.3736575e-06
0.58762887 	1.4819682 	0.00097647468 	-2.1816091e-06
0.59793814 	1.4776963 	0.00082962515 	-3.0027742e-07
0.60824742 	1.4730993 	0.00069324576 	-9.401606e-08
0.6185567 	1.4682271 	0.00057490373 	-5.7197285e-07
0.62886598 	1.4627917 	0.00047745498 	-8.553004e-07
0.63917526 	1.4572008 	0.00042616249 	-1.3733578e-07
0.64948454 	1.4517393 	0.00040453916 	-2.3325747e-07
0.65979381 	1.4463015 	0.00039312336 	1.3318355e-08
0.67010309 	1.4410548 	0.00040505657 	-4.6210812e-08
0.68041237 	1.435867 	0.00043372684 	2.4041401e-07
0.69072165 	1.4303139 	0.00045729062 	-8.8490766e-08
0.70103093 	1.4243077 	0.00046810017 	-3.9870254e-07
0.71134021 	1.4173047 	0.00044657933 	2.1088744e-07
0.72164948 	1.4096029 	0.00040689056 	-1.0558621e-06
0.73195876 	1.4011714 	0.00034548527 	1.6119854e-07
0.74226804 	1.3920711 	0.00026625589 	-9.0541952e-07
0.75257732 	1.3831719 	0.00018436792 	1.2098135e-08
0.7628866 	1.3744289 	8.5744005e-05 	-5.835392e-07
0.77319588 	1.3663586 	-1.2819062e-05 	-1.553197e-08
0.78350515 	1.3592603 	-0.00011159966 	-6.4555939e-07
0.79381443 	1.3526615 	-0.00020107593 	5.7966447e-08
0.80412371 	1.3465112 	-0.00028292136 	-1.1618167e-06
0.81443299 	1.3404186 	-0.00036720995 	2.4827377e-07
0.82474227 	1.3340361 	-0.0004520223 	-1.051533e-06
0.83505155 	1.3273976 	-0.00053072887 	-2.0778511e-08
0.84536082 	1.3203564 	-0.00059239137 	1.5024355e-07
0.8556701 	1.3127412 	-0.00063967784 	-4.7835697e-07
0.86597938 	1.30458 	-0.00068011016 	-1.1600011e-07
0.87628866 	1.2957021 	-0.00070707523 	2.6418951e-07
0.88659794 	1.2857938 	-0.00072013253 	1.571123e-07
0.89690722 	1.274601 	-0.00071759949 	3.9735996e-08
0.90721649 	1.2616752 	-0.0006964837 	2.3914628e-07
0.91752577 	1.2463622 	-0.00065466096 	4.4661782e-07
0.92783505 	1.2276918 	-0.00058894987 	4.5335348e-07
0.93814433 	1.2045117 	-0.00049912593 	8.2544614e-08
0.94845361 	1.1752646 	-0.00039086633 	2.4725408e-07
0.95876289 	1.137691 	-0.00026841492 	3.082386e-07
0.96907216 	1.087057 	-0.00015718624 	1.0905324e-07
0.97938144 	1.0106755 	-6.7912822e-05 	5.6807802e-08
0.98969072 	0.84999556 	-9.1151955e-05 	-3.4710739e-07
