4.1667976e-36 	-0.3262856 	2.2159656e-14 	8.0544486e-21
0.010869565 	-0.33279412 	-0.00046368091 	4.6189136e-09
0.02173913 	-0.33053918 	-0.00098292877 	-2.2150982e-08
0.032608696 	-0.324269 	-0.0017657728 	-1.7583346e-05
0.043478261 	-0.32187676 	-0.0023035869 	-7.3134096e-07
0.054347826 	-0.31095743 	-0.0035247037 	-4.6805294e-05
0.065217391 	-0.30487263 	-0.0043062821 	-2.1649308e-05
0.076086957 	-0.29440644 	-0.0054308871 	-4.0862553e-05
0.086956522 	-0.28555739 	-0.0062924186 	-2.9229451e-06
0.097826087 	-0.27171492 	-0.0076544 	-1.2817516e-05
0.10869565 	-0.25624707 	-0.0091096513 	-9.6638221e-07
0.11956522 	-0.23846173 	-0.010697638 	-6.130626e-06
0.13043478 	-0.21832785 	-0.012475242 	-2.4331591e-05
0.14130435 	-0.19612446 	-0.014455941 	-1.209409e-05
0.15217391 	-0.17181325 	-0.016487823 	-3.2846241e-05
0.16304348 	-0.14569997 	-0.018734379 	-1.4164926e-05
0.17391304 	-0.11667427 	-0.021232261 	-3.2186706e-05
0.18478261 	-0.086287124 	-0.023912557 	-1.6767224e-05
0.19565217 	-0.052848261 	-0.026883283 	-3.6074567e-05
0.20652174 	-0.019050953 	-0.030295739 	-7.1142941e-06
0.2173913 	0.019383734 	-0.034052676 	-5.6520234e-05
0.22826087 	0.053408368 	-0.037522791 	-2.7099036e-05
0.23913043 	0.10045295 	-0.042953956 	-9.9874624e-05
0.25 	0.14633214 	-0.047581894 	-1.9951093e-05
0.26086957 	0.1971436 	-0.053434018 	-4.4891857e-05
0.27173913 	0.25788017 	-0.059990003 	-5.0257021e-05
0.2826087 	0.32209867 	-0.065775521 	-7.6976938e-05
0.29347826 	0.39434211 	-0.074115995 	-0.00010970555
0.30434783 	0.47344437 	-0.080913953 	-3.6174889e-05
0.31521739 	0.55969596 	-0.087188574 	-7.3009447e-05
0.32608696 	0.64744451 	-0.094464794 	-8.0145461e-05
0.33695652 	0.7414968 	-0.098933218 	-9.8919818e-05
0.34782609 	0.83917546 	-0.10340384 	-0.00010237879
0.35869565 	0.92920644 	-0.10825238 	3.544805e-06
0.36956522 	1.0151097 	-0.10978156 	-9.570232e-05
0.38043478 	1.0991936 	-0.11033855 	-0.00015897878
0.39130435 	1.176482 	-0.11235006 	3.0290875e-05
0.40217391 	1.2354267 	-0.11143777 	-3.9601385e-05
0.41304348 	1.2852618 	-0.10867445 	-0.00021133239
0.42391304 	1.3335468 	-0.10740902 	-5.7656578e-05
0.43478261 	1.3694388 	-0.10517053 	4.8283909e-05
0.44565217 	1.3860515 	-0.10179766 	-9.8379967e-05
0.45652174 	1.400063 	-0.098406031 	-0.00012719817
0.4673913 	1.4147083 	-0.09518925 	-2.0945976e-05
0.47826087 	1.4178376 	-0.091702147 	-9.1435145e-06
0.48913043 	1.4090307 	-0.088509108 	-8.6826359e-05
0.5 	1.4011607 	-0.085078881 	-8.3751382e-05
0.51086957 	1.3940936 	-0.081445412 	-1.1476368e-05
0.52173913 	1.3814267 	-0.078142703 	-1.5389691e-05
0.5326087 	1.365 	-0.075381425 	-6.2994793e-05
0.54347826 	1.3487298 	-0.072160335 	-4.725502e-05
0.55434783 	1.3325445 	-0.068709915 	3.551055e-06
0.56521739 	1.3167885 	-0.066087354 	-1.9951624e-05
0.57608696 	1.3010993 	-0.063719053 	-4.8041246e-05
0.58695652 	1.2850665 	-0.06083843 	-1.6706903e-05
0.59782609 	1.2710106 	-0.058188949 	-4.5513446e-06
0.60869565 	1.2607466 	-0.056094731 	-2.6900184e-05
0.61956522 	1.2501166 	-0.053793938 	-1.9295905e-05
0.63043478 	1.2397063 	-0.051421554 	3.8649753e-06
0.64130435 	1.2334381 	-0.049544802 	-1.8726718e-05
0.65217391 	1.2269711 	-0.047622197 	-1.8276306e-05
0.66304348 	1.2203276 	-0.045650291 	6.4894989e-06
0.67391304 	1.2152439 	-0.043854089 	-1.7032285e-05
0.68478261 	1.2099424 	-0.042086109 	-1.4654004e-05
0.69565217 	1.2044461 	-0.04032682 	-1.8697138e-06
0.70652174 	1.1990349 	-0.038543927 	-1.8799614e-05
0.7173913 	1.1932378 	-0.036868445 	-7.9518844e-06
0.72826087 	1.1872485 	-0.035157519 	-7.3181958e-06
0.73913043 	1.1810522 	-0.033435102 	-1.5692642e-05
0.75 	1.1744401 	-0.031855789 	1.353693e-06
0.76086957 	1.1674928 	-0.030133241 	-1.4699652e-05
0.77173913 	1.1600567 	-0.028603916 	-4.1525687e-06
0.7826087 	1.1521836 	-0.026966638 	-9.2901692e-06
0.79347826 	1.1437758 	-0.025424774 	-6.3382494e-06
0.80434783 	1.1347977 	-0.023860846 	-6.4351909e-06
0.81521739 	1.1251838 	-0.022331289 	-6.1194865e-06
0.82608696 	1.1148786 	-0.020805536 	-5.5645387e-06
0.83695652 	1.1038037 	-0.019320498 	-4.1792327e-06
0.84782609 	1.0919189 	-0.017787419 	-6.0450039e-06
0.85869565 	1.0790412 	-0.016388242 	-1.189329e-06
0.86956522 	1.0652219 	-0.014800815 	-6.9437623e-06
0.88043478 	1.0499037 	-0.013450343 	-1.4666386e-06
0.89130435 	1.0332977 	-0.011987996 	-2.2987637e-06
0.90217391 	1.0151593 	-0.010481132 	-4.0590445e-06
0.91304348 	0.99475324 	-0.0091621958 	-1.2109249e-06
0.92391304 	0.97217652 	-0.007811983 	-4.0597981e-07
0.93478261 	0.94738915 	-0.0064607422 	-1.0275555e-06
0.94565217 	0.91732799 	-0.0051537764 	-9.4853832e-08
0.95652174 	0.88391607 	-0.0037984097 	-1.0522204e-06
0.9673913 	0.84176802 	-0.0027202914 	-6.8492332e-08
0.97826087 	0.78367757 	-0.0016785212 	6.3039007e-07
0.98913043 	0.64997068 	-0.00085971188 	1.9817791e-06
