0 	0.0070533656 	-4.7902868e-16 	-1.7411425e-22 	3.2533189e-29 	1.1824953e-35 	4.2980575e-42
0.010869565 	0.006984302 	-0.00029635696 	-1.2755933e-07 	0.013135889 	-8.6960808e-06 	0.011046675
0.02173913 	0.007134952 	-0.00085833667 	-1.1777624e-07 	0.013281538 	-6.6895703e-06 	0.010168465
0.032608696 	0.007319082 	-0.0013998372 	-4.9244702e-07 	0.013396292 	-1.3173544e-06 	0.0058081959
0.043478261 	0.0074531702 	-0.0019164297 	-1.284905e-07 	0.01350268 	-1.4544624e-05 	0.0084304883
0.054347826 	0.0076319526 	-0.0024165696 	-1.5693022e-06 	0.013541679 	-2.2521664e-06 	0.00086142092
0.065217391 	0.007741956 	-0.0029205246 	-8.7611461e-07 	0.01360342 	-1.0335551e-06 	0.0034923446
0.076086957 	0.0078669074 	-0.0033458715 	-1.3472827e-06 	0.013646852 	-1.3490957e-06 	0.0016757822
0.086956522 	0.0079806376 	-0.0037790184 	2.2704027e-07 	0.013718438 	-1.1303946e-05 	0.0050576177
0.097826087 	0.0081224233 	-0.0042102459 	5.7194165e-07 	0.013770454 	-2.5684724e-05 	0.0042860582
0.10869565 	0.0082547462 	-0.0046435475 	-2.5000446e-07 	0.013820952 	-1.5831125e-07 	0.0029893317
0.11956522 	0.0083527537 	-0.0050829069 	1.0686035e-07 	0.013853219 	-1.123095e-05 	0.0027696847
0.13043478 	0.0084259493 	-0.0055424002 	-2.6242162e-07 	0.0138538 	-2.7660022e-05 	0.0020476636
0.14130435 	0.0084795059 	-0.0060037882 	-6.5955302e-07 	0.013824676 	-3.2975384e-07 	0.00029550562
0.15217391 	0.008461075 	-0.0064724058 	-4.7157658e-07 	0.013723296 	-3.3755318e-05 	0.00067253589
0.16304348 	0.0084233711 	-0.0069321042 	1.4172139e-07 	0.013586257 	-1.0597554e-05 	2.7321695e-05
0.17391304 	0.0083210979 	-0.0073679613 	3.9133393e-07 	0.013360468 	-2.9262924e-05 	0.00062722421
0.18478261 	0.0081845924 	-0.0077823624 	9.0378754e-07 	0.013091941 	-1.0736237e-05 	0.0011602808
0.19565217 	0.0079847543 	-0.0081360825 	2.3548909e-06 	0.012719724 	-2.7974127e-05 	0.00168985
0.20652174 	0.0077486827 	-0.0084660274 	6.4571593e-07 	0.012310124 	-3.1871144e-06 	0.002048733
0.2173913 	0.007455867 	-0.00867085 	6.7780528e-06 	0.011791839 	-3.3455005e-05 	0.0024984707
0.22826087 	0.007141461 	-0.0088444561 	-2.1291761e-06 	0.011234298 	-3.585186e-07 	0.0004794699
0.23913043 	0.0067828536 	-0.008896535 	1.3135363e-05 	0.010634855 	-3.6358542e-05 	0.0029998016
0.25 	0.0064267686 	-0.0088920743 	-2.773441e-07 	0.010002626 	-1.1672214e-07 	0.0028521302
0.26086957 	0.0060435926 	-0.0087973111 	6.1713224e-06 	0.0093423262 	-1.1171644e-05 	0.0031914008
0.27173913 	0.0056875851 	-0.0085832742 	8.876728e-06 	0.0086784357 	-1.6069108e-05 	0.0034732571
0.2826087 	0.0053360273 	-0.0083173163 	2.4512332e-07 	0.0080005173 	-1.0387077e-06 	0.00082696224
0.29347826 	0.0050205247 	-0.0079904701 	1.7385791e-05 	0.0073784005 	-2.21247e-05 	0.0033484993
0.30434783 	0.0047229039 	-0.007577394 	2.646597e-07 	0.0067517901 	-1.4385239e-07 	0.0032811375
0.31521739 	0.0044690373 	-0.0071083656 	1.5278109e-06 	0.0061503376 	-8.3042202e-07 	0.0017744348
0.32608696 	0.0042409241 	-0.0065892243 	2.3474413e-05 	0.00559875 	-2.1834428e-05 	0.0032331668
0.33695652 	0.0040287178 	-0.0059991939 	2.1081761e-06 	0.0050567115 	-6.2522571e-07 	0.0021869456
0.34782609 	0.0038552524 	-0.0053728293 	2.7909867e-06 	0.0045458391 	-8.2772814e-07 	0.0015609446
0.35869565 	0.0036897866 	-0.004753256 	2.0081712e-05 	0.0040842189 	-1.4514026e-05 	0.0029377774
0.36956522 	0.003524854 	-0.0040976643 	1.9858466e-06 	0.0036478226 	-2.8472783e-07 	0.0020892624
0.38043478 	0.0033786918 	-0.0034209009 	4.3684111e-06 	0.0032401706 	-6.2633649e-07 	0.00081762677
0.39130435 	0.0032443396 	-0.0027982893 	7.4761131e-06 	0.0028711802 	-4.6259637e-06 	0.0025219501
0.40217391 	0.0030954323 	-0.0022251896 	3.6295526e-07 	0.0025505812 	1.7782147e-08 	0.0023858579
0.41304348 	0.002943905 	-0.0016715897 	4.6647957e-06 	0.0022671642 	2.2854079e-07 	3.3071491e-05
0.42391304 	0.0028183164 	-0.0011603252 	1.0836109e-06 	0.0020075275 	5.308899e-08 	0.0016104804
0.43478261 	0.0026929749 	-0.00071986607 	6.5046092e-06 	0.0017865905 	-3.7875641e-06 	0.0021197338
0.44565217 	0.0025747712 	-0.00034802083 	1.2383793e-06 	0.0016111059 	5.1740637e-07 	0.0010486088
0.45652174 	0.002468412 	-7.1502138e-06 	1.8105404e-06 	0.0014565511 	7.564606e-07 	0.00045701092
0.4673913 	0.0023752291 	0.00031774847 	1.6268053e-07 	0.0013101915 	6.7969434e-08 	0.0016639544
0.47826087 	0.0022870894 	0.00052974396 	3.4492365e-07 	0.0012344647 	-1.7763069e-07 	0.0018078447
0.48913043 	0.0022098419 	0.00062706287 	5.2165165e-07 	0.0012466875 	7.3978195e-07 	0.00061833427
0.5 	0.0021381881 	0.00071944988 	5.3498887e-07 	0.001262576 	7.5869616e-07 	0.00051738325
0.51086957 	0.0020715767 	0.00081143955 	2.6647295e-08 	0.0012785788 	3.7789947e-08 	0.0015379485
0.52173913 	0.0020436166 	0.00084475506 	1.9429675e-08 	0.0013108026 	8.0073336e-08 	0.0014385544
0.5326087 	0.0020487455 	0.00083511347 	1.4124438e-07 	0.0013610568 	5.8209458e-07 	0.0003900378
0.54347826 	0.0020571673 	0.00082539485 	1.0846343e-07 	0.0014134441 	4.4699812e-07 	0.00069624716
0.55434783 	0.0020717776 	0.00081743995 	-5.9890444e-08 	0.0014661169 	9.0660231e-08 	0.0016650781
0.56521739 	0.0021351346 	0.00083037378 	6.5812891e-08 	0.0015101127 	1.5550246e-07 	0.0011154617
0.57608696 	0.0022167466 	0.00085122167 	1.9567996e-07 	0.0015524347 	4.6235189e-07 	1.9141962e-05
0.58695652 	0.0023055412 	0.00087283358 	5.9235136e-08 	0.0015968079 	1.3996056e-07 	0.0013638704
0.59782609 	0.0024105807 	0.00089626478 	8.9421405e-09 	0.0016412896 	1.7915485e-08 	0.0018796397
0.60869565 	0.0025517913 	0.00092339845 	1.7410156e-07 	0.001686094 	3.4881066e-07 	0.00050715312
0.61956522 	0.0026995624 	0.00095059285 	1.2662966e-07 	0.001731175 	2.5370119e-07 	0.0010896345
0.63043478 	0.0028501244 	0.00097269978 	-6.6119539e-08 	0.0017890602 	4.5431781e-07 	0.002365027
0.64130435 	0.0029968501 	0.00096641491 	5.4768006e-09 	0.0019164555 	6.6441629e-07 	0.00091704132
0.65217391 	0.0031483145 	0.00095559387 	5.6439593e-09 	0.0020534443 	6.8469509e-07 	0.0010146293
0.66304348 	0.003306345 	0.00094692634 	-4.8464653e-08 	0.0021971411 	9.8851439e-07 	0.0027544261
0.67391304 	0.0034765966 	0.00097693272 	-5.7592161e-08 	0.0023674255 	1.018349e-06 	0.0010129892
0.68478261 	0.003654416 	0.0010105036 	-5.1391794e-08 	0.0025458365 	9.0871363e-07 	0.0013825129
0.69565217 	0.0038401932 	0.0010467654 	1.6832043e-08 	0.0027326486 	9.0476608e-08 	0.0031772971
0.70652174 	0.0040373623 	0.0010997887 	8.2186186e-08 	0.0029372121 	1.320231e-06 	0.00058360154
0.7173913 	0.0042451021 	0.0011531998 	3.2144713e-08 	0.0031535667 	5.1636959e-07 	0.0024767449
0.72826087 	0.0044606981 	0.0012102738 	5.1499059e-08 	0.0033795892 	4.9759675e-07 	0.0025341811
0.73913043 	0.0046836859 	0.0012711303 	1.3577088e-07 	0.0036163398 	1.3118521e-06 	0.00081929589
0.75 	0.0049188161 	0.0013338981 	2.4088612e-07 	0.0038683413 	1.0345976e-06 	0.0041297752
0.76086957 	0.0051538546 	0.0013993707 	2.1370524e-07 	0.004119877 	1.3754031e-06 	0.00072978529
0.77173913 	0.0054017449 	0.0014675717 	4.9479156e-08 	0.0043905152 	3.1844697e-07 	0.0037435988
0.7826087 	0.0056440277 	0.0015357978 	1.8740534e-07 	0.0046541753 	9.7725557e-07 	0.0019800802
0.79347826 	0.0058913314 	0.001606011 	1.2710569e-07 	0.0049283817 	6.6281324e-07 	0.0031218678
0.80434783 	0.006134182 	0.0016765676 	1.6523497e-07 	0.0051971568 	7.5809497e-07 	0.0028264628
0.81521739 	0.0063744762 	0.0017482353 	1.6586533e-07 	0.0054657824 	7.6098702e-07 	0.0030590769
0.82608696 	0.0066068956 	0.0018196859 	1.798683e-07 	0.0057269191 	7.5692031e-07 	0.0029743836
0.83695652 	0.0068321555 	0.001891651 	1.3596606e-07 	0.0059840242 	5.7217125e-07 	0.0038512997
0.84782609 	0.0070353884 	0.0019602753 	2.4181223e-07 	0.0062179007 	9.6250813e-07 	0.0021116097
0.85869565 	0.0072324526 	0.0020306778 	2.7303817e-08 	0.0064554917 	1.0867997e-07 	0.0057894587
0.86956522 	0.0073781265 	0.0020892609 	3.1665591e-07 	0.0066334 	1.2348149e-06 	9.9407516e-05
0.88043478 	0.0075121248 	0.0021496969 	4.1737986e-08 	0.006818515 	1.6899402e-07 	0.0052699616
0.89130435 	0.0075873392 	0.0021968874 	8.2828716e-08 	0.0069417675 	3.3536734e-07 	0.0041652181
0.90217391 	0.0076026667 	0.0022298687 	8.2003152e-08 	0.0070055216 	4.3679453e-07 	0.00062458457
0.91304348 	0.0075665578 	0.0022545234 	-1.8037681e-08 	0.0070347138 	4.61193e-09 	0.0047580843
0.92391304 	0.0074492878 	0.0022599153 	-3.1472137e-09 	0.0069845188 	8.0468934e-10 	0.0061827831
0.93478261 	0.0072236672 	0.0022292207 	-6.7200204e-08 	0.0068252428 	-1.3050782e-07 	0.0042722943
0.94565217 	0.0068514304 	0.0021742284 	-4.9253504e-08 	0.0065341601 	-2.2700362e-07 	0.0060403309
0.95652174 	0.0062908352 	0.0020784424 	-4.1320479e-07 	0.0060432645 	-9.7273676e-07 	0.00041697414
0.9673913 	0.0054869246 	0.0019387551 	-2.0019267e-07 	0.0053277753 	-4.6277522e-07 	0.0029409602
0.97826087 	0.0043485078 	0.001723608 	-4.3789986e-07 	0.0042734339 	-9.6228129e-07 	0.00034389252
0.98913043 	0.0024343717 	0.0011281319 	-2.5016988e-07 	0.0024155228 	-5.2112604e-07 	0.00031462292
