0.47777778 	0.39775916 	-0.00039679207 	-1.8733698e-06
0.48888889 	0.75171008 	-9.3744012e-05 	-3.2156781e-06
0.5 	1.1109162 	0.00048034064 	-3.2620312e-06
0.51111111 	1.368572 	0.00074476518 	-2.8978496e-06
0.52222222 	1.4966433 	0.00092995668 	-7.4044921e-06
0.53333333 	1.5380616 	0.00093437176 	-1.1993607e-06
0.54444444 	1.5439423 	0.00082798611 	-8.036215e-07
0.55555556 	1.5414958 	0.00070743519 	-2.7008587e-06
0.56666667 	1.537649 	0.00057780375 	-3.0036667e-06
0.57777778 	1.5333699 	0.00046234955 	-2.0592784e-06
0.58888889 	1.5286304 	0.00033351777 	-1.7102654e-07
0.6 	1.5227633 	0.00023168304 	-9.2735633e-07
0.61111111 	1.5142441 	0.00010638545 	-4.1134273e-06
0.62222222 	1.5024873 	3.3066304e-06 	-6.4186171e-06
0.63333333 	1.488222 	-9.2056585e-05 	-1.8443187e-06
0.64444444 	1.4705551 	-0.0002134739 	-1.3884501e-06
0.65555556 	1.4548333 	-0.00031856556 	-5.8164877e-06
0.66666667 	1.4417484 	-0.00040727436 	-1.2044108e-06
0.67777778 	1.4331129 	-0.00045765347 	-2.7762714e-06
0.68888889 	1.4260053 	-0.00046201283 	-3.50737e-06
0.7 	1.4201981 	-0.00043948319 	-1.0876679e-06
0.71111111 	1.414973 	-0.00036408885 	-4.4677717e-06
0.72222222 	1.4102318 	-0.00029227621 	-4.381513e-07
0.73333333 	1.405394 	-0.00020095564 	-4.4029485e-06
0.74444444 	1.4006005 	-0.00012226048 	-3.2828216e-07
0.75555556 	1.3952632 	-2.3430405e-05 	-4.0395097e-06
0.76666667 	1.389605 	7.2068477e-05 	7.0117811e-08
0.77777778 	1.382853 	0.00012208083 	-3.8142592e-06
0.78888889 	1.3756088 	0.00016015705 	-2.5574082e-07
0.8 	1.3675574 	0.00012731954 	-1.9372805e-06
0.81111111 	1.3592468 	0.00011236593 	-1.4695713e-06
0.82222222 	1.3506427 	0.00011210822 	-8.5705597e-08
0.83333333 	1.3415678 	9.6992471e-05 	-1.9057127e-06
0.84444444 	1.3317625 	8.0352179e-05 	-1.3958789e-06
0.85555556 	1.3211286 	6.8039838e-05 	-1.0341682e-07
0.86666667 	1.3094471 	7.1994563e-05 	-4.5978152e-07
0.87777778 	1.2964994 	7.3849073e-05 	-1.1278913e-06
0.88888889 	1.2820678 	7.7914603e-05 	-1.464677e-06
0.9 	1.265851 	8.4457134e-05 	-1.4687652e-06
0.91111111 	1.2475604 	9.1054322e-05 	-1.3121214e-06
0.92222222 	1.2267864 	9.4875025e-05 	-1.0118435e-06
0.93333333 	1.202859 	9.2118947e-05 	-5.1470942e-07
0.94444444 	1.1747433 	8.7532462e-05 	-1.5233489e-08
0.95555556 	1.1399552 	6.8846037e-05 	-4.5702105e-07
0.96666667 	1.0944188 	5.6696126e-05 	-1.4136872e-08
0.97777778 	1.0262736 	3.0189704e-05 	-1.2088913e-07
0.98888889 	0.88076336 	-2.5360578e-05 	-2.7981417e-08
