/*--------------------------------*- C++ -*----------------------------------*\
  =========                 |
  \\      /  F ield         | OpenFOAM: The Open Source CFD Toolbox
   \\    /   O peration     | Website:  https://openfoam.org
    \\  /    A nd           | Version:  7
     \\/     M anipulation  |
\*---------------------------------------------------------------------------*/
FoamFile
{
    version     2.0;
    format      ascii;
    class       surfaceScalarField;
    location    "2000";
    object      phi;
}
// * * * * * * * * * * * * * * * * * * * * * * * * * * * * * * * * * * * * * //

dimensions      [0 3 -1 0 0 0 0];

internalField   nonuniform List<scalar> 
30289
(
4.5728713e-07
5.7357416e-09
4.5163174e-07
5.6553906e-09
4.4601203e-07
5.619703e-09
4.4043515e-07
5.5768825e-09
4.3490037e-07
5.5347823e-09
4.2940171e-07
5.4986568e-09
4.2393547e-07
5.466239e-09
4.1849972e-07
5.4357574e-09
4.1309323e-07
5.4064855e-09
4.077155e-07
5.3777343e-09
4.0236657e-07
5.3489248e-09
3.9704684e-07
5.3197331e-09
3.9175681e-07
5.2900296e-09
3.86497e-07
5.2598091e-09
3.8126783e-07
5.2291644e-09
3.7606956e-07
5.1982701e-09
3.7090219e-07
5.1673734e-09
3.6576539e-07
5.1367987e-09
3.6065842e-07
5.1069678e-09
3.5557999e-07
5.0784367e-09
3.5052803e-07
5.051954e-09
3.4549948e-07
5.0285488e-09
3.4048982e-07
5.0096666e-09
3.3549245e-07
4.9973646e-09
3.3049781e-07
4.9946401e-09
3.2549195e-07
5.0058676e-09
3.2045424e-07
5.0377016e-09
3.1535419e-07
5.1000568e-09
3.1014504e-07
5.2091477e-09
3.0475557e-07
5.3894645e-09
2.9906888e-07
5.6866914e-09
2.9289823e-07
6.1706509e-09
2.8589763e-07
7.0006004e-09
2.7748757e-07
8.4100604e-09
2.6623289e-07
1.1254685e-08
2.4892313e-07
1.7309756e-08
2.1650887e-07
3.2414264e-08
3.6999153e-09
2.1280895e-07
1.3718585e-06
2.2959215e-08
1.3548909e-06
2.2623006e-08
1.3380318e-06
2.2478811e-08
1.3213011e-06
2.2307551e-08
1.3046968e-06
2.2139176e-08
1.2882008e-06
2.1994633e-08
1.2718021e-06
2.186492e-08
1.2554949e-06
2.1742964e-08
1.2392755e-06
2.162585e-08
1.2231424e-06
2.1510825e-08
1.2070958e-06
2.1395572e-08
1.1911367e-06
2.1278796e-08
1.1752668e-06
2.1159975e-08
1.1594875e-06
2.1039088e-08
1.1438002e-06
2.0916501e-08
1.1282055e-06
2.0792911e-08
1.1127036e-06
2.0669302e-08
1.0972934e-06
2.0546965e-08
1.0819728e-06
2.0427581e-08
1.0667379e-06
2.0313365e-08
1.0515825e-06
2.0207299e-08
1.0364976e-06
2.0113483e-08
1.0214696e-06
2.0037673e-08
1.0064789e-06
1.9988062e-08
9.9149696e-07
1.997658e-08
9.764822e-07
2.002063e-08
9.6137322e-07
2.0146676e-08
9.4607917e-07
2.0394106e-08
9.30461e-07
2.0827315e-08
9.1430709e-07
2.1543374e-08
8.9727032e-07
2.2723469e-08
8.7879701e-07
2.4643954e-08
8.5786042e-07
2.7937197e-08
8.327639e-07
3.3506583e-08
7.9930369e-07
4.4714888e-08
7.4823562e-07
6.8377827e-08
6.5187063e-07
1.2877926e-07
-2.2029639e-08
6.7760018e-07
2.2864185e-06
5.1685659e-08
2.2581365e-06
5.0905029e-08
2.2300378e-06
5.0577477e-08
2.2021533e-06
5.0192003e-08
2.1744794e-06
4.9813107e-08
2.1469863e-06
4.9487769e-08
2.1196554e-06
4.9195816e-08
2.092477e-06
4.892134e-08
2.0654451e-06
4.8657773e-08
2.038557e-06
4.8398919e-08
2.011813e-06
4.8139569e-08
1.985215e-06
4.7876803e-08
1.9587655e-06
4.7609445e-08
1.9324672e-06
4.7337438e-08
1.9063221e-06
4.7061605e-08
1.8803315e-06
4.6783502e-08
1.8544954e-06
4.6505331e-08
1.8288124e-06
4.6229987e-08
1.8032788e-06
4.5961232e-08
1.7778881e-06
4.570403e-08
1.7526303e-06
4.5465062e-08
1.7274903e-06
4.5253513e-08
1.7024457e-06
4.508228e-08
1.6774641e-06
4.4969705e-08
1.6524981e-06
4.4942503e-08
1.6274791e-06
4.5039614e-08
1.6023056e-06
4.5320238e-08
1.5768273e-06
4.5872396e-08
1.5508146e-06
4.6839974e-08
1.5239186e-06
4.843938e-08
1.4955673e-06
5.1074832e-08
1.4648512e-06
5.5360032e-08
1.4300824e-06
6.270598e-08
1.3884911e-06
7.5097877e-08
1.3332045e-06
1.0000151e-07
1.2493907e-06
1.5219161e-07
1.0899264e-06
2.8824359e-07
-2.8138745e-08
1.0960355e-06
3.2009583e-06
9.1917951e-08
3.1613594e-06
9.0503892e-08
3.1220209e-06
8.9916019e-08
3.0829827e-06
8.9230128e-08
3.0442395e-06
8.8556311e-08
3.0057496e-06
8.7977694e-08
2.9674869e-06
8.7458482e-08
2.9294379e-06
8.6970384e-08
2.891594e-06
8.6501709e-08
2.8539514e-06
8.6041444e-08
2.8165107e-06
8.5580328e-08
2.7792743e-06
8.5113162e-08
2.7422459e-06
8.4637843e-08
2.7054291e-06
8.4154265e-08
2.6688268e-06
8.3663878e-08
2.6324409e-06
8.316943e-08
2.5962714e-06
8.2674821e-08
2.5603162e-06
8.2185168e-08
2.5245703e-06
8.1707132e-08
2.4890248e-06
8.1249496e-08
2.4536658e-06
8.0824088e-08
2.4184722e-06
8.0447162e-08
2.3834129e-06
8.0141546e-08
2.3484429e-06
7.9939697e-08
2.3134965e-06
7.9888871e-08
2.2784782e-06
8.0057917e-08
2.243247e-06
8.0551488e-08
2.2075944e-06
8.1525015e-08
2.1712018e-06
8.3232592e-08
2.1335856e-06
8.6055515e-08
2.0939538e-06
9.0706639e-08
2.0510505e-06
9.8263367e-08
2.0025433e-06
1.1121318e-07
1.944638e-06
1.3300318e-07
1.8678834e-06
1.7675611e-07
1.7523792e-06
2.6769576e-07
1.5307615e-06
5.0986131e-07
-2.589783e-09
1.5052125e-06
4.1154696e-06
1.4366132e-07
4.0645507e-06
1.4142281e-07
4.0139719e-06
1.4049477e-07
3.9637804e-06
1.3942166e-07
3.9139684e-06
1.3836835e-07
3.8644822e-06
1.3746383e-07
3.8152885e-06
1.3665225e-07
3.7663695e-06
1.3588937e-07
3.7177143e-06
1.3515689e-07
3.6693181e-06
1.3443761e-07
3.6211814e-06
1.3371705e-07
3.5733075e-06
1.3298707e-07
3.525701e-06
1.3224437e-07
3.4783665e-06
1.3148878e-07
3.4313078e-06
1.3072253e-07
3.3845273e-06
1.299499e-07
3.3380252e-06
1.2917695e-07
3.2917987e-06
1.2841163e-07
3.2458416e-06
1.2766432e-07
3.2001424e-06
1.2694865e-07
3.1546834e-06
1.2628304e-07
3.1094378e-06
1.2569277e-07
3.064366e-06
1.2521335e-07
3.0194105e-06
1.2489525e-07
2.9744874e-06
1.2481194e-07
2.9294749e-06
1.2507043e-07
2.8841931e-06
1.2583331e-07
2.8383763e-06
1.2734183e-07
2.7916185e-06
1.2999041e-07
2.7433044e-06
1.3436957e-07
2.6924267e-06
1.4158436e-07
2.6373925e-06
1.5329757e-07
2.5752412e-06
1.7336442e-07
2.5012054e-06
2.0703904e-07
2.4033454e-06
2.7461606e-07
2.2572991e-06
4.1374206e-07
1.9745634e-06
7.9259703e-07
5.8179104e-08
1.9137945e-06
8.1231557e-06
2.4581028e-07
8.0226265e-06
2.4195201e-07
7.9227908e-06
2.4033045e-07
7.8237222e-06
2.384902e-07
7.7254032e-06
2.3668737e-07
7.6277282e-06
2.3513884e-07
7.5306308e-06
2.337496e-07
7.4340762e-06
2.3244403e-07
7.3380425e-06
2.3119062e-07
7.2425201e-06
2.2995994e-07
7.14751e-06
2.287272e-07
7.0530186e-06
2.2747845e-07
6.959055e-06
2.26208e-07
6.8656283e-06
2.249155e-07
6.772746e-06
2.2360474e-07
6.680413e-06
2.2228298e-07
6.5886294e-06
2.2096049e-07
6.4973903e-06
2.1965078e-07
6.4066832e-06
2.1837143e-07
6.3164862e-06
2.1714563e-07
6.2267646e-06
2.1600465e-07
6.1374659e-06
2.1499144e-07
6.0485129e-06
2.1416632e-07
5.9597932e-06
2.1361499e-07
5.8711429e-06
2.1346219e-07
5.7823239e-06
2.1388941e-07
5.6929849e-06
2.1517238e-07
5.6026071e-06
2.1771964e-07
5.5103985e-06
2.2219894e-07
5.415161e-06
2.2960709e-07
5.3149347e-06
2.4181063e-07
5.2066305e-06
2.6160183e-07
5.0845091e-06
2.9548578e-07
4.9394512e-06
3.5209695e-07
4.7484838e-06
4.655835e-07
4.4670477e-06
6.9517816e-07
3.9161067e-06
1.343538e-06
2.690745e-07
3.7052113e-06
1.178517e-05
3.9408437e-07
1.1639281e-05
3.8784054e-07
1.1494432e-05
3.8517963e-07
1.1350702e-05
3.8222026e-07
1.1208062e-05
3.7932797e-07
1.1066357e-05
3.7684346e-07
1.0925491e-05
3.7461508e-07
1.0785414e-05
3.7252153e-07
1.0646093e-05
3.7051195e-07
1.0507513e-05
3.6853908e-07
1.0369678e-05
3.6656317e-07
1.0232594e-05
3.6456179e-07
1.0096276e-05
3.6252573e-07
9.9607376e-06
3.6045436e-07
9.8259886e-06
3.5835367e-07
9.6920365e-06
3.5623516e-07
9.5588818e-06
3.5411517e-07
9.4265174e-06
3.5201516e-07
9.2949258e-06
3.4996306e-07
9.1640757e-06
3.4799574e-07
9.0339174e-06
3.4616291e-07
8.904376e-06
3.4453285e-07
8.7753408e-06
3.4320148e-07
8.6466508e-06
3.42305e-07
8.5180714e-06
3.4204159e-07
8.3892614e-06
3.4269941e-07
8.2597178e-06
3.4471601e-07
8.1286987e-06
3.4873873e-07
7.9950722e-06
3.5582547e-07
7.8571292e-06
3.6755005e-07
7.7120778e-06
3.8686206e-07
7.5555356e-06
4.1814399e-07
7.3793547e-06
4.7166669e-07
7.1708191e-06
5.6063262e-07
6.897438e-06
7.3896452e-07
6.5008041e-06
1.0918121e-06
5.7159421e-06
2.1284001e-06
6.6047143e-07
5.3245451e-06
1.6643193e-05
6.0356504e-07
1.643711e-05
5.9392276e-07
1.6232543e-05
5.8974737e-07
1.6029565e-05
5.8519755e-07
1.5828131e-05
5.8076254e-07
1.5628021e-05
5.7695325e-07
1.5429098e-05
5.7353806e-07
1.5231289e-05
5.7033075e-07
1.5034548e-05
5.6725272e-07
1.4838856e-05
5.6423142e-07
1.4644213e-05
5.6120596e-07
1.4450633e-05
5.5814179e-07
1.4258134e-05
5.550247e-07
1.4066735e-05
5.5185359e-07
1.3876451e-05
5.4863748e-07
1.3687292e-05
5.4539382e-07
1.349926e-05
5.4214735e-07
1.3312345e-05
5.3893063e-07
1.3126522e-05
5.3578603e-07
1.2941748e-05
5.3276947e-07
1.2757954e-05
5.2995636e-07
1.2575037e-05
5.2745031e-07
1.2392842e-05
5.2539682e-07
1.2211144e-05
5.2400248e-07
1.2029618e-05
5.2356769e-07
1.1847789e-05
5.2452895e-07
1.1664956e-05
5.2754875e-07
1.1480089e-05
5.3360553e-07
1.1291616e-05
5.4429815e-07
1.109717e-05
5.6199607e-07
1.0892887e-05
5.9114494e-07
1.0672734e-05
6.3829776e-07
1.0425472e-05
7.1892857e-07
1.0133948e-05
8.5215612e-07
9.7533754e-06
1.1195374e-06
9.210982e-06
1.6342055e-06
8.1273585e-06
3.2120235e-06
1.3085893e-06
7.4792406e-06
2.3051391e-05
8.9378687e-07
2.276589e-05
8.7942408e-07
2.2482546e-05
8.7309124e-07
2.2201419e-05
8.6632458e-07
2.1922436e-05
8.5974571e-07
2.1645292e-05
8.5409656e-07
2.1369796e-05
8.4903483e-07
2.1095843e-05
8.4428352e-07
2.0823371e-05
8.3972487e-07
2.0552351e-05
8.3525121e-07
2.0282785e-05
8.3077215e-07
2.001469e-05
8.262363e-07
1.9748093e-05
8.2162238e-07
1.9483018e-05
8.1692854e-07
1.9219487e-05
8.1216793e-07
1.8957515e-05
8.0736604e-07
1.8697103e-05
8.0255918e-07
1.8438239e-05
7.9779502e-07
1.8180889e-05
7.9313564e-07
1.7924996e-05
7.8866297e-07
1.7670464e-05
7.844875e-07
1.7417154e-05
7.8076107e-07
1.7164854e-05
7.7769683e-07
1.6913259e-05
7.7559731e-07
1.6661924e-05
7.7490227e-07
1.6410203e-05
7.7625011e-07
1.6157143e-05
7.8060931e-07
1.5901341e-05
7.8940756e-07
1.5640661e-05
8.0497776e-07
1.5371895e-05
8.3076236e-07
1.508981e-05
8.7322908e-07
1.4786284e-05
9.4182374e-07
1.4446153e-05
1.0590596e-06
1.4046884e-05
1.2514258e-06
1.352784e-05
1.6385817e-06
1.2802646e-05
2.3593992e-06
1.1343399e-05
4.6712702e-06
2.3208251e-06
1.0331163e-05
3.1479511e-05
1.2749414e-06
3.1104439e-05
1.2544969e-06
3.0732192e-05
1.2453376e-06
3.0362808e-05
1.2357085e-06
2.9996181e-05
1.2263729e-06
2.9631893e-05
1.2183851e-06
2.9269675e-05
1.211253e-06
2.8909384e-05
1.2045742e-06
2.8550932e-05
1.1981766e-06
2.8194279e-05
1.191904e-06
2.7839426e-05
1.1856256e-06
2.7486396e-05
1.1792666e-06
2.7135222e-05
1.1727958e-06
2.678594e-05
1.1662102e-06
2.643858e-05
1.1595284e-06
2.6093159e-05
1.1527867e-06
2.5749681e-05
1.146037e-06
2.5408129e-05
1.1393476e-06
2.5068457e-05
1.1328074e-06
2.4730586e-05
1.1265337e-06
2.4394389e-05
1.1206848e-06
2.4059672e-05
1.1154785e-06
2.3726148e-05
1.1112202e-06
2.3393402e-05
1.1083437e-06
2.3060825e-05
1.1074791e-06
2.2727535e-05
1.1095406e-06
2.2392229e-05
1.1159145e-06
2.2052996e-05
1.1286408e-06
2.1706921e-05
1.1510529e-06
2.1349636e-05
1.1880479e-06
2.0974025e-05
1.2488399e-06
2.0569103e-05
1.3467456e-06
2.0114305e-05
1.5138577e-06
1.9580016e-05
1.7857147e-06
1.8883384e-05
2.3352139e-06
1.7924625e-05
3.3181577e-06
1.5973049e-05
6.6228465e-06
3.8667936e-06
1.442708e-05
4.2496546e-05
1.7792589e-06
4.2000106e-05
1.7509365e-06
4.150744e-05
1.7380044e-06
4.1018533e-05
1.7246151e-06
4.0533242e-05
1.711664e-06
4.0051e-05
1.7006265e-06
3.9571441e-05
1.6908122e-06
3.9094368e-05
1.6816479e-06
3.8619658e-05
1.672886e-06
3.8147257e-05
1.6643047e-06
3.7677165e-05
1.6557184e-06
3.7209411e-05
1.6470201e-06
3.6744042e-05
1.6381652e-06
3.6281103e-05
1.6291486e-06
3.5820636e-05
1.6199959e-06
3.5362664e-05
1.6107582e-06
3.4907193e-05
1.601508e-06
3.44542e-05
1.592341e-06
3.4003625e-05
1.583382e-06
3.3555364e-05
1.5747955e-06
3.3109245e-05
1.5668038e-06
3.2665011e-05
1.5597123e-06
3.2222281e-05
1.55395e-06
3.1780499e-05
1.5501256e-06
3.1338855e-05
1.5491232e-06
3.0896171e-05
1.5522244e-06
3.0450714e-05
1.5613718e-06
2.9999936e-05
1.5794186e-06
2.9539962e-05
1.6110272e-06
2.9064996e-05
1.6630133e-06
2.8565611e-05
1.7482246e-06
2.8027361e-05
1.8849958e-06
2.7423078e-05
2.1181407e-06
2.6715142e-05
2.4936511e-06
2.5792887e-05
3.2574689e-06
2.4548891e-05
4.562154e-06
2.2009523e-05
9.1622144e-06
6.1004952e-06
1.9775821e-05
5.6849379e-05
2.449333e-06
5.6189436e-05
2.4108799e-06
5.5534594e-05
2.3928459e-06
5.488474e-05
2.3744693e-06
5.4239683e-05
2.3567214e-06
5.3598669e-05
2.3416401e-06
5.2961203e-05
2.3282789e-06
5.2327016e-05
2.3158349e-06
5.1695944e-05
2.3039573e-06
5.1067913e-05
2.2923361e-06
5.0442919e-05
2.2807118e-06
4.9821005e-05
2.2689345e-06
4.920223e-05
2.2569407e-06
4.8586656e-05
2.2447226e-06
4.7974336e-05
2.2323151e-06
4.7365306e-05
2.2197881e-06
4.6759573e-05
2.2072418e-06
4.6157106e-05
2.1948078e-06
4.555783e-05
2.1826579e-06
4.4961606e-05
2.171019e-06
4.4368213e-05
2.1601971e-06
4.3777312e-05
2.1506129e-06
4.3188405e-05
2.1428573e-06
4.2600763e-05
2.1377681e-06
4.2013324e-05
2.1365621e-06
4.1424547e-05
2.1410009e-06
4.0832165e-05
2.1537543e-06
4.023285e-05
2.1787334e-06
3.9621545e-05
2.2223317e-06
3.8990716e-05
2.2938426e-06
3.8328114e-05
2.4108271e-06
3.7615158e-05
2.5979517e-06
3.6816679e-05
2.9166195e-06
3.5886142e-05
3.4241878e-06
3.4678354e-05
4.4652569e-06
3.3086026e-05
6.1544819e-06
2.9854528e-05
1.2393713e-05
9.2016422e-06
2.675338e-05
7.5501351e-05
3.3342452e-06
7.462945e-05
3.28278e-06
7.3764434e-05
3.2578625e-06
7.2905974e-05
3.2329292e-06
7.2053823e-05
3.2088721e-06
7.1206998e-05
3.1884653e-06
7.0364835e-05
3.1704418e-06
6.9526976e-05
3.1536941e-06
6.8693201e-05
3.1377319e-06
6.786341e-05
3.1221278e-06
6.7037597e-05
3.1065244e-06
6.6215817e-05
3.0907141e-06
6.539815e-05
3.0746083e-06
6.4584677e-05
3.058195e-06
6.3775472e-05
3.0415209e-06
6.2970579e-05
3.0246808e-06
6.217001e-05
3.0078105e-06
6.1373729e-05
2.991089e-06
6.0581637e-05
2.9747495e-06
5.9793557e-05
2.9590995e-06
5.90092e-05
2.9445543e-06
5.8228128e-05
2.9316842e-06
5.7449695e-05
2.9212902e-06
5.6672957e-05
2.9145071e-06
5.5896536e-05
2.9129823e-06
5.5118439e-05
2.9190984e-06
5.433573e-05
2.9364634e-06
5.3544113e-05
2.9703503e-06
5.2737065e-05
3.0293797e-06
5.1904902e-05
3.126005e-06
5.1031898e-05
3.2838317e-06
5.0094483e-05
3.5353662e-06
4.9047663e-05
3.9634397e-06
4.7834945e-05
4.6369063e-06
4.6267976e-05
6.0322251e-06
4.4248275e-05
8.1741838e-06
4.0201407e-05
1.644058e-05
1.3392543e-05
3.6010507e-05
9.9721918e-05
4.4536896e-06
9.861838e-05
4.3863181e-06
9.7523588e-05
4.3526545e-06
9.6436859e-05
4.3196583e-06
9.5357869e-05
4.2878622e-06
9.4285354e-05
4.26098e-06
9.3218438e-05
4.2373575e-06
9.2156644e-05
4.2154883e-06
9.109968e-05
4.1946959e-06
9.0047409e-05
4.1743986e-06
8.8999824e-05
4.1541097e-06
8.7956993e-05
4.1335451e-06
8.6919019e-05
4.1125822e-06
8.5886011e-05
4.0912029e-06
8.4858063e-05
4.0694692e-06
8.3835236e-05
4.0475077e-06
8.2817545e-05
4.0255012e-06
8.1804944e-05
4.0036901e-06
8.0797306e-05
3.9823877e-06
7.9794398e-05
3.9620075e-06
7.8795845e-05
3.943107e-06
7.7801077e-05
3.9264524e-06
7.6809249e-05
3.9131186e-06
7.5819128e-05
3.9046283e-06
7.4828919e-05
3.9031906e-06
7.3836021e-05
3.9119965e-06
7.2836609e-05
3.9358757e-06
7.1825091e-05
3.9818679e-06
7.0792988e-05
4.0614828e-06
6.9727757e-05
4.1912367e-06
6.860903e-05
4.4025588e-06
6.7406706e-05
4.7376895e-06
6.6062687e-05
5.3074593e-06
6.4508276e-05
6.1913169e-06
6.2497442e-05
8.043059e-06
5.9947722e-05
1.0723904e-05
5.4901294e-05
2.1487008e-05
1.9021065e-05
4.9272773e-05
0.00013103809
5.8855161e-06
0.00012962563
5.7987803e-06
0.00012822467
5.7536073e-06
0.00012683384
5.7104949e-06
0.00012545265
5.6690468e-06
0.00012407954
5.6340946e-06
0.00012271335
5.6035442e-06
0.00012135346
5.5753768e-06
0.00011999949
5.5486669e-06
0.00011865126
5.5226315e-06
0.00011730875
5.4966163e-06
0.00011597206
5.4702365e-06
0.00011464132
5.4433244e-06
0.00011331667
5.4158535e-06
0.00011199823
5.3879047e-06
0.00011068609
5.3596461e-06
0.00010938027
5.3313205e-06
0.00010808072
5.3032482e-06
0.00010678726
5.2758459e-06
0.0001054996
5.2496634e-06
0.00010421727
5.2254418e-06
0.00010293952
5.2041989e-06
0.00010166528
5.187362e-06
0.00010039295
5.1769515e-06
9.9120249e-05
5.1758965e-06
9.7843822e-05
5.1884229e-06
9.6558777e-05
5.2209207e-06
9.5257965e-05
5.2826798e-06
9.3930566e-05
5.3888825e-06
9.2560633e-05
5.561169e-06
9.1122313e-05
5.8408792e-06
8.957795e-05
6.2820521e-06
8.7854124e-05
7.0312859e-06
8.5869466e-05
8.1759742e-06
8.3311594e-05
1.0600931e-05
8.012034e-05
1.3915158e-05
7.3970876e-05
2.7636472e-05
2.6392853e-05
6.6599087e-05
0.0002349546
8.3753985e-06
0.00023249116
8.2622175e-06
0.00023004941
8.195361e-06
0.00022762514
8.1347664e-06
0.00022521703
8.077157e-06
0.00022282256
8.028557e-06
0.00022043975
7.9863556e-06
0.00021806744
7.9476872e-06
0.00021570496
7.9111499e-06
0.00021335199
7.8756013e-06
0.00021100851
7.8400952e-06
0.00020867468
7.8040683e-06
0.00020635073
7.7672708e-06
0.00020403693
7.72966e-06
0.00020173348
7.6913492e-06
0.00019944055
7.6525785e-06
0.00019715817
7.6136962e-06
0.00019488626
7.5751616e-06
0.00019262453
7.5375727e-06
0.00019037248
7.5017169e-06
0.00018812927
7.4686551e-06
0.00018589362
7.4398423e-06
0.00018366367
7.417317e-06
0.00018143666
7.4039619e-06
0.0001792086
7.403949e-06
0.00017697374
7.4232903e-06
0.00017472361
7.4710513e-06
0.0001724459
7.5603892e-06
0.00017012207
7.7127126e-06
0.00016772482
7.9584171e-06
0.0001652103
8.3554017e-06
0.00016251505
8.9772954e-06
0.00015951658
1.0029758e-05
0.00015608439
1.1608167e-05
0.00015170756
1.4977759e-05
0.00014629649
1.9326228e-05
0.00013648837
3.744459e-05
3.9887397e-05
0.00012299383
0.0003009205
1.1389834e-05
0.00029793668
1.1246039e-05
0.00029497931
1.1152725e-05
0.00029204265
1.1071435e-05
0.00028912464
1.0995159e-05
0.00028622226
1.0930941e-05
0.00028333296
1.0875651e-05
0.00028045528
1.0825374e-05
0.00027758834
1.0778086e-05
0.00027473175
1.0732191e-05
0.00027188547
1.0686375e-05
0.00026904969
1.0639846e-05
0.00026622472
1.0592247e-05
0.00026341087
1.0543513e-05
0.00026060842
1.0493796e-05
0.00025781757
1.0443425e-05
0.00025503839
1.0392879e-05
0.00025227076
1.0342792e-05
0.00024951434
1.0293986e-05
0.00024676851
1.0247547e-05
0.00024403224
1.0204931e-05
0.00024130394
1.0168139e-05
0.00023858129
1.0139965e-05
0.0002358609
1.0124359e-05
0.00023313782
1.0127028e-05
0.00023040492
1.0156183e-05
0.0002276518
1.0224172e-05
0.00022486332
1.0348878e-05
0.00022201674
1.0559291e-05
0.00021907883
1.0896324e-05
0.00021599624
1.1437996e-05
0.00021269351
1.2280023e-05
0.00020902264
1.3700628e-05
0.0002048362
1.5794605e-05
0.00019953421
2.0279745e-05
0.00019304567
2.5814775e-05
0.0001818894
4.8600853e-05
5.5801485e-05
0.00016597532
0.00037869231
1.4968752e-05
0.00037514844
1.4789902e-05
0.00037163567
1.46655e-05
0.00036814702
1.4560086e-05
0.00036467968
1.4462501e-05
0.00036122993
1.4380683e-05
0.00035779461
1.431098e-05
0.00035437179
1.4248187e-05
0.0003509604
1.418948e-05
0.0003475599
1.4132691e-05
0.00034417023
1.4076043e-05
0.00034079162
1.4018454e-05
0.00033742444
1.395943e-05
0.00033406908
1.389887e-05
0.0003307259
1.3836973e-05
0.00032739516
1.3774174e-05
0.00032407692
1.3711113e-05
0.00032077108
1.3648635e-05
0.00031747723
1.3587839e-05
0.0003141946
1.3530173e-05
0.00031092195
1.3477578e-05
0.00030765738
1.3432713e-05
0.00030439805
1.3399295e-05
0.00030113984
1.3382563e-05
0.0002978768
1.3390078e-05
0.00029460028
1.3432697e-05
0.00029129774
1.3526712e-05
0.00028795098
1.3695639e-05
0.00028453276
1.3977514e-05
0.00028100356
1.442552e-05
0.00027729985
1.5141708e-05
0.00027333423
1.6245646e-05
0.00026893145
1.8103405e-05
0.00026392732
2.0798735e-05
0.00025764425
2.656281e-05
0.00025001715
3.3441881e-05
0.00023759589
6.1022109e-05
7.3914165e-05
0.00021948321
0.00047006911
1.9170974e-05
0.00046590837
1.8950641e-05
0.00046178477
1.8789096e-05
0.00045768953
1.8655329e-05
0.00045361857
1.8533456e-05
0.00044956734
1.8431913e-05
0.00044553185
1.8346476e-05
0.00044150966
1.8270373e-05
0.00043749939
1.8199748e-05
0.00043350037
1.8131714e-05
0.00042951249
1.806392e-05
0.00042553603
1.7994916e-05
0.00042157143
1.792403e-05
0.00041761919
1.7851116e-05
0.00041367973
1.7776425e-05
0.00040975339
1.7700518e-05
0.00040584027
1.7624228e-05
0.00040194025
1.7548655e-05
0.00039805286
1.7475232e-05
0.0003941772
1.7405837e-05
0.00039031178
1.7342994e-05
0.00038645434
1.729015e-05
0.00038260152
1.7252117e-05
0.00037874842
1.7235668e-05
0.00037488794
1.7250558e-05
0.00037100986
1.7310771e-05
0.00036709934
1.7437236e-05
0.00036313493
1.7660052e-05
0.00035908462
1.8027823e-05
0.00035490241
1.8607727e-05
0.00035051418
1.9529936e-05
0.00034582087
2.0938957e-05
0.00034061953
2.330475e-05
0.00033472768
2.6690581e-05
0.00032741451
3.387598e-05
0.00031858801
4.2268378e-05
0.00030501503
7.4595091e-05
9.4012234e-05
0.00028491696
0.00057717047
2.3976642e-05
0.00057240987
2.3711234e-05
0.00056769129
2.3507677e-05
0.0005630047
2.3341917e-05
0.00055834467
2.3193486e-05
0.00055370569
2.3070896e-05
0.00054908286
2.2969303e-05
0.00054447317
2.2880065e-05
0.0005398749
2.2798023e-05
0.00053528721
2.2719401e-05
0.00053070998
2.2641145e-05
0.00052614355
2.2561352e-05
0.00052158845
2.247913e-05
0.00051704529
2.2394276e-05
0.00051251462
2.2307096e-05
0.00050799683
2.2218306e-05
0.00050349209
2.2128966e-05
0.00049900026
2.2040482e-05
0.00049452081
2.195468e-05
0.0004900527
2.1873956e-05
0.00048559417
2.1801519e-05
0.00048114257
2.1741747e-05
0.00047669395
2.170074e-05
0.00047224254
2.1687075e-05
0.00046778003
2.1713076e-05
0.00046329443
2.1796371e-05
0.00045876838
2.1963284e-05
0.00045417692
2.2251509e-05
0.00044948289
2.2721853e-05
0.00044463338
2.3457236e-05
0.00043954304
2.4620281e-05
0.00043410094
2.6381058e-05
0.00042807558
2.933011e-05
0.00042126557
3.3500589e-05
0.00041290816
4.2233391e-05
0.00040284119
5.2335347e-05
0.00038822127
8.9215015e-05
0.00011590916
0.00036632434
0.00070237961
2.930757e-05
0.00069709843
2.8992416e-05
0.00069186315
2.8742955e-05
0.00068666203
2.8543041e-05
0.00068148806
2.8367451e-05
0.00067633484
2.8224122e-05
0.00067119659
2.8107544e-05
0.00066606971
2.8006948e-05
0.00066095215
2.7915582e-05
0.00065584295
2.7828603e-05
0.00065074198
2.7742118e-05
0.00064564965
2.7653682e-05
0.00064056664
2.7562141e-05
0.00063549369
2.7467218e-05
0.0006304315
2.7369292e-05
0.00062538055
2.7269257e-05
0.00062034107
2.7168446e-05
0.00061531292
2.7068627e-05
0.00061029551
2.6972091e-05
0.00060528763
2.6881841e-05
0.00060028725
2.6801891e-05
0.00059529129
2.673771e-05
0.00059029513
2.66969e-05
0.00058529207
2.6690135e-05
0.00058027243
2.6732721e-05
0.0005752223
2.6846498e-05
0.00057012158
2.7064007e-05
0.00056494147
2.7431619e-05
0.00055963923
2.8024086e-05
0.0005541546
2.8941873e-05
0.00054839037
3.0384503e-05
0.0005422232
3.254823e-05
0.00053539462
3.6158695e-05
0.00052768527
4.1209938e-05
0.00051830793
5.1610725e-05
0.00050699881
6.364447e-05
0.00049146247
0.00010475135
0.00013934856
0.00046802307
0.00084824782
3.5183075e-05
0.00084242994
3.4810301e-05
0.0008366642
3.450869e-05
0.00083093618
3.4271065e-05
0.0008252363
3.4067335e-05
0.00081955666
3.3903754e-05
0.00081389043
3.3773782e-05
0.00080823322
3.3664149e-05
0.00080258266
3.3566149e-05
0.00079693762
3.3473643e-05
0.00079129799
3.3381748e-05
0.0007856643
3.3287374e-05
0.00078003738
3.3189053e-05
0.00077441817
3.3086427e-05
0.00076880751
3.2979956e-05
0.00076320602
3.2870751e-05
0.000757614
3.2760464e-05
0.00075203134
3.2651288e-05
0.00074645737
3.2546057e-05
0.00074089073
3.2448479e-05
0.00073532912
3.2363501e-05
0.00072976898
3.229785e-05
0.00072420502
3.2260859e-05
0.00071862955
3.2265604e-05
0.00071303147
3.2330801e-05
0.00070739489
3.2483082e-05
0.00070169686
3.276204e-05
0.00069590466
3.3223811e-05
0.00068996995
3.3958804e-05
0.00068382506
3.508676e-05
0.00067736145
3.6848109e-05
0.00067044322
3.9466462e-05
0.00066279103
4.3810883e-05
0.00065416344
4.9837527e-05
0.00064376498
6.2009185e-05
0.00063122678
7.6182672e-05
0.00061491833
0.0001210598
0.00016389983
0.00059036706
0.0010178291
4.1517141e-05
0.0010115566
4.108276e-05
0.001005341
4.0724305e-05
0.00099916662
4.0445459e-05
0.00099302136
4.0212601e-05
0.00098689549
4.0029627e-05
0.00098078069
3.9888577e-05
0.0009746716
3.9773241e-05
0.00096856526
3.9672482e-05
0.00096246036
3.9578551e-05
0.00095635674
3.9485363e-05
0.00095025506
3.9389052e-05
0.00094415635
3.9287771e-05
0.00093806171
3.9181061e-05
0.00093197219
3.906948e-05
0.00092588855
3.8954387e-05
0.0009198112
3.8837812e-05
0.00091374006
3.8722434e-05
0.00090767439
3.8611721e-05
0.00090161268
3.851019e-05
0.00089555233
3.8423857e-05
0.00088948929
3.8360887e-05
0.00088341757
3.8332584e-05
0.00087732842
3.8354752e-05
0.00087120926
3.8449963e-05
0.00086504209
3.8650252e-05
0.00085880101
3.9003117e-05
0.00085244925
3.9575569e-05
0.00084593269
4.0475365e-05
0.00083917615
4.1843301e-05
0.00083206023
4.3964027e-05
0.00082443545
4.7091246e-05
0.00081600867
5.2237664e-05
0.00080650191
5.9344283e-05
0.00079514343
7.3367671e-05
0.00078145606
8.9870033e-05
0.00076452855
0.00013798732
0.00018913987
0.00073928852
0.0012144451
4.8203987e-05
0.0012078301
4.7697798e-05
0.0012012788
4.7275552e-05
0.0011947724
4.6951889e-05
0.0011882953
4.6689738e-05
0.0011818355
4.6489398e-05
0.0011753832
4.634084e-05
0.001168932
4.6224457e-05
0.0011624783
4.6126197e-05
0.0011560205
4.6036343e-05
0.0011495585
4.5947374e-05
0.0011430931
4.5854503e-05
0.0011366254
4.5755427e-05
0.0011301569
4.5649563e-05
0.0011236888
4.5537582e-05
0.001117222
4.5421134e-05
0.0011107572
4.5302678e-05
0.0011042942
4.5185462e-05
0.0010978322
4.5073671e-05
0.0010913696
4.497275e-05
0.0010849036
4.4889928e-05
0.0010784295
4.4834995e-05
0.0010719406
4.4821478e-05
0.0010654271
4.4868249e-05
0.0010588748
4.5002193e-05
0.0010522637
4.5261369e-05
0.0010455648
4.5702039e-05
0.0010387372
4.6403203e-05
0.001031721
4.7491549e-05
0.0010244335
4.9130787e-05
0.0010167455
5.1651994e-05
0.0010084931
5.5343717e-05
0.00099937795
6.135278e-05
0.00098907407
6.9648158e-05
0.00097688711
8.5554638e-05
0.00096217392
0.00010458322
0.00094480059
0.00015536064
0.00021458783
0.00091935263
0.0014418547
5.4992782e-05
0.0014351427
5.440983e-05
0.0014284976
5.3920623e-05
0.0014218984
5.3551055e-05
0.0014153263
5.3261831e-05
0.001408767
5.304874e-05
0.001402209
5.2898848e-05
0.0013956448
5.2788626e-05
0.0013890704
5.2700598e-05
0.0013824841
5.2622692e-05
0.0013758857
5.2545716e-05
0.0013692764
5.246382e-05
0.0013626577
5.2374182e-05
0.0013560311
5.2276087e-05
0.0013493984
5.2170344e-05
0.0013427606
5.2058945e-05
0.0013361184
5.1944851e-05
0.0013294719
5.1831962e-05
0.0013228203
5.1725282e-05
0.0013161617
5.1631304e-05
0.001309493
5.1558626e-05
0.0013028092
5.1518862e-05
0.0012961026
5.1528023e-05
0.0012893625
5.1608396e-05
0.001282573
5.1791657e-05
0.0012757119
5.2122516e-05
0.001268747
5.2666859e-05
0.0012616335
5.3516791e-05
0.0012543056
5.4819367e-05
0.0012466732
5.6763218e-05
0.0012385984
5.9726753e-05
0.0012299022
6.4039954e-05
0.001220288
7.0966956e-05
0.0012093856
8.0550641e-05
0.0011966238
9.8316379e-05
0.0011810803
0.00012012674
0.0011635061
0.00017293485
0.00023968793
0.001138406
0.0017040618
6.1749839e-05
0.0016973954
6.1076262e-05
0.0016908034
6.0512592e-05
0.0016842601
6.009434e-05
0.0016777418
5.9780095e-05
0.0016712308
5.9559771e-05
0.0016647136
5.941609e-05
0.0016581814
5.9320758e-05
0.0016516298
5.9252237e-05
0.0016450569
5.9195614e-05
0.0016384629
5.9139727e-05
0.0016318492
5.9077521e-05
0.0016252177
5.9005602e-05
0.0016185707
5.8923127e-05
0.0016119099
5.8831091e-05
0.001605237
5.8731899e-05
0.0015985527
5.86291e-05
0.0015918574
5.852734e-05
0.0015851501
5.8432557e-05
0.001578429
5.835242e-05
0.0015716905
5.8297053e-05
0.0015649293
5.8280096e-05
0.001558137
5.8320303e-05
0.0015513017
5.8443719e-05
0.0015444061
5.8687257e-05
0.0015374257
5.9102885e-05
0.0015303257
5.9766889e-05
0.001523057
6.0785525e-05
0.001515549
6.2327325e-05
0.0015077044
6.4607831e-05
0.0014993791
6.8052089e-05
0.00149038
7.3038978e-05
0.0014804193
8.0927696e-05
0.0014690883
9.188165e-05
0.0014559499
0.00011145477
0.0014398164
0.00013626027
0.0014223162
0.00019043498
0.00026383825
0.0013981659
0.0020056693
6.8290892e-05
0.0019992379
6.7507659e-05
0.0019928925
6.6857977e-05
0.0019866012
6.6385636e-05
0.0019803343
6.6047003e-05
0.0019740692
6.5824848e-05
0.0019677898
6.5695515e-05
0.0019614858
6.562473e-05
0.001955152
6.5586104e-05
0.0019487863
6.5561238e-05
0.0019423895
6.5536618e-05
0.0019359632
6.5503811e-05
0.00192951
6.5458787e-05
0.0019230325
6.5400585e-05
0.0019165332
6.5330442e-05
0.0019100138
6.5251263e-05
0.0019034756
6.5167283e-05
0.001896919
6.5084002e-05
0.0018903431
6.5008407e-05
0.0018837461
6.4949476e-05
0.0018771241
6.4919018e-05
0.0018704713
6.4932892e-05
0.0018637788
6.5012843e-05
0.0018570335
6.5188993e-05
0.0018502168
6.5503911e-05
0.0018433023
6.6017364e-05
0.0018362525
6.6816705e-05
0.0018290148
6.8023268e-05
0.0018215144
6.9827756e-05
0.0018136477
7.2474493e-05
0.001805267
7.6432831e-05
0.0017961676
8.2138378e-05
0.0017860777
9.1017515e-05
0.0017745562
0.00010340317
0.0017613229
0.0001246881
0.0017450229
0.00015256024
0.0017278492
0.00020760876
0.0002864802
0.0017052072
0.0023518441
7.418901e-05
0.0023460751
7.3276591e-05
0.0023404036
7.2529493e-05
0.0023347912
7.1998084e-05
0.0023292017
7.1636479e-05
0.0023236071
7.1419423e-05
0.0023179882
7.1314401e-05
0.0023123333
7.1279699e-05
0.0023066361
7.1283255e-05
0.0023008949
7.1302461e-05
0.0022951105
7.1321013e-05
0.0022892854
7.1328927e-05
0.0022834227
7.1321488e-05
0.0022775256
7.1297636e-05
0.0022715971
7.1258933e-05
0.0022656395
7.120888e-05
0.0022596543
7.1152507e-05
0.002253642
7.1096285e-05
0.0022476021
7.1048367e-05
0.0022415324
7.1019174e-05
0.002235429
7.1022349e-05
0.0022292858
7.1076155e-05
0.0022230931
7.1205556e-05
0.002216837
7.1445041e-05
0.0022104977
7.1843201e-05
0.002204047
7.2468077e-05
0.0021974451
7.3418621e-05
0.0021906363
7.4832022e-05
0.0021835427
7.6921415e-05
0.0021760556
7.9961551e-05
0.0021680262
8.4462244e-05
0.0021592411
9.0923474e-05
0.0021494522
0.00010080645
0.0021381927
0.00011466266
0.0021253479
0.00013753285