0.4709558481 	2.352045121e-07 	-1.296425434e-09 	1.450179684e-13 	2.347569509e-07 	-1.778046828e-11 	4.475119957e-10
0.471614208 	1.182174125e-05 	-4.696632231e-07 	5.233738599e-11 	1.179919815e-05 	-8.935742285e-10 	2.249255109e-08
0.4722725678 	0.0001130536204 	-1.33959461e-05 	1.455173682e-09 	0.0001128361108 	-8.502412266e-09 	2.150969883e-07
0.4729309277 	0.0004865316637 	-0.0001094868799 	1.096288672e-08 	0.0004855781837 	-3.544914451e-08 	9.256469776e-07
0.4735892875 	0.001291760016 	-0.0004234416478 	3.659963681e-08 	0.00128915997 	-8.661460524e-08 	2.457497206e-06
0.4742476473 	0.002451512105 	-0.0009858691744 	7.036240049e-08 	0.002446418535 	-1.441965174e-07 	4.663553675e-06
0.4749060072 	0.003687972889 	-0.001637706673 	9.563325415e-08 	0.003680038642 	-1.861088157e-07 	7.015176465e-06
0.475564367 	0.004780393236 	-0.002203651259 	1.024608787e-07 	0.004769723609 	-2.081329597e-07 	9.092418874e-06
0.4762227269 	0.005794863915 	-0.002691485565 	1.021282109e-07 	0.005781326007 	-2.185721072e-07 	1.10208142e-05
0.4773080319 	0.006758497056 	-0.003139113717 	1.02354616e-07 	0.006741660981 	-2.181917554e-07 	1.285147958e-05
0.4784819342 	0.007506368042 	-0.003486158662 	9.589514626e-08 	0.007486098658 	-2.035775943e-07 	1.427058469e-05
0.479751666 	0.008013302682 	-0.003720789074 	8.381560569e-08 	0.007989580029 	-1.771874962e-07 	1.523036012e-05
0.4811250504 	0.008342427061 	-0.003872874903 	6.698567841e-08 	0.008315075787 	-1.401873383e-07 	1.585084551e-05
0.4826105488 	0.008538997732 	-0.003963335017 	4.514463881e-08 	0.008507731886 	-9.219378144e-08 	1.621810158e-05
0.4842173135 	0.008633529435 	-0.004006275464 	1.766805938e-08 	0.00859798888 	-3.192267013e-08 	1.639015649e-05
0.4859552439 	0.008645786029 	-0.004010862998 	-1.63336107e-08 	0.008605568203 	4.250476117e-08 	1.640460479e-05
0.4878350474 	0.008587961595 	-0.003982761807 	-5.798861684e-08 	0.008542654871 	1.334744038e-07 	1.628467449e-05
0.4898683057 	0.008466877722 	-0.003925149102 	-1.086726797e-07 	0.008416100846 	2.438812848e-07 	1.604342735e-05
0.4920675457 	0.008285441555 	-0.00383939394 	-1.700064162e-07 	0.008228892817 	3.77105831e-07 	1.568655681e-05
0.4944463172 	0.00804355108 	-0.003725480984 	-2.438656227e-07 	0.007981070135 	5.370119107e-07 	1.52141379e-05
0.497019276 	0.007738605569 	-0.00358225127 	-3.324162446e-07 	0.007670248356 	7.28006782e-07 	1.46216252e-05
0.4998022741 	0.007365801737 	-0.003407542803 	-4.380848793e-07 	0.007291921714 	9.550342607e-07 	1.390042947e-05
0.5028124578 	0.006918545372 	-0.003198384123 	-5.629772179e-07 	0.006839869605 	1.22251825e-06 	1.303869251e-05
0.506068373 	0.00631834545 	-0.002918362996 	-7.250349877e-07 	0.006236014698 	1.568788735e-06 	1.188757722e-05
0.5112857627 	0.005481338187 	-0.002528982663 	-8.948337918e-07 	0.005398551435 	1.930224291e-06 	1.029113948e-05
0.5167584128 	0.004532457307 	-0.002088884071 	-9.666652415e-07 	0.004454257811 	2.0803152e-06 	8.491053385e-06
0.5224988119 	0.003652843842 	-0.001669063195 	-1.093345779e-06 	0.00358309019 	1.986263797e-06 	6.830365771e-06
0.5285200595 	0.002909555529 	-0.001253965811 	-1.109741951e-06 	0.002852136628 	1.711504218e-06 	5.436965123e-06
0.5348358961 	0.002342731714 	-0.0008804753223 	-8.910589243e-07 	0.002300262056 	1.247238195e-06 	4.384938804e-06
0.5414607345 	0.001974813751 	-0.0005956401212 	-6.962060337e-07 	0.001947199256 	7.211672498e-07 	3.711902978e-06
0.5484096926 	0.001777221641 	-0.0003807107051 	-5.297652391e-07 	0.001763609888 	3.063635797e-07 	3.361930616e-06
0.5556986279 	0.001692467878 	-0.0002161477042 	-4.163996346e-07 	0.001691944939 	5.110006741e-08 	3.225317306e-06
0.5633441738 	0.001670144244 	-7.898907019e-05 	-3.533327002e-07 	0.001682164124 	-8.356394967e-08 	3.206672353e-06
0.5713637774 	0.001677629581 	3.947696383e-05 	-3.062862785e-07 	0.001701416278 	-1.459206508e-07 	3.243372309e-06
0.5797757394 	0.001698786935 	0.0001435261842 	-2.714533849e-07 	0.001733435319 	-1.746901801e-07 	3.304409502e-06
0.588599256 	0.001726382517 	0.0002372971807 	-2.464475176e-07 	0.001771012392 	-1.871534611e-07 	3.376041846e-06
0.5978544624 	0.001756866453 	0.0003230691111 	-2.26457852e-07 	0.001810635448 	-1.90746548e-07 	3.451574405e-06
0.607562479 	0.00178827521 	0.0004019521584 	-2.087148489e-07 	0.001850366279 	-1.888537001e-07 	3.52731241e-06
0.6177454595 	0.001819389364 	0.0004744393402 	-1.915236318e-07 	0.001888991278 	-1.830171252e-07 	3.600942394e-06
0.6284266415 	0.001849380142 	0.0005407154804 	-1.738617446e-07 	0.001925664686 	-1.739746852e-07 	3.670852103e-06
0.6396303994 	0.001877665385 	0.0006008461326 	-1.551256806e-07 	0.001959764783 	-1.621187299e-07 	3.735856365e-06
0.6513823003 	0.001903865546 	0.0006549059187 	-1.350011022e-07 	0.001990852412 	-1.476972813e-07 	3.795118026e-06
0.6637091619 	0.001927812965 	0.0007030753333 	-1.13416292e-07 	0.002018685391 	-1.309147369e-07 	3.848175421e-06
0.6766391143 	0.001949592705 	0.0007457183692 	-9.052972877e-08 	0.00204326737 	-1.119851056e-07 	3.895035504e-06
0.6902016635 	0.001969604161 	0.0007834446667 	-6.672249081e-08 	0.002064919929 	-9.115163795e-08 	3.936311299e-06
0.7044277593 	0.001988638211 	0.0008171556127 	-4.258239624e-08 	0.002084371776 	-6.868010036e-08 	3.973391926e-06
0.7193498657 	0.002007970309 	0.0008480742844 	-1.887158761e-08 	0.002102858652 	-4.483348815e-08 	4.00863305e-06
0.7350020349 	0.002028989755 	0.0008770420662 	3.12211007e-09 	0.002121820749 	-2.036807371e-08 	4.044780078e-06
0.7500308009 	0.002052660415 	0.0009044322156 	2.186989003e-08 	0.002142480805 	3.391617505e-09 	4.084163886e-06
0.7643871251 	0.002080073448 	0.0009312181856 	3.695246045e-08 	0.00216624202 	2.586784009e-08 	4.129459366e-06
0.7781010947 	0.002112400611 	0.0009584163576 	4.879587614e-08 	0.0021944896 	4.717007949e-08 	4.183307105e-06
0.7912014512 	0.002150551698 	0.0009866473445 	5.802883694e-08 	0.002228278699 	6.760802918e-08 	4.247718518e-06
0.8037156498 	0.002195227105 	0.001016244777 	6.526352107e-08 	0.002268419934 	8.777241221e-08 	4.324238869e-06
0.8156699174 	0.002247020952 	0.001047381101 	7.159713778e-08 	0.002315567984 	1.081875566e-07 	4.414116156e-06
0.8270893073 	0.002306576903 	0.001082200827 	7.962650977e-08 	0.002370276511 	1.294249256e-07 	4.518405814e-06
0.837997752 	0.002375090818 	0.001117746345 	8.217592854e-08 	0.002433023825 	1.529753471e-07 	4.638019635e-06
0.8484181129 	0.002454012391 	0.001153276758 	8.759926908e-08 	0.00250500249 	1.819189037e-07 	4.775230975e-06
0.8583722288 	0.002544374483 	0.001193686984 	1.0475409e-07 	0.002588007145 	2.182206684e-07 	4.933460917e-06
0.8678809611 	0.002647091873 	0.001239850503 	1.257087721e-07 	0.002683513513 	2.625553016e-07 	5.115522599e-06
0.8769642379 	0.002763396841 	0.001292348697 	1.515906508e-07 	0.002792787206 	3.170676719e-07 	5.32382863e-06
0.8856410957 	0.002895140454 	0.001351966026 	1.837619419e-07 	0.002917330251 	3.847064214e-07 	5.561242288e-06
0.8939297192 	0.003045036367 	0.001419866276 	2.235466096e-07 	0.003059427513 	4.684189676e-07 	5.832119163e-06
0.9018474793 	0.003216789575 	0.001497697332 	2.719461014e-07 	0.003222469455 	5.706430119e-07 	6.142922419e-06
0.9094109698 	0.003414965087 	0.001587564324 	3.291800011e-07 	0.003410957229 	6.923425116e-07 	6.502232504e-06
0.9166360422 	0.003644486922 	0.001691816803 	3.939291094e-07 	0.003630074319 	8.312194498e-07 	6.91993058e-06
0.9235378383 	0.003909673388 	0.001812596897 	4.624233272e-07 	0.003884697662 	9.795331599e-07 	7.40531344e-06
0.9301308229 	0.004212813148 	0.001951150245 	5.279342711e-07 	0.004177858069 	1.12288221e-06 	7.964158656e-06
0.9364288132 	0.004552537655 	0.00210703116 	5.813562096e-07 	0.004508959975 	1.241465881e-06 	8.595330913e-06
0.9424450084 	0.004922560327 	0.002277482213 	6.132240803e-07 	0.004872388535 	1.314509405e-06 	9.288126758e-06
0.948192017 	0.005311441404 	0.002457301203 	6.166336327e-07 	0.005257182517 	1.326626277e-06 	1.002165104e-05
0.9536818834 	0.005703568951 	0.002639282049 	5.89526239e-07 	0.005647949742 	1.272807513e-06 	1.076656197e-05
0.9589261131 	0.006080830956 	0.002814991118 	5.351784879e-07 	0.006026542685 	1.159549966e-06 	1.148826535e-05
0.9639356968 	0.006399312265 	0.002963835308 	4.674513445e-07 	0.006348305963 	1.016182064e-06 	1.210163559e-05
0.9671916133 	0.006629339485 	0.003071709743 	4.0465242e-07 	0.006582277053 	8.820631429e-07 	1.254764951e-05
0.9702017979 	0.006800613288 	0.003152301585 	3.492039543e-07 	0.006757652876 	7.628658598e-07 	1.288196457e-05
0.9729847967 	0.006937133115 	0.003216769781 	2.972778656e-07 	0.006898421564 	6.506699426e-07 	1.315030882e-05
0.9755577559 	0.00703853025 	0.003264890017 	2.50274691e-07 	0.00700399681 	5.48626867e-07 	1.335156458e-05
0.9779365277 	0.007104117655 	0.003296303564 	2.088593763e-07 	0.007073524394 	4.583182878e-07 	1.348410348e-05
0.9801357679 	0.007132408461 	0.00331029366 	1.731630177e-07 	0.007105408545 	3.801667196e-07 	1.354488353e-05
0.9821690261 	0.007120521165 	0.003305507243 	1.429602077e-07 	0.00709671088 	3.138058036e-07 	1.352830337e-05
0.9840488294 	0.007063440169 	0.003279609386 	1.178123876e-07 	0.007042403207 	2.583842687e-07 	1.342477785e-05
0.9857867595 	0.006953048991 	0.0032288326 	9.717183352e-08 	0.006934393775 	2.127903415e-07 	1.321888185e-05
0.9873935238 	0.006776841414 	0.003147378517 	8.043867069e-08 	0.006760232537 	1.757806107e-07 	1.288688213e-05
0.9888790217 	0.006516227479 	0.003026642302 	6.698412611e-08 	0.006501412724 	1.460500867e-07 	1.239349963e-05
0.9902524056 	0.006144553469 	0.002854370825 	5.613428767e-08 	0.0061313882 	1.222678668e-07 	1.168813004e-05
0.9915221368 	0.005625588088 	0.002613429047 	4.745647945e-08 	0.005614057896 	1.030692074e-07 	1.07019547e-05
0.9926960384 	0.00491507049 	0.002283269324 	4.011739762e-08 	0.00490530585 	8.670201626e-08 	9.350876309e-06
0.9937813429 	0.004056104169 	0.001873367849 	3.061970742e-08 	0.004048201087 	7.12524737e-08 	7.716996411e-06
0.9944397027 	0.003200725492 	0.001440402305 	2.208566007e-08 	0.003194552365 	5.69579438e-08 	6.089704688e-06
0.9950980625 	0.002344624024 	0.0009883355681 	1.611474088e-08 	0.002340127091 	4.292282041e-08 	4.46093264e-06
0.9957564224 	0.001466896625 	0.0005392355768 	9.319419511e-09 	0.001464093172 	2.78609083e-08 	2.790968509e-06
0.9964147822 	0.0007303758884 	0.0002082001334 	3.781312498e-09 	0.0007289830447 	1.431551807e-08 	1.389644294e-06
0.9970731421 	0.000264917341 	4.915666275e-05 	9.171313049e-10 	0.0002644127601 	5.282354619e-09 	5.040442106e-07
0.9977315019 	6.062669953e-05 	5.702065645e-06 	1.067808251e-10 	6.051130284e-05 	1.215393196e-09 	1.153513615e-07
0.9983898617 	6.315499048e-06 	1.962955752e-07 	3.644177757e-12 	6.303481858e-06 	1.267280294e-10 	1.201618838e-08
0.9990482216 	1.444708758e-07 	6.212203852e-10 	1.139572123e-14 	1.441959969e-07 	2.899271363e-12 	2.748776474e-10
