0.4709558481 	2.067758766e-07 	-1.07415571e-09 	1.906848729e-14 	2.063824485e-07 	-2.531283532e-12 	3.934223078e-10
0.471614208 	1.039297818e-05 	-3.893963864e-07 	6.91390772e-12 	1.037319797e-05 	-1.272252731e-10 	1.977419841e-08
0.4722725678 	9.944797194e-05 	-1.115558064e-05 	1.942747618e-10 	9.925846811e-05 	-1.212403469e-09 	1.892142277e-07
0.4729309277 	0.0004295547654 	-9.24178563e-05 	1.499109849e-09 	0.0004287340815 	-5.096049705e-09 	8.172863198e-07
0.4735892875 	0.00115112083 	-0.0003654538783 	5.181871137e-09 	0.001148912863 	-1.268235748e-08 	2.19014724e-06
0.4742476473 	0.002214055558 	-0.0008722397627 	1.033284973e-08 	0.002209787967 	-2.163748917e-08 	4.212470044e-06
0.4749060072 	0.003376820361 	-0.001480651865 	1.448851274e-08 	0.00337027527 	-2.862647837e-08 	6.424681384e-06
0.475564367 	0.004427218437 	-0.002032042582 	1.600462755e-08 	0.004418584218 	-3.273201486e-08 	8.423049602e-06
0.4762227269 	0.00541778601 	-0.002516802306 	1.645178798e-08 	0.005407135861 	-3.515822432e-08 	1.030750379e-05
0.4773080319 	0.006373080884 	-0.002960665724 	1.695759196e-08 	0.006360407162 	-3.612218834e-08 	1.212470383e-05
0.4784819342 	0.00713323307 	-0.003313781268 	1.655504582e-08 	0.007118826712 	-3.512624015e-08 	1.357046229e-05
0.479751666 	0.007668767227 	-0.003562368831 	1.543070735e-08 	0.007652981733 	-3.259057669e-08 	1.458871022e-05
0.4811250504 	0.008039981127 	-0.003734659285 	1.375620708e-08 	0.008023046542 	-2.884021068e-08 	1.52941566e-05
0.4826105488 	0.008291678485 	-0.003851453129 	1.158333995e-08 	0.008273730968 	-2.399707726e-08 	1.577203079e-05
0.4842173135 	0.008455232544 	-0.003927282282 	8.913734926e-09 	0.008436339035 	-1.80690911e-08 	1.608200696e-05
0.4859552439 	0.008552087619 	-0.003972100415 	5.716766447e-09 	0.008532263365 	-1.099010663e-08 	1.626486539e-05
0.4878350474 	0.008596778051 	-0.003992655604 	1.934686568e-09 	0.008575998294 	-2.633409087e-09 	1.634823632e-05
0.4898683057 	0.008599128694 	-0.003993508457 	-2.516944227e-09 	0.008577336072 	7.186564284e-09 	1.63507865e-05
0.4920675457 	0.008565768318 	-0.003977734545 	-7.749814335e-09 	0.008542877361 	1.871465613e-08 	1.628509862e-05
0.4944463172 	0.008501149803 	-0.003947398324 	-1.390287531e-08 	0.008477049889 	3.225376423e-08 	1.615961316e-05
0.497019276 	0.008408224391 	-0.003903866799 	-2.114124008e-08 	0.008382783641 	4.816069756e-08 	1.597991549e-05
0.4998022741 	0.008288841956 	-0.003847996581 	-2.965523818e-08 	0.008261915678 	6.684302368e-08 	1.574950756e-05
0.5028124578 	0.008143858043 	-0.003780184263 	-3.966570096e-08 	0.008115297119 	8.877186977e-08 	1.547001184e-05
0.506068373 	0.007949786671 	-0.003689454751 	-5.304234599e-08 	0.007919217589 	1.180066913e-07 	1.509622976e-05
0.5112857627 	0.007672865787 	-0.003560042315 	-7.24583401e-08 	0.007639651025 	1.603176956e-07 	1.456329819e-05
0.5167584128 	0.007328917612 	-0.0033993629 	-9.738302642e-08 	0.007292673861 	2.144683097e-07 	1.390186327e-05
0.5224988119 	0.006943979815 	-0.003219612987 	-1.266373767e-07 	0.006904692946 	2.778190071e-07 	1.316226381e-05
0.5285200595 	0.006518575368 	-0.003021083022 	-1.606227929e-07 	0.006476429407 	3.511302711e-07 	1.234587448e-05
0.5348358961 	0.006051382411 	-0.002803217422 	-1.994790354e-07 	0.006006809276 	4.345367866e-07 	1.145064799e-05
0.5414607345 	0.005540947561 	-0.002565406835 	-2.424608518e-07 	0.005494657783 	5.263183827e-07 	1.04743449e-05
0.5484096926 	0.004991216884 	-0.002309561868 	-2.835351117e-07 	0.004944248829 	6.136418612e-07 	9.425112451e-06
0.5556986279 	0.004421422865 	-0.002044710726 	-3.106419041e-07 	0.004375195536 	6.709291055e-07 	8.340338715e-06
0.5633441738 	0.003864252418 	-0.001786092497 	-3.166182255e-07 	0.003820277864 	6.82942579e-07 	7.2825114e-06
0.5713637774 	0.003343883754 	-0.001518624526 	-3.658734103e-07 	0.003303702738 	6.648680439e-07 	6.297775636e-06
0.5797757394 	0.002869269797 	-0.001233482328 	-4.045202403e-07 	0.002834300605 	6.312699632e-07 	5.402964707e-06
0.588599256 	0.002450914093 	-0.0009580442608 	-3.838343795e-07 	0.002422423191 	5.676279087e-07 	4.617811881e-06
0.5978544624 	0.002107581103 	-0.0007065118921 	-3.579810406e-07 	0.002086931737 	4.619910979e-07 	3.978271923e-06
0.607562479 	0.001855612046 	-0.000482516457 	-3.174161838e-07 	0.001843814748 	3.296503049e-07 	3.514823372e-06
0.6177454595 	0.001695193442 	-0.0002897752446 	-2.678537546e-07 	0.001692702142 	2.030583951e-07 	3.226760745e-06
0.6284266415 	0.001612917515 	-0.0001240929581 	-2.228983049e-07 	0.001619882685 	1.021175991e-07 	3.08794662e-06
0.6396303994 	0.001589924332 	2.405868516e-05 	-1.883657384e-07 	0.001606045825 	3.341700337e-08 	3.06156972e-06
0.6513823003 	0.001606437323 	0.0001594148777 	-1.558171502e-07 	0.001630833825 	-3.54701163e-09 	3.108822537e-06
0.6637091619 	0.001648567894 	0.0002847387661 	-1.26028862e-07 	0.00168008916 	-1.901703449e-08 	3.202716895e-06
0.6766391143 	0.001709244079 	0.0004033313378 	-9.88157121e-08 	0.001746668702 	-2.033642867e-08 	3.329636007e-06
0.6902016635 	0.001785441462 	0.000517666386 	-7.278265447e-08 	0.001827514421 	-1.114596426e-08 	3.483750418e-06
0.7044277593 	0.001876608056 	0.000629664457 	-4.689517762e-08 	0.001922044096 	6.950490415e-09 	3.663950251e-06
0.7193498657 	0.001984056749 	0.0007410912943 	-2.036216118e-08 	0.002031501031 	3.353627646e-08 	3.872605592e-06
0.7350020349 	0.002108092202 	0.0008513921658 	6.844710129e-09 	0.002156053336 	6.815532905e-08 	4.110036903e-06
0.7500308009 	0.002245527408 	0.0009576840146 	3.405617156e-08 	0.002292437568 	1.091974598e-07 	4.370023155e-06
0.7643871251 	0.002395432276 	0.00106022438 	6.101211557e-08 	0.002439715853 	1.555182631e-07 	4.650776499e-06
0.7781010947 	0.002559896515 	0.001163602586 	8.900140864e-08 	0.002599957419 	2.06026652e-07 	4.956241462e-06
0.7912014512 	0.002741458778 	0.001271252097 	1.205431701e-07 	0.002775588742 	2.588047304e-07 	5.291043578e-06
0.8037156498 	0.002943833669 	0.00137493656 	1.503844985e-07 	0.00297019336 	3.136915013e-07 	5.662014067e-06
0.8156699174 	0.003171256716 	0.001478703197 	1.769715471e-07 	0.003188701619 	3.719503527e-07 	6.078551539e-06
0.8270893073 	0.003425517198 	0.001594891745 	2.043426829e-07 	0.003433954435 	4.320776357e-07 	6.546071572e-06
0.837997752 	0.003705105606 	0.001722947973 	2.303656904e-07 	0.0037050474 	4.893811842e-07 	7.062850109e-06
0.8484181129 	0.004006232868 	0.001861221721 	2.524528093e-07 	0.003998641599 	5.383456126e-07 	7.622522252e-06
0.8583722288 	0.004323296337 	0.002007185766 	2.680922809e-07 	0.00430943175 	5.735678149e-07 	8.21497466e-06
0.8678809611 	0.004648983597 	0.002157480218 	2.752301671e-07 	0.004630249888 	5.905328682e-07 	8.826543197e-06
0.8769642379 	0.004975140473 	0.002308315908 	2.735506879e-07 	0.004952934909 	5.884310459e-07 	9.441670534e-06
0.8856410957 	0.005294767649 	0.002456415396 	2.647638848e-07 	0.005270378812 	5.708439175e-07 	1.004680684e-05
0.8939297192 	0.00560284073 	0.0025994083 	2.508897516e-07 	0.00557740357 	5.420720178e-07 	1.063208136e-05
0.9018474793 	0.005895681804 	0.002735545577 	2.335039786e-07 	0.005870160795 	5.054919972e-07 	1.1190158e-05
0.9094109698 	0.006170573009 	0.002863521529 	2.140031601e-07 	0.00614575167 	4.641086194e-07 	1.171551081e-05
0.9166360422 	0.006425698411 	0.002982448294 	1.935929356e-07 	0.006402173843 	4.205253627e-07 	1.220432274e-05
0.9235378383 	0.006660043722 	0.003091811097 	1.732556321e-07 	0.006638228593 	3.768738989e-07 	1.26543087e-05
0.9301308229 	0.006873243206 	0.003191398688 	1.537501281e-07 	0.006853374407 	3.348133269e-07 	1.306443642e-05
0.9364288132 	0.007065389291 	0.003281215977 	1.356322164e-07 	0.007047541464 	2.955736246e-07 	1.343457279e-05
0.9424450084 	0.007236807838 	0.003361380229 	1.192847957e-07 	0.007220909839 	2.600191061e-07 	1.37650611e-05
0.948192017 	0.007387777573 	0.003431990627 	1.049480728e-07 	0.007373628837 	2.287106268e-07 	1.405618596e-05
0.9536818834 	0.007518137567 	0.003492944996 	9.273309231e-08 	0.007505420742 	2.019293613e-07 	1.430741796e-05
0.9589261131 	0.007626684609 	0.00354365784 	8.257671004e-08 	0.007614969311 	1.795701764e-07 	1.451624798e-05
0.9639356968 	0.00770477131 	0.003574537321 	7.017364914e-08 	0.007693543342 	1.620576992e-07 	1.466603192e-05
0.9671916133 	0.007751073544 	0.003589528628 	6.170347076e-08 	0.007739929371 	1.493786596e-07 	1.475445658e-05
0.9702017979 	0.007776966867 	0.00360023237 	5.881282314e-08 	0.007765727932 	1.391868769e-07 	1.480363581e-05
0.9729847967 	0.007786580932 	0.003604363811 	5.465615631e-08 	0.007775181813 	1.297810752e-07 	1.482165754e-05
0.9755577559 	0.007778229117 	0.003600785316 	5.104939483e-08 	0.00776664046 	1.211347223e-07 	1.480537534e-05
0.9779365277 	0.007749611816 	0.003588560695 	4.791520448e-08 	0.007737824617 	1.132018454e-07 	1.475044434e-05
0.9801357679 	0.007697592629 	0.003566307077 	4.518627243e-08 	0.007685618818 	1.059124016e-07 	1.465092557e-05
0.9821690261 	0.007617894298 	0.003533042537 	4.205040722e-08 	0.007605769595 	9.916624181e-08 	1.449871076e-05
0.9840488294 	0.007504296293 	0.003484738274 	4.10604632e-08 	0.007492083188 	9.310436642e-08 	1.428199287e-05
0.9857867595 	0.007347331443 	0.00341366634 	4.081044378e-08 	0.007335119265 	8.784519451e-08 	1.398277601e-05
0.9873935238 	0.007132950258 	0.003314009089 	3.873495094e-08 	0.007120857021 	8.332855418e-08 	1.357433262e-05
0.9888790217 	0.006840817424 	0.003178242706 	3.694430138e-08 	0.006829000711 	7.944113072e-08 	1.301797338e-05
0.9902524056 	0.006442291921 	0.002993122535 	3.527250988e-08 	0.006430968992 	7.583699613e-08 	1.225921429e-05
0.9915221368 	0.005898813222 	0.002740603385 	3.349625653e-08 	0.005888281937 	7.199703174e-08 	1.122470193e-05
0.9926960384 	0.00516269923 	0.00239850724 	3.123010826e-08 	0.005153353927 	6.709933781e-08 	9.823724886e-06
0.9937813429 	0.004274047298 	0.001973154877 	2.833636425e-08 	0.004266222261 	6.054316031e-08 	8.132605364e-06
0.9944397027 	0.003386491416 	0.001523927828 	2.4867057e-08 	0.003380237683 	5.279865269e-08 	6.443672512e-06
0.9950980625 	0.002492816941 	0.001053607268 	1.986192921e-08 	0.002488180409 	4.297858404e-08 	4.743163414e-06
0.9957564224 	0.001568294766 	0.0005801409059 	1.275763823e-08 	0.001565357838 	2.996345144e-08 	2.984007107e-06
0.9964147822 	0.000784661727 	0.0002260618167 	5.693724809e-09 	0.0007831832369 	1.627856417e-08 	1.492964924e-06
0.9970731421 	0.0002854371415 	5.374849434e-05 	1.488120061e-09 	0.0002848966761 	6.206365327e-09 	5.430922476e-07
0.9977315019 	6.538931612e-05 	6.256051085e-06 	1.812092069e-10 	6.526511953e-05 	1.444896275e-09 	1.244134573e-07
0.9983898617 	6.812730426e-06 	2.155057591e-07 	6.30474334e-12 	6.799772607e-06 	1.50915514e-10 	1.296225649e-08
0.9990482216 	1.558464606e-07 	6.817936064e-10 	1.990114787e-14 	1.55549944e-07 	3.452601409e-12 	2.965214262e-10
