0.4690537101 	2.048545538e-07 	-1.071279848e-09 	1.984405083e-14 	2.045136048e-07 	-6.260369554e-13 	3.898597723e-10
0.4696979757 	1.012631755e-05 	-3.773916695e-07 	1.028571817e-11 	1.012416159e-05 	-7.931904007e-11 	1.929946586e-08
0.4703422465 	9.588242999e-05 	-1.065042699e-05 	3.189977892e-10 	9.618306109e-05 	-5.795204657e-10 	1.833516471e-07
0.4709865219 	0.0004119005135 	-8.791125963e-05 	2.401903001e-09 	0.0004151020103 	5.123518474e-10 	7.912998033e-07
0.4716308012 	0.001102719353 	-0.0003491005596 	7.38496304e-09 	0.001116435648 	1.270840586e-08 	2.128236643e-06
0.4722750836 	0.002127064535 	-0.000840174583 	1.135303378e-08 	0.002161056414 	4.666488055e-08 	4.11957416e-06
0.4729193684 	0.003259300202 	-0.001438994652 	8.79229343e-09 	0.003318228479 	9.870414757e-08 	6.325465735e-06
0.4735636549 	0.004292200034 	-0.00198899097 	3.510756604e-09 	0.004374013778 	1.536490533e-07 	8.338085956e-06
0.4742079423 	0.005273180913 	-0.002475347459 	-2.317801553e-09 	0.005375032028 	2.065539044e-07 	1.024630496e-05
0.4752700492 	0.006222457273 	-0.00292119532 	-9.282046386e-09 	0.006342620313 	2.552248127e-07 	1.209079716e-05
0.4764188562 	0.006978048848 	-0.003276180605 	-1.256142095e-08 	0.007112997249 	2.872135901e-07 	1.355934971e-05
0.4776614359 	0.007508681782 	-0.003525465465 	-1.044164531e-08 	0.007654223481 	2.982080349e-07 	1.459107734e-05
0.4790054355 	0.007874650205 	-0.003697558344 	-4.070191186e-09 	0.008027673067 	2.926441555e-07 	1.530297604e-05
0.4804606181 	0.008121758435 	-0.003813984676 	4.678412379e-09 	0.008279986992 	2.765025854e-07 	1.578395651e-05
0.4820382815 	0.008282394566 	-0.003889858765 	1.388896538e-08 	0.008444070978 	2.555955427e-07 	1.609674619e-05
0.4837447146 	0.008378916539 	-0.003934422481 	3.343784354e-08 	0.008542620437 	2.340028708e-07 	1.628460885e-05
0.4855904263 	0.008426640063 	-0.00395187743 	5.86756052e-08 	0.008591154075 	2.142919461e-07 	1.637712745e-05
0.487586783 	0.00843569329 	-0.003950256923 	7.326101527e-08 	0.008600152056 	1.978111307e-07 	1.639428011e-05
0.4897460786 	0.008412570646 	-0.003936109368 	8.335067888e-08 	0.008576319223 	1.841260645e-07 	1.63488481e-05
0.4920851672 	0.008361457744 	-0.003909800869 	9.31191254e-08 	0.008523742311 	1.727742452e-07 	1.62486219e-05
0.494619151 	0.008285164918 	-0.003872591659 	9.959896054e-08 	0.008445241256 	1.635876706e-07 	1.609897707e-05
0.4973599337 	0.008185567696 	-0.003825466984 	1.022648972e-07 	0.008342803281 	1.557433627e-07 	1.590370182e-05
0.5003243893 	0.008063807658 	-0.003768695763 	1.135492097e-07 	0.008217360073 	1.47574994e-07 	1.56645722e-05
0.5035356472 	0.007901016448 	-0.003702506782 	9.238143707e-08 	0.008049145548 	1.418037433e-07 	1.534390856e-05
0.5086880451 	0.007670188844 	-0.003603872683 	5.175915518e-08 	0.00780915229 	1.438345594e-07 	1.488641471e-05
0.5140960155 	0.007385256109 	-0.003470406962 	8.16125317e-09 	0.007511497764 	1.56071379e-07 	1.431900245e-05
0.5197790099 	0.007068045508 	-0.003321363064 	-4.027193456e-08 	0.007179887713 	1.738138903e-07 	1.368686153e-05
0.5257451067 	0.006719279585 	-0.003156282244 	-6.536894759e-08 	0.0068159016 	1.912185494e-07 	1.299300283e-05
0.5320117493 	0.006338490428 	-0.002976107349 	-9.100911823e-08 	0.006419708 	2.12132505e-07 	1.223774771e-05
0.5385938539 	0.005924387916 	-0.002780222579 	-1.184182619e-07 	0.005989981137 	2.399158309e-07 	1.141856888e-05
0.5455034918 	0.005475899575 	-0.002568042031 	-1.490972631e-07 	0.005525139421 	2.740418773e-07 	1.053245137e-05
0.5527634251 	0.004995637754 	-0.002340692794 	-1.845201766e-07 	0.005027132694 	3.144210218e-07 	9.583112135e-06
0.5603860964 	0.004496592548 	-0.002104356641 	-2.226156282e-07 	0.004509476814 	3.58293198e-07 	8.596316151e-06
0.5683894594 	0.003999979991 	-0.00185357342 	-1.433259654e-07 	0.003996092933 	3.811217709e-07 	7.617663787e-06
0.5767933557 	0.003521732014 	-0.001577495596 	-7.189411194e-08 	0.003505400379 	3.692237411e-07 	6.682267398e-06
0.5856194578 	0.003071575314 	-0.001295660219 	-9.226645936e-08 	0.003046430971 	3.380738911e-07 	5.807344143e-06
0.5948857276 	0.002661708919 	-0.001025209904 	-7.47481489e-08 	0.002629303772 	2.918558446e-07 	5.012183766e-06
0.6046139634 	0.002308205389 	-0.000766480858 	-5.031087535e-08 	0.002269119802 	2.231185924e-07 	4.325573011e-06
0.6148267801 	0.002028569654 	-0.0005253799836 	-1.599673182e-08 	0.001982728181 	1.293354348e-07 	3.779630985e-06
0.6255476943 	0.001834257723 	-0.0003057359467 	2.816318735e-08 	0.001780367861 	1.766154652e-08 	3.393875971e-06
0.6368012118 	0.001724841222 	-0.0001071701258 	7.758593227e-08 	0.00165986295 	-1.031292428e-07 	3.164160118e-06
0.6486129148 	0.001690535261 	7.616240485e-05 	1.274205934e-07 	0.001610733443 	-2.22429828e-07 	3.070505623e-06
0.6610095511 	0.001714422223 	0.0002480441869 	1.759306469e-07 	0.00161761944 	-3.259275708e-07 	3.083632246e-06
0.6740197563 	0.00177925358 	0.0004089268238 	2.19237063e-07 	0.001665037606 	-4.082845079e-07 	3.174024451e-06
0.6876725536 	0.001874782468 	0.000560845158 	2.549513108e-07 	0.001743598988 	-4.703426706e-07 	3.32378428e-06
0.7019982968 	0.001996676687 	0.0007059985599 	2.83550344e-07 	0.001849595556 	-5.125132331e-07 	3.525843198e-06
0.7170297493 	0.002144468618 	0.0008462268446 	3.048659137e-07 	0.00198332453 	-5.291760811e-07 	3.78076779e-06
0.7328006391 	0.002316423909 	0.0009800507298 	3.422772876e-07 	0.002144219208 	-5.132048049e-07 	4.087477766e-06
0.7479462979 	0.00250518055 	0.001100861016 	2.47574176e-07 	0.002325955995 	-4.468084138e-07 	4.433918593e-06
0.7624164767 	0.002707467999 	0.001209846926 	1.065321375e-07 	0.002523512604 	-3.484473457e-07 	4.810516398e-06
0.776240588 	0.002926472381 	0.001318919178 	1.044988252e-07 	0.002737321553 	-2.573386434e-07 	5.218095679e-06
0.7894472545 	0.003165830188 	0.001432470367 	1.374004439e-07 	0.002971632176 	-1.705300623e-07 	5.66475685e-06
0.8020638187 	0.003428966887 	0.001553079451 	1.682312832e-07 	0.003230833733 	-8.21733249e-08 	6.158867059e-06
0.814116437 	0.003717617566 	0.001685791091 	1.963542644e-07 	0.003516080405 	-3.475315941e-10 	6.702626497e-06
0.8256302243 	0.004029449257 	0.001829405842 	2.186357251e-07 	0.003824479368 	6.429218674e-08 	7.290520635e-06
0.8366292031 	0.004358332366 	0.001980983669 	2.332918841e-07 	0.004149582341 	1.079407085e-07 	7.910257259e-06
0.8471363442 	0.004695238267 	0.002136358976 	2.395772504e-07 	0.004482624727 	1.309112832e-07 	8.545128611e-06
0.8571736076 	0.005029826399 	0.002290849412 	2.377452951e-07 	0.004813920245 	1.354269258e-07 	9.176669947e-06
0.866761983 	0.005353493708 	0.002440586396 	2.297255131e-07 	0.005135507436 	1.267206144e-07 	9.789704514e-06
0.8759215291 	0.005661398562 	0.002583389693 	2.178290012e-07 	0.005442890193 	1.103072493e-07 	1.037566148e-05
0.8846714131 	0.005951240579 	0.002718199524 	2.036032528e-07 	0.005733832417 	8.972003924e-08 	1.093027822e-05
0.8930299493 	0.006221717464 	0.002844385935 	1.881499607e-07 	0.006006942579 	6.736086395e-08 	1.14509021e-05
0.9010146343 	0.00647213224 	0.002961587406 	1.723526869e-07 	0.006261375991 	4.510155796e-08 	1.19359229e-05
0.9086421811 	0.006702279155 	0.003069669917 	1.569007938e-07 	0.006496773446 	2.439748339e-08 	1.238465587e-05
0.9159285593 	0.006912371078 	0.003168697759 	1.423176971e-07 	0.006713208166 	6.3618798e-09 	1.27972406e-05
0.9228890252 	0.007102958123 	0.003258896536 	1.289935559e-07 	0.006911108314 	-8.167953419e-09 	1.317449329e-05
0.9295381518 	0.007274827422 	0.003340605909 	1.172143424e-07 	0.007091154204 	-1.857674824e-08 	1.35177108e-05
0.9358898614 	0.007428880939 	0.003414221655 	1.071720946e-07 	0.00725415121 	-2.445080031e-08 	1.382842839e-05
0.9419574547 	0.007565972741 	0.003480119572 	9.895160996e-08 	0.007400865829 	-2.560156349e-08 	1.410810723e-05
0.9477536366 	0.007686657076 	0.003538540622 	9.248398528e-08 	0.007531787453 	-2.215440859e-08 	1.435768024e-05
0.9532905451 	0.007790767759 	0.003589398126 	8.749087991e-08 	0.007646720693 	-1.469229057e-08 	1.457677494e-05
0.9585797751 	0.007876728469 	0.003631946054 	8.349019624e-08 	0.007744016475 	-4.375950876e-09 	1.476224774e-05
0.9636324032 	0.007936396235 	0.003655387958 	8.798873242e-08 	0.007814550573 	6.525300358e-09 	1.489670533e-05
0.9669163263 	0.007968780915 	0.003666035524 	9.293859465e-08 	0.007856127242 	1.679496697e-08 	1.497596202e-05
0.969952425 	0.007983062325 	0.003674811345 	9.119514345e-08 	0.007878559985 	2.568940732e-08 	1.501872506e-05
0.9727594003 	0.007981649129 	0.003676243595 	9.039143528e-08 	0.007885094302 	3.385932507e-08 	1.503118129e-05
0.9753545419 	0.007962689184 	0.003670013658 	8.829782968e-08 	0.007873843269 	4.059617516e-08 	1.500973369e-05
0.9777538354 	0.007923675409 	0.003655042878 	8.457894202e-08 	0.007842345366 	4.540688354e-08 	1.494968994e-05
0.9799720597 	0.007861264852 	0.003629785544 	7.882915264e-08 	0.007787284188 	4.781290966e-08 	1.484472803e-05
0.9820228791 	0.007771000324 	0.003593496779 	7.361893666e-08 	0.007704197006 	4.741001336e-08 	1.468634076e-05
0.9839189266 	0.007646358198 	0.003540831836 	5.943780966e-08 	0.007586598751 	4.315017437e-08 	1.446216581e-05
0.9856718819 	0.007477601552 	0.003464795352 	4.207543894e-08 	0.007424788393 	3.413398206e-08 	1.415371029e-05
0.9872925436 	0.007250560467 	0.003360811119 	3.105425397e-08 	0.007204576592 	2.020973368e-08 	1.373392539e-05
0.9887908952 	0.006944883428 	0.003220240262 	1.820878998e-08 	0.006905597948 	1.824469506e-09 	1.3163989e-05
0.9901761671 	0.00653216685 	0.003029920745 	4.4094414e-09 	0.006499413222 	-1.92790356e-08 	1.238968802e-05
0.991456893 	0.005974307727 	0.00277200872 	-8.883353258e-09 	0.005947877794 	-4.016584814e-08 	1.13383082e-05
0.9926409627 	0.005224120295 	0.002424515184 	-1.979979922e-08 	0.005203777893 	-5.692860302e-08 	9.91984698e-06
0.9937356706 	0.004322519128 	0.001992736104 	-3.254664138e-08 	0.004307591531 	-6.666234402e-08 	8.211466691e-06
0.9943997361 	0.003424047667 	0.001537820001 	-4.049520535e-08 	0.003413370759 	-6.900083463e-08 	6.506833365e-06
0.9950638025 	0.002520198567 	0.001063146036 	-3.74790283e-08 	0.002513040865 	-6.374745877e-08 	4.790554351e-06
0.9957278699 	0.001585104043 	0.0005849619072 	-2.829967198e-08 	0.001581023901 	-5.01112921e-08 	3.013870979e-06
0.9963919382 	0.0007924382636 	0.0002274208345 	-1.508669527e-08 	0.0007905925109 	-3.073240439e-08 	1.50708906e-06
0.9970560076 	0.0002878242378 	5.381930965e-05 	-4.790404483e-09 	0.0002872123492 	-1.324773912e-08 	5.475065641e-07
0.9977200779 	6.578538439e-05 	6.21786825e-06 	-7.183264854e-10 	6.565461363e-05 	-3.518960773e-09 	1.251559413e-07
0.9983841493 	6.827428312e-06 	2.118113605e-07 	-3.168016111e-11 	6.814319019e-06 	-4.431756747e-10 	1.298998599e-08
0.9990482216 	1.535314395e-07 	6.522858409e-10 	-1.326798261e-13 	1.532391661e-07 	-1.378354445e-11 	2.921164412e-10
0.9990482216 	1.535314395e-07 	6.522858409e-10 	-1.326798261e-13 	1.532391661e-07 	-1.378354445e-11 	2.921164412e-10
