0.3443809754 	0.003599904794 	-0.0008888618611 	1.579961317e-07
0.3443809754 	0.003599904794 	-0.0008888618611 	1.579961317e-07
0.345217411 	0.01753379521 	-0.004405456187 	8.88778328e-08
0.3453682256 	0.02203172372 	-0.005533855407 	-4.909402717e-05
0.346048325 	0.04252411238 	-0.0106702377 	6.050290221e-07
0.3468780209 	0.07474511161 	-0.01861764575 	1.832181387e-06
0.34770768 	0.1131453389 	-0.02799415899 	3.375946173e-06
0.348537253 	0.1551668061 	-0.03815035587 	4.965631097e-06
0.3493666909 	0.1972853855 	-0.04819616872 	6.380812539e-06
0.3501959448 	0.236844807 	-0.05746873751 	7.543249004e-06
0.3510249664 	0.2783727897 	-0.06698096316 	8.402514817e-06
0.352390972 	0.3262017053 	-0.07758542369 	9.585849187e-06
0.3538673835 	0.3752666785 	-0.08804710516 	1.030769497e-05
0.3554627231 	0.422262053 	-0.0976531415 	1.050775536e-05
0.3571860494 	0.4678484188 	-0.1065732459 	1.002982787e-05
0.3590516951 	0.5123927526 	-0.1148988808 	8.754535909e-06
0.3610784013 	0.5560332822 	-0.1226670189 	6.610809034e-06
0.3632676152 	0.5986979085 	-0.1298742467 	3.546687988e-06
0.3656321712 	0.6402956326 	-0.136511492 	-4.509577537e-07
0.3681858953 	0.6807567032 	-0.1425718922 	-5.365598943e-06
0.37094368 	0.7200406733 	-0.1480519325 	-1.11495893e-05
0.3739325939 	0.7581518185 	-0.1529534205 	-1.772306878e-05
0.3771718666 	0.7950439078 	-0.1572715221 	-2.495252152e-05
0.3806686201 	0.8306454452 	-0.1610001489 	-3.266900985e-05
0.3844429577 	0.8649929202 	-0.1641457989 	-4.075043607e-05
0.3885315289 	0.9021809147 	-0.1670122586 	-4.981169112e-05
0.3950845221 	0.9446069306 	-0.169516103 	-6.179273733e-05
0.4019449338 	0.9861801032 	-0.1710909524 	-7.362570957e-05
0.4091473333 	1.023819303 	-0.1716665819 	-8.425522683e-05
0.4166906414 	1.058222254 	-0.1714211401 	-9.345135585e-05
0.4246006356 	1.089988455 	-0.1704953836 	-0.0001012419565
0.4328945626 	1.119603516 	-0.1689969804 	-0.0001077738051
0.4415792246 	1.147406477 	-0.1670074409 	-0.0001131085788
0.4506925879 	1.173632025 	-0.1645876739 	-0.0001171970479
0.4602400674 	1.198436768 	-0.1617880095 	-0.0001199495698
0.4702420365 	1.221938037 	-0.1586521601 	-0.0001213550189
0.4807230825 	1.244221026 	-0.1552142674 	-0.0001215598827
0.4917117908 	1.265304717 	-0.1514974394 	-0.0001208181802
0.5032240455 	1.285091805 	-0.1475166676 	-0.0001192781805
0.515285558 	1.303364644 	-0.1432679306 	-0.0001151483788
0.5279228592 	1.319770899 	-0.1387437908 	-0.0001052103349
0.5411635211 	1.333888341 	-0.1339364809 	-9.605792093e-05
0.5550363868 	1.345305469 	-0.128814741 	-8.794995432e-05
0.5695718081 	1.353670052 	-0.1233769658 	-8.054765929e-05
0.5848018867 	1.358960393 	-0.117706041 	-7.339517507e-05
0.600762532 	1.361571381 	-0.1118714827 	-6.647495389e-05
0.6174889838 	1.361965032 	-0.1058927355 	-5.932739167e-05
0.6350187051 	1.360494713 	-0.09983805737 	-5.212229222e-05
0.6533943796 	1.357336166 	-0.0937605323 	-4.568920827e-05
0.672659459 	1.352523317 	-0.08776692482 	-4.035699633e-05
0.6911514682 	1.34623823 	-0.08210105031 	-3.601244687e-05
0.7088144177 	1.338696671 	-0.07684716822 	-3.246718806e-05
0.7256877006 	1.329957039 	-0.07195832947 	-2.956264929e-05
0.7418091577 	1.320013308 	-0.06738988495 	-2.712751345e-05
0.7572139124 	1.308812088 	-0.06310770174 	-2.515295492e-05
0.7719349273 	1.296267584 	-0.05906797093 	-2.276572415e-05
0.7860035033 	1.282377756 	-0.05524479456 	-1.989366901e-05
0.7994492134 	1.267266111 	-0.05162608634 	-1.738124527e-05
0.8123000692 	1.251111976 	-0.04819885776 	-1.516818263e-05
0.8245826578 	1.234093544 	-0.04495229211 	-1.319199878e-05
0.836322254 	1.216349602 	-0.04187552353 	-1.142870822e-05
0.8475429166 	1.19797111 	-0.03895718766 	-9.856821368e-06
0.8582675703 	1.179009893 	-0.03618604162 	-8.455021161e-06
0.8685180813 	1.159487744 	-0.03355115415 	-7.203392772e-06
0.878315323 	1.139401126 	-0.03104199772 	-6.083227281e-06
0.8876792146 	1.118721702 	-0.0286484387 	-5.077209568e-06
0.8966287915 	1.097393527 	-0.02636059129 	-4.169559383e-06
0.9051822509 	1.075328068 	-0.02416871271 	-3.346236568e-06
0.9133569897 	1.052398104 	-0.0220632575 	-2.595236527e-06
0.9211696338 	1.02843149 	-0.02003491688 	-1.907106063e-06
0.9286360927 	1.003205564 	-0.01807483785 	-1.275169184e-06
0.9357715775 	0.9764430194 	-0.01617513321 	-6.959093328e-07
0.9425906379 	0.9478104038 	-0.01432942625 	-1.686129931e-07
0.9491071942 	0.9169222226 	-0.0125332662 	3.048520837e-07
0.9553345582 	0.8860851077 	-0.01092017384 	6.806232625e-07
0.9593832069 	0.8590285087 	-0.009638097484 	9.530144894e-07
0.9631271725 	0.8342164933 	-0.00856377875 	1.139796849e-06
0.9665893224 	0.8089897725 	-0.007565447129 	1.27515713e-06
0.9697908177 	0.7833531133 	-0.006642586739 	1.354457207e-06
0.9727512377 	0.7573144931 	-0.00579496324 	1.376255724e-06
0.9754886974 	0.7308508749 	-0.005021778555 	1.349172257e-06
0.9780199557 	0.7038476148 	-0.004320050462 	1.290338709e-06
0.980360517 	0.6760881378 	-0.003685068502 	1.214640643e-06
0.9825247239 	0.6473120646 	-0.00311251966 	1.12352815e-06
0.9845258438 	0.6172043308 	-0.002598750889 	1.015984687e-06
0.9863761487 	0.585325779 	-0.002140194694 	8.972770462e-07
0.9880869899 	0.5510481153 	-0.001733251368 	7.718405873e-07
0.9896688665 	0.5134599826 	-0.001374201861 	6.437915356e-07
0.9911314889 	0.4712282793 	-0.001059322352 	5.175087587e-07
0.9924838382 	0.4266258738 	-0.00080628792 	4.067149758e-07
0.9933042445 	0.38465919 	-0.0006239401182 	3.230183875e-07
0.9941246912 	0.3412187359 	-0.0004764641332 	2.534275029e-07
0.9949451785 	0.2900941135 	-0.0003403405092 	1.884831418e-07
0.9957657061 	0.2323711488 	-0.0002204234523 	1.298774857e-07
0.9965862743 	0.1715555116 	-0.000123100493 	7.918941843e-08
0.9974068829 	0.1114494173 	-5.605445897e-05 	3.846360783e-08
0.998227532 	0.05408030322 	-3.32499929e-05 	9.89755992e-09
0.9990482216 	0.01615861157 	-2.175434208e-05 	-6.876820575e-10
