9.905593735e-36 	0.7492168539 	-2.529628118e-14 	5.722831281e-19
0.001204847943 	0.7492213557 	-5.115799391e-05 	1.409185652e-08
0.002409690948 	0.7492381608 	-9.616179473e-05 	2.681791551e-08
0.003614528996 	0.7492692909 	-0.0001412082967 	3.985986631e-08
0.004819362076 	0.7493134646 	-0.0001874474371 	5.354849358e-08
0.006024190183 	0.7493704312 	-0.0002338986047 	6.761231718e-08
0.007229013318 	0.7494400432 	-0.0002803786029 	8.199900025e-08
0.008433831486 	0.7495221697 	-0.0003268704295 	9.670197741e-08
0.009638644701 	0.7496339953 	-0.0003812829075 	1.140857589e-07
0.01162476647 	0.7498052858 	-0.0004523693797 	1.378690496e-07
0.01377300715 	0.7500409618 	-0.0005354182408 	1.663755351e-07
0.01609659878 	0.7503387983 	-0.0006251641055 	1.982603044e-07
0.01860985329 	0.7507106886 	-0.0007221602914 	2.339621926e-07
0.02133174334 	0.751170986 	-0.0008270640517 	2.739876459e-07
0.02428448609 	0.751736296 	-0.0009404990494 	3.188895624e-07
0.0274782445 	0.7524251331 	-0.001062957436 	3.692695863e-07
0.03093268938 	0.753259074 	-0.001194986229 	4.257501384e-07
0.03466909675 	0.7542636209 	-0.00133722271 	4.890678979e-07
0.03871047878 	0.7554690891 	-0.001490393641 	5.60086533e-07
0.0430900747 	0.756911687 	-0.001655312656 	6.397727904e-07
0.04783652282 	0.7586322643 	-0.00183262125 	7.290880238e-07
0.05297038645 	0.7606762645 	-0.002022753178 	8.289753956e-07
0.05852328397 	0.7630979734 	-0.002226242851 	9.40494873e-07
0.06454090063 	0.7663612798 	-0.002472515357 	1.055993339e-06
0.07419951304 	0.7710874508 	-0.002786830819 	1.121178291e-06
0.08433933041 	0.7770997237 	-0.003134506519 	1.181701219e-06
0.09500040051 	0.7841159728 	-0.003486407454 	1.22437421e-06
0.1061956352 	0.7922262071 	-0.00383967146 	1.248017627e-06
0.1179597949 	0.8015245818 	-0.004190869906 	1.251318743e-06
0.130321344 	0.8121067518 	-0.004535880198 	1.233359577e-06
0.1433016762 	0.8240699004 	-0.004869836213 	1.193953997e-06
0.1569472112 	0.8375160248 	-0.005187125424 	1.132913696e-06
0.1712794844 	0.8525427843 	-0.005481066459 	1.051213119e-06
0.1863327318 	0.8692470318 	-0.005743970615 	9.504375034e-07
0.2021452726 	0.8877280812 	-0.005967097219 	8.330564401e-07
0.218759361 	0.908078925 	-0.006140455859 	7.025391619e-07
0.2362079146 	0.9303764747 	-0.006252798986 	5.637825491e-07
0.25453251 	0.954676655 	-0.006291832657 	4.228945497e-07
0.2737761443 	0.9809977909 	-0.006244605772 	2.872866402e-07
0.2939834068 	1.009289155 	-0.006098411555 	1.653916678e-07
0.3152006523 	1.039381186 	-0.005842614192 	6.585825047e-08
0.3358220161 	1.068561013 	-0.005499662926 	2.377441582e-06
0.3374761772 	1.070902518 	-0.005472129575 	4.256876433e-09
0.360860395 	1.103151704 	-0.004993218882 	4.303412382e-08
0.3854075392 	1.134928921 	-0.004431791216 	5.758139102e-08
0.4111720159 	1.164429821 	-0.003839138358 	6.751735287e-08
0.438210622 	1.189434327 	-0.003277959715 	8.9524607e-08
0.4665851097 	1.207899186 	-0.002785091103 	1.194487357e-07
0.4963586739 	1.218511582 	-0.002358072775 	1.424099275e-07
0.5249541513 	1.221638367 	-0.001982743223 	1.527849413e-07
0.5522758587 	1.219323608 	-0.00163937996 	1.549794909e-07
0.5783785713 	1.213353276 	-0.001316219273 	1.522022233e-07
0.6033159549 	1.204809953 	-0.001008280977 	1.461986141e-07
0.6271393342 	1.194304296 	-0.0007136307538 	1.38098922e-07
0.6498978681 	1.182228806 	-0.0004317915794 	1.288998612e-07
0.6716388579 	1.168881459 	-0.0001648871267 	1.189483971e-07
0.6924075883 	1.154337664 	8.76040797e-05 	1.087880663e-07
0.7122473915 	1.13834779 	0.0003308831386 	9.887701835e-08
0.7311997145 	1.120676584 	0.0005686022388 	8.742228239e-08
0.7493041883 	1.101429447 	0.0007989287024 	7.226771199e-08
0.766598697 	1.080940688 	0.001015798104 	5.233040129e-08
0.7831194479 	1.059557098 	0.001213461808 	2.746343155e-08
0.7989010423 	1.037564663 	0.001386858884 	-1.7831045e-09
0.8139765386 	1.015216368 	0.001531060124 	-3.548296034e-08
0.8283775155 	0.9927873384 	0.001640252904 	-7.460120147e-08
0.8421341493 	0.9706014889 	0.001707535645 	-1.182904929e-07
0.8552752687 	0.9489749787 	0.001727718605 	-1.602850465e-07
0.8678284096 	0.9280420323 	0.001703877312 	-1.932729913e-07
0.8798198791 	0.9076510914 	0.001644098914 	-2.136572313e-07
0.8912748083 	0.8875535777 	0.001556874325 	-2.224710747e-07
0.9022172026 	0.8675942581 	0.001448624302 	-2.230772744e-07
0.9126699947 	0.8476431215 	0.001322662566 	-2.172730037e-07
0.9226550909 	0.8275031651 	0.00118303455 	-2.060549873e-07
0.9321934175 	0.8084953475 	0.0010457114 	-1.915575136e-07
0.9383927341 	0.7925235388 	0.000930092231 	-1.771375478e-07
0.9441241734 	0.778249692 	0.0008296593529 	-1.631716789e-07
0.9494230473 	0.7639864109 	0.0007340707932 	-1.487237506e-07
0.9543220024 	0.7495959776 	0.0006440492804 	-1.341331182e-07
0.9588512216 	0.7349270314 	0.0005601088939 	-1.196903942e-07
0.9630386097 	0.7198089175 	0.0004825702124 	-1.056429921e-07
0.9669099656 	0.7040437992 	0.0004115879051 	-9.219481822e-08
0.970489141 	0.6873955236 	0.0003471832151 	-7.950856063e-08
0.9737981874 	0.6695735539 	0.0002892709881 	-6.770750852e-08
0.9768574921 	0.6502091187 	0.0002376814723 	-5.687705752e-08
0.9796859038 	0.6288186412 	0.0001921763813 	-4.706607838e-08
0.9823008484 	0.604745665 	0.000152451181 	-3.828711206e-08
0.9847184369 	0.5770652937 	0.0001181229509 	-3.049977476e-08
0.9869535641 	0.5444108997 	8.896851749e-05 	-2.366478016e-08
0.9890200009 	0.5081747197 	6.650483775e-05 	-1.81794637e-08
0.9902735285 	0.4724767928 	5.103717588e-05 	-1.421821013e-08
0.9915270561 	0.4334835055 	3.903124251e-05 	-1.102175995e-08
0.9927805837 	0.3838721284 	2.817103415e-05 	-8.059368118e-09
0.9940341113 	0.3212237192 	1.857078468e-05 	-5.377904231e-09
0.9952876388 	0.2467128281 	1.062781673e-05 	-3.113503222e-09
0.9965411664 	0.1656629313 	4.815790301e-06 	-1.42784319e-09
0.997794694 	0.08287214149 	1.327591614e-06 	-3.991209664e-10
0.9990482216 	0.02583711045 	1.009329607e-07 	-3.166338335e-11
