0.4329705831 	1.648784437e-07 	-7.082017737e-10 	1.097604505e-12 	1.648674653e-07 	-1.073081684e-10 	3.142832114e-10
0.4329705831 	1.648784437e-07 	-7.082017737e-10 	1.097604505e-12 	1.648674653e-07 	-1.073081684e-10 	3.142832114e-10
0.4336582197 	8.666938179e-06 	-2.820158667e-07 	3.00627079e-10 	8.770751958e-06 	-3.400459309e-09 	1.671949094e-08
0.4343458845 	8.318853175e-05 	-8.511183653e-06 	6.747307515e-09 	8.664014115e-05 	-2.227226696e-08 	1.651601894e-07
0.435033562 	0.0003565765375 	-7.362813996e-05 	4.359816862e-08 	0.000386977664 	-5.705661497e-08 	7.376869825e-07
0.435721237 	0.0009492825599 	-0.0003029190687 	1.299961557e-07 	0.001074712951 	-4.174654235e-08 	2.048701586e-06
0.4364088945 	0.001825496703 	-0.0007476377866 	2.276094422e-07 	0.002134201962 	1.204770724e-07 	4.068382111e-06
0.4370965192 	0.002799919254 	-0.001302563303 	2.792073098e-07 	0.003334479748 	4.300459516e-07 	6.356445171e-06
0.4377840962 	0.003701761301 	-0.001822087896 	2.771160983e-07 	0.004443076306 	7.99864652e-07 	8.469738329e-06
0.4384716106 	0.004577756549 	-0.002293667893 	1.987209252e-07 	0.005499369414 	1.219679858e-06 	1.048332657e-05
0.4396048007 	0.005445923789 	-0.002733448631 	8.001110548e-08 	0.006524895407 	1.691454175e-06 	1.243826415e-05
0.4408301834 	0.006154788374 	-0.003087027052 	-3.289814353e-08 	0.007347124908 	2.141642733e-06 	1.40056621e-05
0.442155138 	0.006666360176 	-0.003340326344 	-1.55865953e-07 	0.007925061286 	2.529950121e-06 	1.510736947e-05
0.4435875973 	0.007027957042 	-0.003518115709 	-2.775603519e-07 	0.008316984353 	2.84388716e-06 	1.585448376e-05
0.4451393746 	0.007277137361 	-0.003639217579 	-3.874365629e-07 	0.008569153633 	3.075609315e-06 	1.63351885e-05
0.4468251342 	0.007441833918 	-0.003717618706 	-4.797490863e-07 	0.008716261709 	3.224141806e-06 	1.661561738e-05
0.4486476539 	0.007543706048 	-0.00375654329 	-5.682592521e-07 	0.008782854217 	3.294557541e-06 	1.674256121e-05
0.4506179725 	0.007598186144 	-0.003763310361 	-6.321682786e-07 	0.008788100906 	3.292323933e-06 	1.675256285e-05
0.4527480137 	0.007615001187 	-0.003750481141 	-6.596150912e-07 	0.008746590449 	3.228381643e-06 	1.667343238e-05
0.4550506568 	0.007601605499 	-0.003721604744 	-6.726816063e-07 	0.008667172278 	3.115370668e-06 	1.652203928e-05
0.457547585 	0.007563396527 	-0.003678900723 	-6.687201805e-07 	0.008556214079 	2.96001646e-06 	1.631052211e-05
0.4602553165 	0.007504229168 	-0.003624607403 	-6.507300132e-07 	0.008418804276 	2.770677117e-06 	1.604858084e-05
0.4631820544 	0.007427015878 	-0.003560689194 	-6.224147556e-07 	0.008258966114 	2.556038954e-06 	1.574388487e-05
0.4663454095 	0.007333933858 	-0.003487859021 	-5.878063565e-07 	0.008079044282 	2.324310144e-06 	1.540090385e-05
0.4697750269 	0.007209693151 	-0.003406936571 	-5.32425562e-07 	0.007856703023 	2.004863482e-06 	1.497705962e-05
0.4752797523 	0.007036444186 	-0.003296353512 	-4.550653376e-07 	0.007563164644 	1.592439158e-06 	1.441749388e-05
0.4810546637 	0.006826264001 	-0.003159501294 	-3.924580231e-07 	0.007223409686 	1.220058272e-06 	1.37698265e-05
0.4871275915 	0.006592981849 	-0.003019967131 	-3.51983403e-07 	0.006867285286 	9.241829208e-07 	1.309095442e-05
0.4935010475 	0.006336181074 	-0.00287471209 	-3.324737017e-07 	0.006494035575 	6.982545414e-07 	1.237943673e-05
0.5001970079 	0.006054380879 	-0.002721917495 	-3.313748265e-07 	0.006102285421 	5.321221197e-07 	1.163265205e-05
0.5072313365 	0.005746192078 	-0.002559506018 	-3.45154871e-07 	0.005690799789 	4.15303883e-07 	1.084824607e-05
0.5146128017 	0.005410942839 	-0.002385602649 	-3.703307947e-07 	0.005259103114 	3.374154737e-07 	1.002531223e-05
0.522372535 	0.005048968814 	-0.002198704669 	-4.025895329e-07 	0.004808128856 	2.87950245e-07 	9.165629951e-06
0.5305185055 	0.004662419694 	-0.001998422808 	-4.385889178e-07 	0.004341368928 	2.552556914e-07 	8.275855799e-06
0.5390696397 	0.004256758598 	-0.00178425929 	-4.789768586e-07 	0.003866403438 	2.236567297e-07 	7.370439564e-06
0.5480480231 	0.003842268034 	-0.001555243943 	-5.159902523e-07 	0.003395663574 	1.829162469e-07 	6.473078549e-06
0.5574787398 	0.003432894908 	-0.001313154951 	-5.345029092e-07 	0.002942910005 	1.331557351e-07 	5.610004409e-06
0.5673778745 	0.003044250217 	-0.001062974408 	-5.272342647e-07 	0.002519773504 	7.412712854e-08 	4.803388633e-06
0.5777687301 	0.002693885068 	-0.0008113194802 	-4.958483145e-07 	0.002136947866 	2.828209265e-10 	4.073616566e-06
0.5886753022 	0.002402391892 	-0.000565642851 	-4.494354375e-07 	0.001806253099 	-9.55879857e-08 	3.443220429e-06
0.6001224249 	0.002190645535 	-0.0003327177586 	-4.014808075e-07 	0.001538508895 	-2.166174161e-07 	2.93282556e-06
0.612135919 	0.002073045705 	-0.0001176556344 	-3.641430547e-07 	0.001334291245 	-3.534202419e-07 	2.54352996e-06
0.6247427427 	0.002051495254 	7.963205506e-05 	-3.494952486e-07 	0.001190700964 	-4.948157676e-07 	2.269806976e-06
0.6379711434 	0.00210715128 	0.0002614616699 	-3.3515044e-07 	0.001109866357 	-6.43222346e-07 	2.115713748e-06
0.6518521492 	0.002201968125 	0.0004176648371 	-3.974008771e-07 	0.001105187478 	-5.79214113e-07 	2.106794504e-06
0.6664163046 	0.002318102128 	0.0005477935463 	-4.415066634e-07 	0.001169617192 	-4.513555924e-07 	2.229615447e-06
0.6816956859 	0.002457110355 	0.0006669899365 	-3.957476967e-07 	0.001283581422 	-4.772647232e-07 	2.446862944e-06
0.6977261201 	0.002618675068 	0.0007811647093 	-3.763562173e-07 	0.001443220318 	-5.143418941e-07 	2.751179049e-06
0.7145439933 	0.002807940354 	0.0008959208796 	-3.63248824e-07 	0.001637297285 	-5.53364343e-07 	3.121143689e-06
0.7306948353 	0.003021177395 	0.001015543381 	-3.342435851e-07 	0.001853572268 	-5.777265503e-07 	3.533423916e-06
0.7461260558 	0.003251402496 	0.001140616047 	-2.874418985e-07 	0.002090169939 	-5.811967463e-07 	3.984444836e-06
0.7608694262 	0.003499354508 	0.001273494654 	-2.280754612e-07 	0.002350307554 	-5.627248895e-07 	4.480339431e-06
0.7749560395 	0.003767974682 	0.001415571112 	-1.641021734e-07 	0.002636349892 	-5.26762487e-07 	5.025615629e-06
0.7884153044 	0.004059364457 	0.001566708649 	-1.0299905e-07 	0.002947185548 	-4.81887248e-07 	5.618154782e-06
0.8012751941 	0.004373550455 	0.001725653165 	-4.935723657e-08 	0.003278605444 	-4.364307641e-07 	6.249933217e-06
0.8135625446 	0.004706899484 	0.001890086073 	-5.089910089e-09 	0.003623974116 	-3.967283061e-07 	6.908301897e-06
0.8253029381 	0.005051701288 	0.002056742003 	2.959107441e-08 	0.003975263821 	-3.665937492e-07 	7.577957711e-06
0.8365207756 	0.00539690516 	0.00222157336 	5.568254716e-08 	0.004323765962 	-3.466755754e-07 	8.242299652e-06
0.8472393403 	0.005731354691 	0.002380693442 	7.529166003e-08 	0.004661738697 	-3.343252107e-07 	8.886569621e-06
0.8574808552 	0.006047876645 	0.002531725097 	9.061051138e-08 	0.004984619415 	-3.260215903e-07 	9.502070008e-06
0.8672665371 	0.006343386234 	0.002673728038 	1.030523347e-07 	0.00529060721 	-3.19382432e-07 	1.008536779e-05
0.8766166457 	0.006616737815 	0.002806360652 	1.13616208e-07 	0.005578961106 	-3.125738344e-07 	1.063505046e-05
0.8855505324 	0.006867689049 	0.002929550272 	1.232873245e-07 	0.005849408044 	-3.036338177e-07 	1.115059749e-05
0.8940866825 	0.007096563574 	0.003043428528 	1.330572841e-07 	0.006102082815 	-2.905177084e-07 	1.163226583e-05
0.9022427488 	0.007304093208 	0.003148302493 	1.438958368e-07 	0.006337506264 	-2.712021262e-07 	1.208104836e-05
0.910035603 	0.00749133324 	0.003244633043 	1.567119361e-07 	0.006556555896 	-2.437601018e-07 	1.249861784e-05
0.9174813694 	0.007659580601 	0.003333004266 	1.722888922e-07 	0.006760411257 	-2.064604775e-07 	1.288722281e-05
0.9245954548 	0.007810259435 	0.003414068277 	1.911433908e-07 	0.006950432223 	-1.580650377e-07 	1.324945559e-05
0.9313925819 	0.007944733733 	0.003488450544 	2.133160049e-07 	0.007127942553 	-9.833797555e-08 	1.358783962e-05
0.9378868249 	0.008064002965 	0.0035566016 	2.381525296e-07 	0.00729390348 	-2.85979987e-08 	1.390420727e-05
0.9440916333 	0.00816826982 	0.003618581624 	2.641955191e-07 	0.007448431132 	4.792818033e-08 	1.419877992e-05
0.9500198624 	0.008256412215 	0.003673776828 	2.892141446e-07 	0.00759010938 	1.261597144e-07 	1.446885804e-05
0.9556838002 	0.00832542534 	0.003720589967 	3.102788867e-07 	0.007715204912 	1.997461659e-07 	1.470732489e-05
0.9610951902 	0.008367770743 	0.003753986292 	3.229855507e-07 	0.007810304951 	2.560602815e-07 	1.4888612e-05
0.9646127168 	0.008383424003 	0.003772757818 	3.257440386e-07 	0.007870611406 	2.88781197e-07 	1.500357286e-05
0.9678650909 	0.008379732436 	0.003781497178 	3.204334878e-07 	0.007907863278 	3.029401069e-07 	1.507458528e-05
0.9708722772 	0.008357279777 	0.003781344207 	3.058169364e-07 	0.007925995082 	2.985428123e-07 	1.510914954e-05
0.9736527409 	0.008313171472 	0.003770871091 	2.788147016e-07 	0.007921761881 	2.706726727e-07 	1.510107988e-05
0.9762235591 	0.008243733692 	0.00374835929 	2.383019968e-07 	0.007891434829 	2.16710782e-07 	1.50432681e-05
0.9786005247 	0.008144530427 	0.003711752018 	1.862562508e-07 	0.007830587747 	1.380156414e-07 	1.492727664e-05
0.9807982433 	0.008010146158 	0.003658526841 	1.233422022e-07 	0.00773377112 	3.578078469e-08 	1.474271725e-05
0.9828302215 	0.007833753286 	0.003585486027 	5.15056816e-08 	0.007594047183 	-8.611544979e-08 	1.447636459e-05
0.9847089499 	0.007606432926 	0.003488436807 	-2.581262116e-08 	0.007402292121 	-2.206436307e-07 	1.411082614e-05
0.9864459788 	0.007316168303 	0.00336172273 	-1.035023506e-07 	0.007146181941 	-3.572396464e-07 	1.362260896e-05
0.9880519892 	0.006946446483 	0.003197577298 	-1.745928093e-07 	0.006808796671 	-4.813848134e-07 	1.297945886e-05
0.9895368579 	0.006474516413 	0.002985336032 	-2.301186215e-07 	0.006366897101 	-5.742044883e-07 	1.213707546e-05
0.9909097179 	0.00586971083 	0.002710601785 	-2.589267467e-07 	0.005789308255 	-6.13142318e-07 	1.103603059e-05
0.9921790144 	0.005092689687 	0.002354917725 	-2.513996885e-07 	0.00503625183 	-5.779460538e-07 	9.600495742e-06
0.9933525564 	0.004184766512 	0.001910968864 	-2.557317065e-07 	0.004147573803 	-4.88314291e-07 	7.906428428e-06
0.9940644621 	0.003294001976 	0.001452501527 	-2.370975915e-07 	0.003270150123 	-3.872495331e-07 	6.233815025e-06
0.9947763828 	0.002409151814 	0.0009944964252 	-1.655901719e-07 	0.002394792661 	-2.839067463e-07 	4.565140409e-06
0.9954883185 	0.001503007505 	0.0005381694345 	-1.003791527e-07 	0.001495858665 	-1.838849009e-07 	2.851522368e-06
0.9962002692 	0.0007433968248 	0.000203857648 	-4.80690531e-08 	0.0007406656623 	-1.031444745e-07 	1.41191461e-06
0.9969122348 	0.0002664080027 	4.646488309e-05 	-1.533165151e-08 	0.0002656617228 	-4.616247214e-08 	5.064250806e-07
0.9976242154 	5.983813544e-05 	5.105347946e-06 	-2.458330252e-09 	5.970474847e-05 	-1.391230149e-08 	1.138138447e-07
0.998336211 	6.025041749e-06 	1.615223661e-07 	-1.186498647e-10 	6.013232538e-06 	-2.091110104e-09 	1.146289251e-08
0.9990482216 	1.266998561e-07 	4.373329629e-10 	-5.265832397e-13 	1.26458227e-07 	-7.665837349e-11 	2.410645278e-10
