0 	0.5137064206 	-1.733548282e-14 	-5.407407356e-21
0.001185911842 	0.5137102733 	-0.000130509969 	1.033539382e-07
0.002371816444 	0.5137334644 	-0.0002452631554 	1.979483749e-07
0.00355771378 	0.5137819128 	-0.000360133666 	2.962516495e-07
0.004743603834 	0.513851777 	-0.0004780558785 	4.007242208e-07
0.005929486598 	0.5139425196 	-0.0005965179235 	5.093439446e-07
0.007115362072 	0.5140539612 	-0.0007150494457 	6.217169472e-07
0.008301230265 	0.5141860161 	-0.0008336032903 	7.377921694e-07
0.009487091198 	0.5143671639 	-0.0009723535922 	8.757391819e-07
0.01144196515 	0.5146457411 	-0.001153620938 	1.06848818e-06
0.01355640018 	0.515031137 	-0.001365369965 	1.302126766e-06
0.01584341844 	0.5155213971 	-0.00159415966 	1.567282978e-06
0.01831710477 	0.5161377383 	-0.001841437035 	1.868404201e-06
0.02099781334 	0.5169063335 	-0.002109020768 	2.210874575e-06
0.02391004577 	0.5178576395 	-0.002398554475 	2.600959911e-06
0.02705997438 	0.519025351 	-0.002711140423 	3.044608393e-06
0.03046699711 	0.520449014 	-0.003048060134 	3.548718135e-06
0.0341520945 	0.5221759285 	-0.003410911887 	4.12142539e-06
0.03813795885 	0.5242631145 	-0.003801618183 	4.772291863e-06
0.04246137326 	0.5267797235 	-0.004222426328 	5.512914998e-06
0.04715140118 	0.5298033364 	-0.004674943604 	6.354823275e-06
0.05222421404 	0.5334191638 	-0.005160013529 	6.957774408e-06
0.05771104867 	0.5377304575 	-0.005678912139 	7.27751815e-06
0.06366252918 	0.5435828178 	-0.006307028558 	7.63701122e-06
0.0732225143 	0.5521162764 	-0.00710820598 	7.821871356e-06
0.08326291319 	0.5630500845 	-0.007993306284 	7.906341069e-06
0.0938314251 	0.5758953354 	-0.008887182171 	7.790712582e-06
0.1049354313 	0.5908325967 	-0.009781163868 	7.465471596e-06
0.1166137765 	0.6080550034 	-0.01066448003 	6.921810054e-06
0.1288954834 	0.6277626453 	-0.01152354513 	6.155242336e-06
0.1417985882 	0.6501632305 	-0.01234166794 	5.170450573e-06
0.1553771611 	0.6754796184 	-0.01309889068 	3.975209672e-06
0.1696481102 	0.7039197628 	-0.01377076114 	2.592216237e-06
0.1846462443 	0.73567519 	-0.01432881927 	1.055437285e-06
0.1948700048 	0.7585143279 	-0.01459597152 	1.202998161e-05
0.2004116055 	0.7709024262 	-0.01474322233 	6.787659316e-07
0.2169892151 	0.8096711318 	-0.01498161229 	2.634564615e-06
0.2344095798 	0.8518789505 	-0.01500734548 	4.572161624e-06
0.2527150313 	0.897098424 	-0.01479698535 	6.421437221e-06
0.2719490732 	0.9443982724 	-0.01435012138 	8.146629903e-06
0.2921565874 	0.9921689578 	-0.01370745858 	9.774373146e-06
0.3133840422 	1.038248679 	-0.01295766462 	1.137163176e-05
0.3356797003 	1.080619654 	-0.01220593967 	1.295034555e-05
0.3590938263 	1.118276962 	-0.01151591642 	1.441583644e-05
0.3836811271 	1.151310991 	-0.01088521745 	1.5644636e-05
0.4094953506 	1.180092486 	-0.01027417518 	1.656551092e-05
0.436592476 	1.204425103 	-0.009643493536 	1.715775932e-05
0.4650344126 	1.223301889 	-0.008971597895 	1.742809498e-05
0.4948837842 	1.235326995 	-0.008268692687 	1.741083664e-05
0.5235556612 	1.240315234 	-0.007578580822 	1.713312504e-05
0.5509530041 	1.239983268 	-0.006918902329 	1.668367731e-05
0.5771295884 	1.236008814 	-0.006286375633 	1.611925847e-05
0.6021387508 	1.229401689 	-0.00567635611 	1.507013968e-05
0.6260315293 	1.220674967 	-0.005084751886 	1.399540118e-05
0.6488568693 	1.210083306 	-0.004509181591 	1.301092546e-05
0.6706620285 	1.197809656 	-0.003950659895 	1.209141084e-05
0.6914922957 	1.184052519 	-0.00341361745 	1.120298867e-05
0.7113910415 	1.169011262 	-0.002904881252 	1.036645801e-05
0.7303997748 	1.152712043 	-0.00242492101 	9.602627088e-06
0.7485582033 	1.134951027 	-0.001964088182 	8.90749405e-06
0.7659042971 	1.115591145 	-0.001514499187 	8.261044767e-06
0.7824743536 	1.094692507 	-0.001076204628 	7.635533665e-06
0.7983030674 	1.072403969 	-0.0006526522257 	7.039093761e-06
0.8134235879 	1.048897593 	-0.0002465822033 	6.465387523e-06
0.8278675807 	1.024318985 	0.0001400939486 	5.904536255e-06
0.8416653099 	0.9987678157 	0.0005052597219 	5.347891511e-06
0.8548456896 	0.9723094731 	0.0008456769048 	4.7883765e-06
0.8674363358 	0.9450071501 	0.001156400088 	4.21877463e-06
0.8794636332 	0.9169691184 	0.001430047236 	3.629783493e-06
0.8909527884 	0.8884048851 	0.001655721337 	3.014145177e-06
0.9019278773 	0.8596552232 	0.001818888572 	2.380670925e-06
0.9124119016 	0.8311129653 	0.001905903323 	1.763178641e-06
0.9224268325 	0.8029430147 	0.001915296522 	1.201839344e-06
0.931993659 	0.7770721605 	0.001861381959 	7.550131597e-07
0.9382114988 	0.7558986515 	0.00177809869 	4.48209396e-07
0.9439600634 	0.7374839058 	0.001683460594 	2.25829546e-07
0.94927477 	0.7196302419 	0.001574532097 	4.878788702e-08
0.9541883629 	0.7022141844 	0.001455201892 	-8.866013101e-08
0.9587311151 	0.6850938306 	0.001329174577 	-1.917240742e-07
0.962931015 	0.6681059884 	0.001199715174 	-2.651552379e-07
0.9668139383 	0.6510606403 	0.001069600892 	-3.132153403e-07
0.970403808 	0.6337316436 	0.0009411718361 	-3.397092709e-07
0.9737227417 	0.6158418901 	0.0008163906437 	-3.480411761e-07
0.9767911874 	0.5970399272 	0.0006969025254 	-3.412758056e-07
0.9796280502 	0.5768628322 	0.0005840948108 	-3.222056306e-07
0.9822508081 	0.5546761066 	0.0004791409135 	-2.934292111e-07
0.9846756202 	0.5295739827 	0.000382993433 	-2.574376058e-07
0.9869174259 	0.5002106472 	0.000296535986 	-2.1674644e-07
0.9889900372 	0.4676175446 	0.000226438478 	-1.774579393e-07
0.9902473102 	0.4353013382 	0.0001762124509 	-1.454182927e-07
0.9915045833 	0.3996564932 	0.0001362291709 	-1.176983225e-07
0.9927618563 	0.3538609308 	9.964300734e-05 	-9.052422296e-08
0.9940191294 	0.295633023 	6.691352821e-05 	-6.434116856e-08
0.9952764024 	0.2263654528 	3.930525927e-05 	-4.026706553e-08
0.9965336755 	0.151433597 	1.844767789e-05 	-2.026051574e-08
0.9977909485 	0.0754686701 	5.324083241e-06 	-6.320705363e-09
0.9990482216 	0.02344139456 	4.685363692e-07 	-6.783283933e-10
0.9990482216 	0.02344139456 	4.685363692e-07 	-6.783283933e-10
