0.4535087612 	1.901630722e-07 	-9.314189556e-10 	2.114508494e-14 	1.900237564e-07 	-1.72618608e-12 	3.622380941e-10
0.4541665543 	9.595322437e-06 	-3.425570476e-07 	5.174727453e-12 	9.658632015e-06 	-3.859193879e-11 	1.84120371e-08
0.4548243632 	9.10421196e-05 	-9.894201455e-06 	1.05160806e-10 	9.321409275e-05 	-6.61226479e-11 	1.776919683e-07
0.4554821815 	0.000389522957 	-8.299591008e-05 	5.978829763e-10 	0.0004083755996 	1.114326072e-09 	7.784773949e-07
0.4561400026 	0.001037525309 	-0.0003335233156 	1.478056741e-09 	0.001113963568 	7.125229816e-09 	2.12352417e-06
0.45679782 	0.001994537251 	-0.0008093461681 	1.930265929e-09 	0.00218010752 	2.120434389e-08 	4.155890863e-06
0.4574556272 	0.003053020335 	-0.001393776248 	1.378565614e-09 	0.003371426383 	4.178800598e-08 	6.426875726e-06
0.4581134177 	0.004023147746 	-0.001934254227 	-5.987286622e-10 	0.004462235356 	6.464223265e-08 	8.506260803e-06
0.4587711852 	0.004952487762 	-0.002414513885 	-3.798719852e-09 	0.005495238291 	8.907553936e-08 	1.04754515e-05
0.4598554465 	0.005859250738 	-0.002856046657 	-7.953835805e-09 	0.006492281484 	1.200723783e-07 	1.237609295e-05
0.4610280966 	0.006585465735 	-0.003208761244 	-1.301326484e-08 	0.007284688609 	1.522440994e-07 	1.388664116e-05
0.4622962897 	0.007097328591 	-0.003456253471 	-1.842576429e-08 	0.007836028267 	1.82365911e-07 	1.493764779e-05
0.4636677432 	0.007449956681 	-0.003625991047 	-2.376736206e-08 	0.008207971037 	2.092215736e-07 	1.564667408e-05
0.465153436 	0.007686341973 	-0.003739014086 	-2.855916642e-08 	0.008448788102 	2.318761966e-07 	1.610573834e-05
0.4667666557 	0.007837762236 	-0.003810523877 	-3.250237091e-08 	0.008593687951 	2.499129924e-07 	1.638195773e-05
0.4685112216 	0.007927055814 	-0.003843826213 	-3.361132444e-08 	0.008666968194 	2.625098382e-07 	1.652165024e-05
0.4703978048 	0.007969902179 	-0.003847625747 	-3.223313706e-08 	0.008686607104 	2.696907353e-07 	1.655908746e-05
0.4724379414 	0.007976207502 	-0.003834939856 	-2.946639555e-08 	0.008665307523 	2.718711809e-07 	1.651848454e-05
0.4746441017 	0.007952923349 	-0.00380804413 	-2.400074742e-08 	0.008610447551 	2.688284889e-07 	1.641390618e-05
0.4770360669 	0.007904741061 	-0.003768907982 	-1.617290238e-08 	0.008527128866 	2.607847112e-07 	1.625507761e-05
0.4796296538 	0.007834852327 	-0.003719275269 	-6.066080049e-09 	0.008419070374 	2.480395237e-07 	1.604908809e-05
0.4824341288 	0.007745483593 	-0.003660546454 	6.056009217e-09 	0.008288995101 	2.310091581e-07 	1.580112847e-05
0.4854665976 	0.007638139575 	-0.003592826256 	1.980640502e-08 	0.008138176599 	2.100883712e-07 	1.551362649e-05
0.488754179 	0.00749566895 	-0.003517258788 	3.59374676e-08 	0.007945746369 	1.823420035e-07 	1.514680099e-05
0.49403189 	0.007296022573 	-0.003411424052 	5.786443752e-08 	0.00768345795 	1.478320568e-07 	1.464680636e-05
0.4995714044 	0.007052389845 	-0.003276853381 	8.131464553e-08 	0.007370593612 	1.065715345e-07 	1.405039997e-05
0.5053976193 	0.006782340337 	-0.003136779283 	1.043333888e-07 	0.007032984912 	6.587560851e-08 	1.340682396e-05
0.5115149143 	0.006485866462 	-0.002988139489 	1.269761505e-07 	0.00667022466 	2.7701711e-08 	1.271530209e-05
0.5179436728 	0.006161868255 	-0.002828907201 	1.481915851e-07 	0.006281218587 	-4.82202674e-09 	1.19737484e-05
0.5246993641 	0.005809313289 	-0.002656472723 	1.637811946e-07 	0.005864886216 	-2.680231638e-08 	1.118010319e-05
0.5317918587 	0.005428037117 	-0.002468181527 	1.653037427e-07 	0.005421261595 	-3.363725207e-08 	1.033443136e-05
0.539249349 	0.005019386886 	-0.002262333614 	1.450595289e-07 	0.004952709882 	-2.576212056e-08 	9.441241569e-06
0.547081269 	0.004587780174 	-0.002039086902 	1.007800708e-07 	0.00446567161 	-1.233281392e-08 	8.512811257e-06
0.5553061421 	0.004142672816 	-0.001799078009 	4.087834138e-08 	0.003971987981 	-6.783929714e-09 	7.571713049e-06
0.5639451972 	0.003697904728 	-0.001544710092 	-1.614090244e-08 	0.003487030069 	-1.532384366e-08 	6.647248481e-06
0.5730222399 	0.003268346391 	-0.001281796793 	-5.616855365e-08 	0.003025087279 	-3.737941795e-08 	5.766657133e-06
0.5825538661 	0.002868931578 	-0.001017255913 	-7.505245047e-08 	0.002598290453 	-7.411521727e-08 	4.953063761e-06
0.5925627104 	0.002516265721 	-0.0007580247171 	-7.367810114e-08 	0.002219007381 	-1.315739175e-07 	4.230044809e-06
0.6030721105 	0.002229358939 	-0.0005105211144 	-5.571194503e-08 	0.001900987335 	-2.182343916e-07 	3.623810213e-06
0.6141062263 	0.002025293039 	-0.0002792407491 	-2.575034858e-08 	0.001655222071 	-3.359051077e-07 	3.155313312e-06
0.6256901618 	0.001912279846 	-6.550037654e-05 	1.054186461e-08 	0.001481531805 	-4.858984031e-07 	2.82421139e-06
0.637850087 	0.001887715849 	0.0001349314604 	4.834518424e-08 	0.001374178161 	-6.648253008e-07 	2.619565508e-06
0.6506133613 	0.001934227326 	0.0003238391952 	7.987825129e-08 	0.001328830151 	-8.300986002e-07 	2.533119597e-06
0.6640097597 	0.002027359606 	0.0004985918078 	1.248206338e-07 	0.001337098461 	-9.499071188e-07 	2.548881295e-06
0.6780688014 	0.00214619122 	0.000647481254 	-5.790868176e-08 	0.001398839726 	-8.446384204e-07 	2.666577305e-06
0.6928213814 	0.002285561231 	0.0007728495845 	-2.605974761e-07 	0.001507322104 	-6.714169643e-07 	2.873374868e-06
0.7083016065 	0.002448296886 	0.0008886408364 	-2.270028678e-07 	0.001653647737 	-6.554402985e-07 	3.152312195e-06
0.7245441996 	0.002631477371 	0.0009942576694 	-1.898960747e-07 	0.001837752114 	-6.510056701e-07 	3.503266307e-06
0.7401436913 	0.002832788192 	0.001096932562 	-1.51407231e-07 	0.002046975556 	-6.167711723e-07 	3.902104338e-06
0.7550484471 	0.003051376897 	0.001206207676 	-1.043764246e-07 	0.002273591194 	-5.546742042e-07 	4.334096729e-06
0.7692886307 	0.003288491577 	0.001323641071 	-5.548681579e-08 	0.002520527926 	-4.79952083e-07 	4.804826771e-06
0.782893832 	0.003547034833 	0.001450892789 	-9.652246273e-09 	0.002791112499 	-4.011423992e-07 	5.320636172e-06
0.7958922044 	0.003829246577 	0.001588656803 	2.977710875e-08 	0.003086206979 	-3.259049633e-07 	5.883168269e-06
0.8083106308 	0.004135377484 	0.001736306599 	6.046987998e-08 	0.003403286274 	-2.61623853e-07 	6.487609532e-06
0.8201749552 	0.004462012462 	0.001891776322 	8.178686864e-08 	0.003736829669 	-2.123437888e-07 	7.123435946e-06
0.8315098739 	0.004801802261 	0.002051734691 	9.436170227e-08 	0.004079270317 	-1.785999523e-07 	7.776222999e-06
0.8423389858 	0.005144229976 	0.002211880568 	9.950464138e-08 	0.00442177202 	-1.584598987e-07 	8.429126438e-06
0.85268484 	0.005478300697 	0.002367878494 	9.930215892e-08 	0.004755867679 	-1.477886675e-07 	9.066005622e-06
0.8625689808 	0.005796447118 	0.002516818245 	9.606019513e-08 	0.005076024753 	-1.419356181e-07 	9.676313987e-06
0.8720119919 	0.006095163692 	0.002657389747 	9.124503628e-08 	0.005379786602 	-1.380598819e-07 	1.02553685e-05
0.8810335385 	0.006372996801 	0.002789032217 	8.562919388e-08 	0.005666041268 	-1.347758744e-07 	1.080104945e-05
0.8896524099 	0.006629377575 	0.002911492247 	7.977369636e-08 	0.005934204233 	-1.311318943e-07 	1.13122426e-05
0.8978865558 	0.006864291363 	0.003024734278 	7.410402007e-08 	0.006184112585 	-1.264449627e-07 	1.178863737e-05
0.9057531208 	0.007078133377 	0.003128905217 	6.893123823e-08 	0.006415992244 	-1.20247355e-07 	1.223066445e-05
0.9132684893 	0.007271631736 	0.003224310422 	6.447301605e-08 	0.006630422533 	-1.122365338e-07 	1.263942818e-05
0.9204483172 	0.007445778686 	0.003311385333 	6.087721907e-08 	0.006828282331 	-1.022205496e-07 	1.301660395e-05
0.9273075605 	0.007601747912 	0.003390654832 	5.823646922e-08 	0.007010659463 	-9.009561692e-08 	1.336426545e-05
0.9338605096 	0.007740771084 	0.00346267086 	5.658192765e-08 	0.007178707372 	-7.586820831e-08 	1.368461147e-05
0.9401208204 	0.007863922293 	0.00352790972 	5.584829677e-08 	0.007333421706 	-5.9740217e-08 	1.397953999e-05
0.9461015397 	0.007971748788 	0.003586599314 	5.580346484e-08 	0.007475269644 	-4.225992656e-08 	1.424994158e-05
0.9518151344 	0.008063712951 	0.003638447041 	5.597972603e-08 	0.007603571079 	-2.452693308e-08 	1.449451978e-05
0.957273517 	0.008137501966 	0.00368228736 	5.573709401e-08 	0.007715654023 	-8.117248398e-09 	1.470818102e-05
0.9624880696 	0.008185645917 	0.003713569271 	5.955764324e-08 	0.007800150458 	4.615318226e-09 	1.486925471e-05
0.9658774122 	0.008207641403 	0.003731361923 	6.293673664e-08 	0.007853214606 	1.342649341e-08 	1.497040973e-05
0.9690110998 	0.008211452257 	0.003740193538 	5.943268886e-08 	0.007885572675 	2.028098042e-08 	1.50320932e-05
0.971908406 	0.008198680387 	0.003741185038 	5.469377712e-08 	0.007900874781 	2.559781693e-08 	1.506126327e-05
0.974587153 	0.008167029144 	0.003733173379 	4.939344499e-08 	0.007896501796 	2.868276019e-08 	1.505292714e-05
0.9770638205 	0.008113383393 	0.003714710332 	4.354640678e-08 	0.007869369705 	2.88346319e-08 	1.500120584e-05
0.9793536466 	0.008033686098 	0.003683916687 	3.771074649e-08 	0.00781552684 	2.553645652e-08 	1.489856637e-05
0.9814707212 	0.007922583379 	0.003638340425 	3.082140954e-08 	0.007729683503 	1.849108714e-08 	1.473492511e-05
0.9834280727 	0.007772880461 	0.003574647423 	2.236538048e-08 	0.007604637538 	7.691673579e-09 	1.449655275e-05
0.9852377473 	0.007574774612 	0.003488259057 	1.258305884e-08 	0.007430496042 	-6.418437197e-09 	1.416459066e-05
0.9869108834 	0.007314767369 	0.003372860264 	1.967007351e-09 	0.007193590336 	-2.283209146e-08 	1.371298254e-05
0.98845778 	0.006974172794 	0.003219712813 	-8.713519893e-09 	0.006874994058 	-3.993432469e-08 	1.310564948e-05
0.9898879592 	0.006527285576 	0.003016836805 	-1.839205412e-08 	0.006448708013 	-5.545523157e-08 	1.22930298e-05
0.9912102257 	0.00593975948 	0.002748119866 	-2.56369631e-08 	0.005880081098 	-6.647407717e-08 	1.120906886e-05
0.99243272 	0.00516870211 	0.002393498881 	-2.905028652e-08 	0.005125951742 	-7.000658162e-08 	9.771488705e-06
0.993562969 	0.004256793368 	0.00195246942 	-3.404749604e-08 	0.004227877451 	-6.653733663e-08 	8.0595095e-06
0.9942486018 	0.003356978562 	0.001493065538 	-3.544445346e-08 	0.003337911327 	-5.938306815e-08 	6.362986714e-06
0.9949342414 	0.002459567 	0.001025062559 	-2.840503462e-08 	0.002447787591 	-4.883456881e-08 	4.666163475e-06
0.9956198877 	0.001538331081 	0.0005578935968 	-1.925268255e-08 	0.001532259379 	-3.499664625e-08 	2.920912245e-06
0.9963055409 	0.0007639311789 	0.000213498243 	-9.619910498e-09 	0.0007614995563 	-2.038015862e-08 	1.451629802e-06
0.9969912009 	0.0002754153087 	4.946464012e-05 	-2.974051227e-09 	0.0002747101433 	-8.725597285e-09 	5.236738848e-07
0.9976768676 	6.240918389e-05 	5.565279596e-06 	-4.454781762e-10 	6.227523064e-05 	-2.388225235e-09 	1.187138981e-07
0.9983625412 	6.386387612e-06 	1.827399258e-07 	-1.996324645e-11 	6.373946009e-06 	-3.188388281e-10 	1.215051264e-08
0.9990482216 	1.392401983e-07 	5.290681966e-10 	-8.483674944e-14 	1.389748243e-07 	-1.059204596e-11 	2.649246411e-10
