0.4709558481 	0.02648109582 	-6.326189219e-09 	-1.285721262e-11
0.471614208 	0.09783924753 	-5.276571061e-08 	-1.72885591e-10
0.4722725678 	0.1951850678 	-1.48460969e-07 	-5.999617787e-10
0.4729309277 	0.2912274969 	-2.542562323e-07 	-1.27103151e-09
0.4735892875 	0.3832504451 	-3.369442776e-07 	-2.14266612e-09
0.4742476473 	0.4669055276 	-3.725730009e-07 	-3.150801514e-09
0.4749060072 	0.5390139216 	-3.52649267e-07 	-4.233749464e-09
0.475564367 	0.5994334245 	-2.758526858e-07 	-5.349448e-09
0.4762227269 	0.6575278995 	-1.092261822e-07 	-6.656321422e-09
0.4773080319 	0.7190903986 	2.545873232e-07 	-8.343354898e-09
0.4784819342 	0.7765112776 	8.901103262e-07 	-1.026363658e-08
0.479751666 	0.8260938914 	1.82763531e-06 	-1.22502818e-08
0.4811250504 	0.8696321444 	3.133544556e-06 	-1.430159154e-08
0.4826105488 	0.9084832341 	4.883134717e-06 	-1.64292681e-08
0.4842173135 	0.9436675845 	7.161686791e-06 	-1.865514995e-08
0.4859552439 	0.9759540974 	1.006755717e-05 	-2.100625362e-08
0.4878350474 	1.005926747 	1.371470035e-05 	-2.350953653e-08
0.4898683057 	1.034033936 	1.823541204e-05 	-2.618753267e-08
0.4920675457 	1.060624121 	2.378391624e-05 	-2.90558444e-08
0.4944463172 	1.085971598 	3.054123253e-05 	-3.212310325e-08
0.497019276 	1.110296125 	3.872042212e-05 	-3.539373496e-08
0.4998022741 	1.133780001 	4.856701267e-05 	-3.887360733e-08
0.5028124578 	1.156586365 	6.035740929e-05 	-4.257218858e-08
0.506068373 	1.181640984 	7.637874537e-05 	-4.699021305e-08
0.5112857627 	1.210683667 	0.0001000090415 	-5.257980789e-08
0.5167584128 	1.240006579 	0.0001307257994 	-5.883070579e-08
0.5224988119 	1.267323567 	0.0001671920196 	-6.530853438e-08
0.5285200595 	1.293034424 	0.0002101404973 	-7.203653223e-08
0.5348358961 	1.317436679 	0.0002603011225 	-7.902050349e-08
0.5414607345 	1.340717741 	0.0003182764238 	-8.624493878e-08
0.5484096926 	1.362925646 	0.0003841367273 	-9.366202123e-08
0.5556986279 	1.383913507 	0.0004565036478 	-1.011597379e-07
0.5633441738 	1.403321189 	0.0005317263213 	-1.084061976e-07
0.5713637774 	1.420760709 	0.0006062797 	-1.149214962e-07
0.5797757394 	1.436182521 	0.0006779906169 	-1.203388928e-07
0.588599256 	1.449705718 	0.0007451993243 	-1.243615634e-07
0.5978544624 	1.461099453 	0.0008026739866 	-1.268665719e-07
0.607562479 	1.469935239 	0.0008419178595 	-1.276969154e-07
0.6177454595 	1.476004967 	0.0008565548977 	-1.269093324e-07
0.6284266415 	1.479456208 	0.000844511989 	-1.25251165e-07
0.6396303994 	1.480751543 	0.0008091955392 	-1.234267273e-07
0.6513823003 	1.48044928 	0.0007565157272 	-1.215635066e-07
0.6637091619 	1.478964862 	0.0006913577984 	-1.194528178e-07
0.6766391143 	1.476519794 	0.0006168870378 	-1.168577564e-07
0.6902016635 	1.473204721 	0.0005352035529 	-1.136203175e-07
0.7044277593 	1.469027737 	0.0004478033414 	-1.096636146e-07
0.7193498657 	1.463936983 	0.0003559650212 	-1.049454221e-07
0.7350020349 	1.45796289 	0.0002630935175 	-9.952042266e-08
0.7500308009 	1.45134106 	0.0001752041632 	-9.361400693e-08
0.7643871251 	1.444214795 	9.584761761e-05 	-8.743311531e-08
0.7781010947 	1.436572437 	2.628787464e-05 	-8.11751512e-08
0.7912014512 	1.428348595 	-3.231245977e-05 	-7.504027983e-08
0.8037156498 	1.41935625 	-7.91092065e-05 	-6.91612148e-08
0.8156699174 	1.409325181 	-0.0001133739689 	-6.350979035e-08
0.8270893073 	1.398102093 	-0.0001342307466 	-5.807216718e-08
0.837997752 	1.385707355 	-0.0001417913226 	-5.300454714e-08
0.8484181129 	1.372246618 	-0.0001376032328 	-4.849176879e-08
0.8583722288 	1.357851513 	-0.0001241625722 	-4.466428899e-08
0.8678809611 	1.342644183 	-0.0001043267492 	-4.152477358e-08
0.8769642379 	1.326721038 	-8.077871424e-05 	-3.897301684e-08
0.8856410957 	1.310153138 	-5.574749712e-05 	-3.687583866e-08
0.8939297192 	1.292993301 	-3.097221377e-05 	-3.511168367e-08
0.9018474793 	1.275279549 	-7.759370425e-06 	-3.357785623e-08
0.9094109698 	1.257033559 	1.296112502e-05 	-3.218684811e-08
0.9166360422 	1.238256901 	3.058475555e-05 	-3.086659804e-08
0.9235378383 	1.218926591 	4.477941704e-05 	-2.95617188e-08
0.9301308229 	1.198990096 	5.543249803e-05 	-2.823203522e-08
0.9364288132 	1.178359003 	6.260108303e-05 	-2.684709989e-08
0.9424450084 	1.156899986 	6.646857158e-05 	-2.537999715e-08
0.948192017 	1.134421082 	6.731137484e-05 	-2.380777592e-08
0.9536818834 	1.110650619 	6.548253578e-05 	-2.212321348e-08
0.9589261131 	1.085205669 	6.141930842e-05 	-2.034146545e-08
0.9639356968 	1.059800985 	5.62070213e-05 	-1.860939565e-08
0.9671916133 	1.037350213 	5.125197529e-05 	-1.71257238e-08
0.9702017979 	1.016522238 	4.672614334e-05 	-1.581959005e-08
0.9729847967 	0.99501647 	4.228302649e-05 	-1.456104875e-08
0.9755577559 	0.9726955241 	3.797724789e-05 	-1.33485631e-08
0.9779365277 	0.9493961002 	3.38543957e-05 	-1.217804183e-08
0.9801357679 	0.9249206404 	2.994953067e-05 	-1.104601189e-08
0.9821690261 	0.8990259129 	2.628735567e-05 	-9.949391768e-09
0.9840488294 	0.8713954497 	2.287155372e-05 	-8.888345925e-09
0.9857867595 	0.8415864231 	1.969158744e-05 	-7.864587845e-09
0.9873935238 	0.8089984538 	1.673247525e-05 	-6.879621181e-09
0.9888790217 	0.7728751128 	1.398447328e-05 	-5.934516282e-09
0.9902524056 	0.7322644291 	1.145110631e-05 	-5.029058462e-09
0.9915221368 	0.6859397735 	9.134794572e-06 	-4.165131575e-09
0.9926960384 	0.6323206978 	7.037993478e-06 	-3.348433156e-09
0.9937813429 	0.5749248252 	5.315257512e-06 	-2.645262416e-09
0.9944397027 	0.5209078296 	4.059038833e-06 	-2.107298641e-09
0.9950980625 	0.4652657838 	3.04063616e-06 	-1.653430038e-09
0.9957564224 	0.4001006325 	2.111483056e-06 	-1.219826054e-09
0.9964147822 	0.3263561432 	1.31863414e-06 	-8.228989769e-10
0.9970731421 	0.2470002848 	7.070531779e-07 	-4.841379803e-10
0.9977315019 	0.1652093974 	2.954218108e-07 	-2.255917101e-10
0.9983898617 	0.08271334364 	7.209311004e-08 	-6.277470357e-11
0.9990482216 	0.02575578741 	2.748268654e-09 	-4.068912309e-12
