0.3675481046 	0.03614416871 	0.005196540781 	-2.205189088e-06
0.3682280563 	0.136688888 	0.01941092057 	-7.713070613e-06
0.3689080904 	0.2706581647 	0.03824157273 	-1.377753929e-05
0.3695881737 	0.4003083143 	0.05650827299 	-1.82084044e-05
0.3702682733 	0.5214274922 	0.07355010091 	-2.086317071e-05
0.3709483563 	0.6288614932 	0.08862681987 	-2.175588486e-05
0.3716283901 	0.7207802434 	0.1014870562 	-2.113499881e-05
0.372308342 	0.7989326164 	0.1123832429 	-1.929579754e-05
0.3729881798 	0.8754643031 	0.1230144692 	-1.665224748e-05
0.3741085564 	0.9569170108 	0.1342680865 	-1.028147018e-05
0.3753197791 	1.033169903 	0.1447220033 	-2.054701043e-06
0.375599743 	1.04743759 	0.1466586671 	8.189946449e-05
0.3766221594 	1.099917017 	0.1537869239 	-7.210607143e-06
0.3780276331 	1.158896307 	0.1616950362 	-1.774636908e-05
0.3795461147 	1.209981386 	0.168405936 	-2.941557184e-05
0.38118616 	1.25249068 	0.1737938619 	-4.167745538e-05
0.382990301 	1.285944283 	0.177763751 	-5.432233316e-05
0.3849565428 	1.310510668 	0.1803149404 	-6.700957082e-05
0.3870802956 	1.327223471 	0.1815795721 	-7.953446236e-05
0.3893739786 	1.337727584 	0.1817982916 	-9.216731381e-05
0.3918509678 	1.343926854 	0.1812656167 	-0.0001054104933
0.3945256689 	1.347531025 	0.1802391769 	-0.0001195083482
0.3974567964 	1.34966956 	0.1788687603 	-0.0001346259117
0.4006564924 	1.350921169 	0.1772292623 	-0.0001505051198
0.4041098362 	1.351609756 	0.1751301005 	-0.0001664401242
0.4096278673 	1.351734083 	0.1723201159 	-0.0001911894268
0.4155390149 	1.351114556 	0.169066922 	-0.000214776342
0.4217163773 	1.349784073 	0.1655932329 	-0.0002357303469
0.4282842492 	1.347805526 	0.1619011962 	-0.0002555624581
0.4351862297 	1.345323306 	0.1580469269 	-0.0002392990473
0.4425160336 	1.342500885 	0.1540685665 	-0.0002040014493
0.4502124697 	1.339430303 	0.1499760713 	-0.0001705473563
0.4584108258 	1.336148188 	0.14577221 	-0.0001385551084
0.4670372853 	1.332667212 	0.1414694272 	-0.0001085942036
0.4761512484 	1.328982539 	0.1370733525 	-8.069175166e-05
0.485818264 	1.325079825 	0.1325782602 	-5.487862614e-05
0.4960192296 	1.320954367 	0.1279936692 	-3.147142872e-05
0.5067932652 	1.316600215 	0.1233272773 	-1.056018047e-05
0.5131815693 	1.314023473 	0.1206602117 	-0.0001330064782
0.5181666776 	1.311999946 	0.1185824226 	-7.595052242e-06
0.5301725936 	1.307142931 	0.1137613534 	-2.301221458e-05
0.5428573379 	1.302028818 	0.108866588 	-3.593826365e-05
0.5562518477 	1.296647685 	0.1039048169 	-4.637364068e-05
0.5703859142 	1.290987715 	0.09888325873 	-5.436223839e-05
0.5852887996 	1.285034029 	0.09380913724 	-5.999461695e-05
0.6009899118 	1.278767499 	0.08868929252 	-6.340820501e-05
0.617520051 	1.272161283 	0.08352888871 	-6.478300913e-05
0.6349300328 	1.265180369 	0.07833166706 	-6.433774553e-05
0.6532307865 	1.257781676 	0.07310059754 	-6.230142498e-05
0.6724717993 	1.250077675 	0.06794600365 	-5.904583462e-05
0.6909694699 	1.242388744 	0.06310404506 	-5.504284735e-05
0.7086611108 	1.234859003 	0.05864545287 	-5.077584901e-05
0.7255708759 	1.227456245 	0.05452887225 	-4.648696708e-05
0.7417317482 	1.220138269 	0.05071672261 	-4.232840135e-05
0.7571765115 	1.212862109 	0.04717570334 	-3.83846616e-05
0.7719342461 	1.205584597 	0.04387775429 	-3.470167327e-05
0.7860354729 	1.198262201 	0.04079838118 	-3.129859402e-05
0.7995094072 	1.190851281 	0.03791628959 	-2.817739975e-05
0.8123840043 	1.183308357 	0.03521309029 	-2.532987875e-05
0.8246859993 	1.175589854 	0.03267278962 	-2.274180845e-05
0.8364409438 	1.167651768 	0.03028142786 	-2.039579656e-05
0.8476732447 	1.159449061 	0.02802678559 	-1.827316105e-05
0.8584062052 	1.150934263 	0.02589812343 	-1.635511582e-05
0.8686620678 	1.142054916 	0.02388592742 	-1.462349341e-05
0.8784620605 	1.13275002 	0.02198163393 	-1.306117624e-05
0.8878264473 	1.122946533 	0.02017744579 	-1.165238898e-05
0.8967745857 	1.112557966 	0.01846601866 	-1.038279128e-05
0.9053249112 	1.101487408 	0.01684015483 	-9.23876524e-06
0.9134950629 	1.089635829 	0.0152928698 	-8.207250731e-06
0.9213018986 	1.07691353 	0.01381741475 	-7.276196352e-06
0.9287615068 	1.063250051 	0.01240710009 	-6.435022178e-06
0.9358892665 	1.048598045 	0.01105552276 	-5.6751473e-06
0.9426998817 	1.032927058 	0.009756286122 	-4.988348667e-06
0.9492073971 	1.016196576 	0.008503371598 	-4.36023549e-06
0.9554252447 	0.9997277373 	0.007388282907 	-3.807259874e-06
0.9594672468 	0.9853700556 	0.006509114165 	-3.400720876e-06
0.9632047455 	0.9720615132 	0.005774892143 	-3.052520281e-06
0.9666606421 	0.9582072659 	0.005094738139 	-2.727928238e-06
0.9698561212 	0.9436265987 	0.004467442804 	-2.43020714e-06
0.9728107789 	0.9281023633 	0.003889983033 	-2.156630356e-06
0.9755427402 	0.9113676666 	0.00336009956 	-1.900790976e-06
0.9780687692 	0.8930603009 	0.00287656743 	-1.660741524e-06
0.9804043711 	0.8726567184 	0.00243793529 	-1.43617333e-06
0.9825638864 	0.8494868413 	0.002043007075 	-1.223670127e-06
0.9845605778 	0.8227895453 	0.001690971829 	-1.02449535e-06
0.9864067108 	0.791702152 	0.001379992834 	-8.416615314e-07
0.9881136285 	0.7552066537 	0.001107455501 	-6.767288949e-07
0.989691821 	0.7120522888 	0.0008703340698 	-5.306509392e-07
0.9911509889 	0.6606914324 	0.0006653874678 	-4.037703267e-07
0.9925001029 	0.6048133025 	0.0005033684131 	-3.039295303e-07
0.9933185273 	0.552011803 	0.0003885993314 	-2.348135841e-07
0.9941369776 	0.4976435222 	0.0002967012267 	-1.801468451e-07
0.9949554536 	0.433322008 	0.0002122549506 	-1.303807788e-07
0.9957739555 	0.358834422 	0.000138437515 	-8.657144362e-08
0.9965924833 	0.2761286409 	7.938092907e-05 	-5.056804444e-08
0.9974110369 	0.1878704721 	3.405934678e-05 	-2.278131037e-08
0.9982296163 	0.09567451431 	-1.213683068e-05 	1.30499765e-09
0.9990482216 	0.02966689726 	-2.339064049e-05 	8.106590008e-09
0.9990482216 	0.02966689726 	-2.339064049e-05 	8.106590008e-09
