0 	0.008216725445 	-2.52512745e-16 	1.081308061e-18 	4.262598283e-15 	1.861090603e-16 	8.125697055e-18
0.001176443791 	0.008175414404 	9.42894419e-05 	-1.726042657e-07 	0.01551647132 	1.330313758e-06 	2.957870692e-05
0.002352879192 	0.008160465501 	-0.0001304314962 	-8.699956811e-08 	0.01579769718 	1.145726242e-06 	3.011480157e-05
0.003529306172 	0.008182758923 	-0.0002193024162 	-1.10688075e-07 	0.01582972461 	1.1304375e-06 	3.017585475e-05
0.004705724713 	0.008180840756 	-0.0002987412076 	-1.461396996e-07 	0.01585813903 	1.126568857e-06 	3.023002053e-05
0.005882134805 	0.008186954503 	-0.0003758588824 	-1.869834305e-07 	0.01586640057 	1.139863525e-06 	3.024576933e-05
0.007058536448 	0.008195505375 	-0.0004520952144 	-2.315412603e-07 	0.01587161799 	1.15776875e-06 	3.025571518e-05
0.008234929655 	0.008205389644 	-0.0005277597827 	-2.789179171e-07 	0.01587696514 	1.178007593e-06 	3.026590832e-05
0.009411314447 	0.008218588305 	-0.0006149610878 	-3.374055415e-07 	0.01588170034 	1.212528671e-06 	3.027493494e-05
0.01135056449 	0.008238611436 	-0.000729139692 	-4.178235759e-07 	0.0158896464 	1.250114148e-06 	3.029008235e-05
0.01344809669 	0.008265991304 	-0.0008634844385 	-5.13663786e-07 	0.01590367222 	1.308108126e-06 	3.031681945e-05
0.01571682827 	0.008300328261 	-0.001008364317 	-6.205769712e-07 	0.01592133241 	1.383437813e-06 	3.035048468e-05
0.0181707305 	0.008342957797 	-0.001165595505 	-7.376417105e-07 	0.01594353618 	1.480095176e-06 	3.039281124e-05
0.02083084834 	0.008395634335 	-0.001335659739 	-8.650207084e-07 	0.01597116619 	1.604055752e-06 	3.044548171e-05
0.02372282561 	0.008460151921 	-0.001518961736 	-1.002899815e-06 	0.01600551059 	1.757367789e-06 	3.051095169e-05
0.02685083933 	0.00853832926 	-0.001717113534 	-1.148046702e-06 	0.01604794463 	1.936820224e-06 	3.059184277e-05
0.03023415097 	0.008632236601 	-0.001930981757 	-1.296652782e-06 	0.01609996185 	2.139711397e-06 	3.069100205e-05
0.03389359338 	0.008744270685 	-0.002161614439 	-1.443917517e-06 	0.01616329758 	2.361953182e-06 	3.081173754e-05
0.03785169889 	0.008877201195 	-0.002410383073 	-1.582958061e-06 	0.0162399444 	2.597677094e-06 	3.095784768e-05
0.04214702254 	0.00903424492 	-0.002679297044 	-1.704677143e-06 	0.01633214237 	2.839782448e-06 	3.113360264e-05
0.04680884035 	0.009218680408 	-0.002969781908 	-1.74732417e-06 	0.0164420165 	2.991403227e-06 	3.134305327e-05
0.05185112784 	0.009433622068 	-0.003282373913 	-1.623066735e-06 	0.01657133794 	2.885212844e-06 	3.158957588e-05
0.05730493102 	0.009682089131 	-0.003617275864 	-1.448806287e-06 	0.01672254944 	2.680112783e-06 	3.187782702e-05
0.06322334345 	0.01000641188 	-0.004024360093 	-1.207700214e-06 	0.01692062659 	2.397147198e-06 	3.225541713e-05
0.07273401493 	0.01045404192 	-0.004548044591 	-8.344715575e-07 	0.01719267717 	1.839536896e-06 	3.277402115e-05
0.08272470458 	0.01098887602 	-0.005129660099 	-4.334388051e-07 	0.01750705681 	1.31894245e-06 	3.337331612e-05
0.0932469374 	0.01156279172 	-0.005716135728 	-4.972230349e-08 	0.01782217452 	8.123856154e-07 	3.397401805e-05
0.1043053293 	0.0121577175 	-0.006296262214 	2.698455639e-07 	0.01811253345 	3.608916566e-07 	3.452752287e-05
0.1159407672 	0.01274866799 	-0.00685236432 	4.788070412e-07 	0.01834337737 	2.481457925e-08 	3.496757554e-05
0.1281825531 	0.0133013537 	-0.00735876941 	5.367332919e-07 	0.01847247643 	-1.593786458e-07 	3.521367424e-05
0.1410470441 	0.01376976603 	-0.007781033711 	4.282689111e-07 	0.01845352087 	-1.950874924e-07 	3.517753968e-05
0.154592136 	0.01409602897 	-0.008079497289 	1.90601422e-07 	0.01824161778 	-1.122218664e-07 	3.477359348e-05
0.164060783 	0.01417614395 	-0.008171491474 	8.209744621e-06 	0.01794581324 	-2.852380854e-05 	3.420970782e-05
0.1688324231 	0.01421116579 	-0.008213086592 	-1.120505169e-07 	0.01779313262 	1.014476321e-07 	3.391865611e-05
0.1838030006 	0.01405707704 	-0.008151466335 	-3.41840474e-07 	0.01707279358 	1.464114237e-07 	3.254548971e-05
0.199544772 	0.01360492993 	-0.007884615778 	-3.503870539e-07 	0.01606225191 	-2.548129782e-07 	3.061911642e-05
0.2161041421 	0.01282999156 	-0.007399240006 	-1.189524705e-07 	0.01474998796 	-9.950962515e-07 	2.811757661e-05
0.2335104123 	0.01174269157 	-0.0067049917 	2.660631226e-07 	0.01316657148 	-1.831021562e-06 	2.509914471e-05
0.2518062919 	0.01041558488 	-0.005852122071 	6.727989613e-07 	0.01140563657 	-2.486132041e-06 	2.174231333e-05
0.2710355377 	0.008991676303 	-0.004933460434 	9.593860927e-07 	0.009624534388 	-2.722488239e-06 	1.834703754e-05
0.2912431778 	0.007653613503 	-0.004064576682 	1.04536089e-06 	0.008010675573 	-2.481943956e-06 	1.527057409e-05
0.3124757371 	0.006549733364 	-0.003340999514 	9.877652453e-07 	0.006706564196 	-1.983706531e-06 	1.278457535e-05
0.3347814619 	0.005717600898 	-0.002797114212 	9.34546637e-07 	0.005735339455 	-1.580380343e-06 	1.093315106e-05
0.3582105419 	0.005076683881 	-0.002400624306 	9.887213047e-07 	0.004998317984 	-1.454061563e-06 	9.528183289e-06
0.3828179211 	0.004499506039 	-0.002080469007 	1.105770676e-06 	0.004351412927 	-1.450557895e-06 	8.295002452e-06
0.4086570179 	0.003896750629 	-0.001764899641 	1.081117593e-06 	0.003693562056 	-1.218105799e-06 	7.040955851e-06
0.435783403 	0.003266865495 	-0.001418191567 	9.58150681e-07 	0.003016465755 	-8.358769872e-07 	5.750222112e-06
0.464259064 	0.002695603948 	-0.001059960072 	7.637970031e-07 	0.002399716469 	-3.851827524e-07 	4.574526557e-06
0.4941463394 	0.002299065841 	-0.0007373442588 	5.957252523e-07 	0.001948681724 	1.508900494e-08 	3.714728974e-06
0.5228564162 	0.002125865353 	-0.0004707255601 	5.110687745e-07 	0.001704619228 	3.120270704e-07 	3.249478023e-06
0.5502915767 	0.002127644029 	-0.0002369677612 	4.847292274e-07 	0.001623799553 	5.183958118e-07 	3.09541326e-06
0.5765050969 	0.002240362442 	-1.286359742e-05 	4.747397396e-07 	0.001655811843 	6.577791169e-07 	3.156437582e-06
0.6015501488 	0.002421021423 	0.0002113201997 	4.647482086e-07 	0.001769291663 	7.497112657e-07 	3.372761658e-06
0.6254776268 	0.002648445237 	0.0004390181335 	4.565131656e-07 	0.001946684949 	8.142097516e-07 	3.710922565e-06
0.64833637 	0.00291442866 	0.0006717086619 	4.506875896e-07 	0.002177439894 	8.633130673e-07 	4.150805627e-06
0.6701736138 	0.003214441909 	0.0009103689553 	4.474480904e-07 	0.002452018094 	8.98242846e-07 	4.674227991e-06
0.6910346494 	0.00354435313 	0.001156118106 	4.447515284e-07 	0.00276157631 	9.246797441e-07 	5.264331988e-06
0.7109628665 	0.003900950612 	0.001407379611 	4.366665262e-07 	0.003101672239 	9.470956438e-07 	5.912649354e-06
0.729999805 	0.004279237782 	0.001659842792 	4.166479269e-07 	0.00346920148 	9.637148993e-07 	6.613262236e-06
0.7481852109 	0.004671623321 	0.001911583877 	3.839123557e-07 	0.003859260058 	9.711843527e-07 	7.356822297e-06
0.7655570971 	0.005067600022 	0.002145745844 	3.308430282e-07 	0.00426822901 	9.633950146e-07 	8.136430787e-06
0.7821518065 	0.005459970459 	0.002349263942 	2.902664822e-07 	0.004687031557 	9.402177175e-07 	8.934784841e-06
0.7980040799 	0.00584675543 	0.002536497975 	2.811267425e-07 	0.005099474977 	9.183340928e-07 	9.721016632e-06
0.8131471125 	0.006223400912 	0.002716730331 	2.78563023e-07 	0.005495348403 	9.098089438e-07 	1.047566141e-05
0.8276126132 	0.006585124096 	0.002888969009 	2.811615314e-07 	0.005873413672 	9.107549012e-07 	1.119635889e-05
0.8414308902 	0.006930855459 	0.003053826259 	2.878811119e-07 	0.006236174659 	9.185992326e-07 	1.188788216e-05
0.8546309001 	0.007261688446 	0.003212282067 	2.974687983e-07 	0.006586284569 	9.314515096e-07 	1.255528895e-05
0.8672402989 	0.007578532368 	0.003364906133 	3.069298779e-07 	0.006925103404 	9.437046224e-07 	1.320117182e-05
0.8792855103 	0.007880218548 	0.003511290541 	3.108401181e-07 	0.007251911177 	9.443517987e-07 	1.382415827e-05
0.8907917784 	0.008161889721 	0.003649399566 	3.014089418e-07 	0.007562672885 	9.1707888e-07 	1.441655646e-05
0.9017832147 	0.008413454533 	0.003774827637 	2.692345184e-07 	0.007848409463 	8.418723584e-07 	1.496124979e-05
0.912282855 	0.008618280904 	0.003880153037 	2.047777576e-07 	0.008093757444 	6.989344121e-07 	1.542895123e-05
0.9223127033 	0.008752598829 	0.003954769259 	1.012827458e-07 	0.008276934697 	4.759531729e-07 	1.577813799e-05
0.9318937798 	0.008789338499 	0.003985332582 	-2.657692026e-08 	0.008367864829 	2.047983579e-07 	1.595147609e-05
0.9381208812 	0.00874294308 	0.003976448461 	-1.446763768e-07 	0.008372629271 	-4.781405045e-08 	1.596055844e-05
0.9438780083 	0.008642577134 	0.003941027094 	-2.730978898e-07 	0.008320529078 	-2.679759697e-07 	1.586124099e-05
0.9492006313 	0.008493093441 	0.003866762886 	-4.495914413e-07 	0.008219390171 	-4.691053871e-07 	1.566844213e-05
0.9541215431 	0.008301335461 	0.003756142966 	-5.573858318e-07 	0.00807351137 	-6.477637786e-07 	1.539035659e-05
0.9586710619 	0.008072819456 	0.003628858218 	-5.863540163e-07 	0.007886430393 	-7.994152704e-07 	1.503372825e-05
0.9628772176 	0.007811162796 	0.003488361704 	-6.203359362e-07 	0.007661773309 	-9.223070183e-07 	1.460546941e-05
0.9667659246 	0.007519434444 	0.003335669817 	-6.358857514e-07 	0.007402531948 	-1.01679001e-06 	1.411128332e-05
0.9703611415 	0.007199919432 	0.003173396437 	-6.346822515e-07 	0.007110802102 	-1.082145295e-06 	1.355516515e-05
0.9736850188 	0.006853617005 	0.003003431591 	-6.183020669e-07 	0.006787586667 	-1.118331516e-06 	1.29390267e-05
0.9767580351 	0.006479780839 	0.002826749168 	-5.887667614e-07 	0.006432296892 	-1.125863045e-06 	1.226174564e-05
0.9795991234 	0.006075230314 	0.002643034859 	-5.485204944e-07 	0.006042058113 	-1.105806339e-06 	1.151784207e-05
0.982225788 	0.005633197602 	0.002449984245 	-5.002489487e-07 	0.005610545176 	-1.059611807e-06 	1.069525848e-05
0.9846542119 	0.005141248449 	0.002241918658 	-4.466451129e-07 	0.005125895563 	-9.889040627e-07 	9.771381611e-06
0.9868993568 	0.00457745695 	0.002011844115 	-3.903424662e-07 	0.004566880886 	-8.951228691e-07 	8.705744268e-06
0.9889750553 	0.003958705584 	0.00174268617 	-3.353341917e-07 	0.003951011712 	-7.891984523e-07 	7.531726449e-06
0.9902342011 	0.003352662464 	0.00146762438 	-2.884005788e-07 	0.003346629701 	-6.876534788e-07 	6.379606358e-06
0.9914933468 	0.002700692805 	0.001167339318 	-2.424869863e-07 	0.002695944594 	-5.798404989e-07 	5.139219695e-06
0.9927524926 	0.001906997077 	0.0007766238464 	-1.791546958e-07 	0.001903655241 	-4.412126021e-07 	3.628895983e-06
0.9940116384 	0.001056777739 	0.0003668317762 	-9.564169611e-08 	0.001054917343 	-2.673826731e-07 	2.010965655e-06
0.9952707842 	0.0003951562106 	9.745084827e-05 	-2.785534978e-08 	0.0003944518581 	-1.073232036e-07 	7.519348738e-07
0.99652993 	8.209010077e-05 	1.031903442e-05 	-2.923754738e-09 	8.19399123e-05 	-2.285962329e-08 	1.562002469e-07
0.9977890758 	6.501481019e-06 	2.309119517e-07 	-5.738059397e-11 	6.489242362e-06 	-1.80972187e-09 	1.237029953e-08
0.9990482216 	7.959717252e-08 	2.758402332e-10 	-5.471779195e-14 	7.944581518e-08 	-2.205289331e-11 	1.514458045e-10
0.9990482216 	7.959717252e-08 	2.758402332e-10 	-5.471779195e-14 	7.944581518e-08 	-2.205289331e-11 	1.514458045e-10
