1.719619184e-36 	0.002025280725 	-8.304950934e-17 	1.367325796e-20 	1.199019318e-16 	-5.2350314e-18 	2.285664071e-19
0.0003200309159 	0.002025265326 	-5.413493177e-06 	2.192694676e-10 	0.002081845998 	-1.676929719e-07 	3.968577092e-06
0.0006400614409 	0.002025502859 	-1.104791652e-05 	5.804930221e-10 	0.00208419286 	-1.631538984e-07 	3.973050863e-06
0.0009600915746 	0.002026004004 	-1.620001533e-05 	8.226333253e-10 	0.002084708866 	-1.583451633e-07 	3.974034513e-06
0.001280121317 	0.002026620367 	-2.142892849e-05 	1.054591776e-09 	0.002085442175 	-1.535431746e-07 	3.975432404e-06
0.001600150666 	0.002027445701 	-2.667378773e-05 	1.270109056e-09 	0.002086040764 	-1.487037949e-07 	3.976573481e-06
0.001920179623 	0.002028452938 	-3.19315827e-05 	1.46978583e-09 	0.00208676925 	-1.438615196e-07 	3.977962179e-06
0.002240208187 	0.002029644217 	-3.719787772e-05 	1.653394428e-09 	0.002087617745 	-1.390154366e-07 	3.979579646e-06
0.002560236358 	0.00203101882 	-4.247064589e-05 	1.820823508e-09 	0.002088593683 	-1.341667149e-07 	3.981440054e-06
0.002880264135 	0.002032576857 	-4.774865167e-05 	1.971982097e-09 	0.00208969603 	-1.293154617e-07 	3.983541435e-06
0.003200291518 	0.002034318066 	-5.303120155e-05 	2.106808634e-09 	0.002090926066 	-1.244620455e-07 	3.985886224e-06
0.003520318506 	0.002036242208 	-5.831789137e-05 	2.225259425e-09 	0.002092284262 	-1.196067329e-07 	3.988475324e-06
0.003840345101 	0.002038349024 	-6.360850514e-05 	2.327305014e-09 	0.002093770899 	-1.147497645e-07 	3.991309268e-06
0.0041603713 	0.002040638233 	-6.890294664e-05 	2.412926719e-09 	0.002095386078 	-1.09891358e-07 	3.994388247e-06
0.004480397105 	0.002043109533 	-7.420120031e-05 	2.482114566e-09 	0.002097129818 	-1.050317211e-07 	3.997712301e-06
0.004800422516 	0.002045762596 	-7.950330581e-05 	2.534865823e-09 	0.002099002084 	-1.001710543e-07 	4.00128136e-06
0.005120447531 	0.002048597064 	-8.480934163e-05 	2.571183994e-09 	0.002101002796 	-9.530955336e-08 	4.005095273e-06
0.005440472151 	0.002051612549 	-9.011941397e-05 	2.59107811e-09 	0.002103131839 	-9.044741e-08 	4.009153821e-06
0.005760496377 	0.002054808633 	-9.543364932e-05 	2.594562196e-09 	0.002105389069 	-8.558481287e-08 	4.013456727e-06
0.006080520207 	0.002058184862 	-0.0001007521891 	2.5816549e-09 	0.002107774311 	-8.07219478e-08 	4.018003663e-06
0.006400543643 	0.002061740744 	-0.0001060751859 	2.552379208e-09 	0.002110287366 	-7.585899805e-08 	4.022794244e-06
0.006720566684 	0.00206547575 	-0.0001114028005 	2.506762214e-09 	0.002112928006 	-7.099614437e-08 	4.027828037e-06
0.007040589331 	0.002069389306 	-0.0001167351995 	2.444834931e-09 	0.002115695973 	-6.613356499e-08 	4.033104551e-06
0.007360611583 	0.002073480793 	-0.0001220725526 	2.366632113e-09 	0.002118590983 	-6.127143569e-08 	4.038623245e-06
0.007680633441 	0.002077749534 	-0.0001274150306 	2.272192093e-09 	0.002121612728 	-5.640992977e-08 	4.044383531e-06
0.008000654905 	0.002082194773 	-0.000132762801 	2.161556614e-09 	0.002124760865 	-5.154921799e-08 	4.050384756e-06
0.008320675975 	0.002086815639 	-0.0001381160267 	2.034770869e-09 	0.002128034983 	-4.668946775e-08 	4.056626134e-06
0.008640696652 	0.002091611041 	-0.0001434748005 	1.891881972e-09 	0.002131434615 	-4.183084315e-08 	4.063106778e-06
0.008960716935 	0.002096579468 	-0.0001488397995 	1.732953477e-09 	0.002134960332 	-3.697351888e-08 	4.069827775e-06
0.009280736826 	0.00210171738 	-0.0001542046495 	1.557924675e-09 	0.002138613642 	-3.21176771e-08 	4.076791998e-06
0.009600756325 	0.002107766067 	-0.0001602398628 	1.371981729e-09 	0.002142940352 	-2.726385353e-08 	4.08503991e-06
0.01009799211 	0.002115617554 	-0.0001676538049 	1.035879288e-09 	0.00214860074 	-1.972507604e-08 	4.095830184e-06
0.01060457247 	0.002124746725 	-0.0001758547328 	6.617751795e-10 	0.002155207959 	-1.204968575e-08 	4.10842538e-06
0.01112067299 	0.002134494048 	-0.000184228947 	2.42928214e-10 	0.002162268148 	-4.234957827e-09 	4.121884061e-06
0.01140056368 	0.002140023341 	-0.000188782691 	3.249898976e-09 	0.002166275245 	-1.850214616e-06 	4.129522702e-06
0.01164647258 	0.002144882279 	-0.000192783821 	2.247949966e-10 	0.00216979686 	-3.765448401e-09 	4.136235878e-06
0.01218215349 	0.002155933545 	-0.0002015228063 	7.441498207e-10 	0.002177811406 	-1.196161047e-08 	4.151513831e-06
0.0127279014 	0.002167669479 	-0.0002104499057 	1.315020789e-09 	0.002186328333 	-2.030588718e-08 	4.167749461e-06
0.01328390549 	0.002180113298 	-0.000219569362 	1.939618242e-09 	0.002195364993 	-2.880075848e-08 	4.184975847e-06
0.01385035847 	0.002193288614 	-0.0002288856454 	2.620196886e-09 	0.002204938864 	-3.744874084e-08 	4.203226305e-06
0.0144274567 	0.002207219357 	-0.0002384034315 	3.359055997e-09 	0.002215067609 	-4.625238663e-08 	4.222534509e-06
0.01501540022 	0.002221929735 	-0.0002481275902 	4.158539242e-09 	0.002225769079 	-5.521428326e-08 	4.242934484e-06
0.0156143928 	0.002237444195 	-0.0002580631772 	5.021034152e-09 	0.00223706128 	-6.433705132e-08 	4.264460559e-06
0.01622464209 	0.002253787395 	-0.0002682154283 	5.948971272e-09 	0.002248962362 	-7.3623342e-08 	4.287147329e-06
0.01684635961 	0.002270984176 	-0.0002785897533 	6.944822981e-09 	0.002261490589 	-8.307583331e-08 	4.311029611e-06
0.01747976086 	0.002289059531 	-0.0002891917344 	8.01110203e-09 	0.002274664338 	-9.269722592e-08 	4.336142439e-06
0.01812506539 	0.002308038578 	-0.0003000271241 	9.15036025e-09 	0.002288502003 	-1.024902332e-07 	4.362520874e-06
0.01878249687 	0.002327946478 	-0.0003111017396 	1.036517729e-08 	0.002303022144 	-1.124575808e-07 	4.390200299e-06
0.01945228319 	0.002348808953 	-0.0003224230141 	1.165828092e-08 	0.002318242977 	-1.226019762e-07 	4.419215437e-06
0.02013465651 	0.002370666438 	-0.000334003546 	1.303265866e-08 	0.002334194834 	-1.329264779e-07 	4.44962411e-06
0.02083178422 	0.002393572696 	-0.0003458619059 	1.449601467e-08 	0.002350918188 	-1.434797014e-07 	4.481503471e-06
0.02154340914 	0.002417553843 	-0.0003580065941 	1.605257151e-08 	0.002368430199 	-1.542704092e-07 	4.514886231e-06
0.02226840742 	0.002442610097 	-0.0003704307185 	1.770251519e-08 	0.002386730672 	-1.652767517e-07 	4.549772018e-06
0.02300703036 	0.002468755053 	-0.0003831338227 	1.944880252e-08 	0.00240583017 	-1.765053301e-07 	4.58618097e-06
0.02375953399 	0.002496014395 	-0.0003961238566 	2.129512271e-08 	0.002425746908 	-1.879632614e-07 	4.624147808e-06
0.02452617913 	0.002524413366 	-0.0004094079578 	2.324518776e-08 	0.002446499137 	-1.99657984e-07 	4.663707325e-06
0.0253072315 	0.002553977141 	-0.0004229934853 	2.530283949e-08 	0.002468104882 	-2.115972318e-07 	4.70489388e-06
0.02610296183 	0.002584730763 	-0.0004368879461 	2.747204642e-08 	0.002490582039 	-2.237890534e-07 	4.747741587e-06
0.02691364592 	0.002616699131 	-0.0004510989953 	2.975690952e-08 	0.0025139483 	-2.362418076e-07 	4.792284175e-06
0.02773956477 	0.002649906986 	-0.0004656344356 	3.216166787e-08 	0.002538221146 	-2.489641658e-07 	4.838554967e-06
0.02858100463 	0.002684378894 	-0.0004805022163 	3.469070449e-08 	0.002563417826 	-2.619651113e-07 	4.886586842e-06
0.02943825716 	0.002720139234 	-0.0004957104323 	3.734855234e-08 	0.002589555333 	-2.752539367e-07 	4.936412194e-06
0.03031161947 	0.002757212185 	-0.0005112673236 	4.013990061e-08 	0.002616650385 	-2.888402401e-07 	4.988062894e-06
0.03120139428 	0.002795621716 	-0.0005271812742 	4.306960103e-08 	0.002644719406 	-3.027339199e-07 	5.041570249e-06
0.03210788998 	0.002835391575 	-0.0005434608124 	4.614267448e-08 	0.002673778501 	-3.169451667e-07 	5.09696496e-06
0.03303142075 	0.002876545278 	-0.0005601146098 	4.936431788e-08 	0.002703843435 	-3.314844547e-07 	5.154277081e-06
0.03397230668 	0.0029191061 	-0.0005771514815 	5.273991155e-08 	0.00273492961 	-3.463625297e-07 	5.213535972e-06
0.03493087388 	0.002963097061 	-0.0005945803846 	5.627502605e-08 	0.002767052044 	-3.615903963e-07 	5.274770257e-06
0.03590745458 	0.003008540914 	-0.0006124104202 	5.997542972e-08 	0.002800225346 	-3.771793034e-07 	5.338007792e-06
0.03690238724 	0.003055460124 	-0.0006306508336 	6.384709686e-08 	0.002834463659 	-3.931407203e-07 	5.403275533e-06
0.0379160167 	0.003103876819 	-0.0006493109703 	6.789620478e-08 	0.002869780636 	-4.094863221e-07 	5.470599506e-06
0.03894869426 	0.003153813122 	-0.0006684009892 	7.212928352e-08 	0.002906189371 	-4.262279726e-07 	5.540004676e-06
0.04000077783 	0.003205305899 	-0.0006879363896 	7.655381696e-08 	0.002943713413 	-4.433788837e-07 	5.611535928e-06
0.04107387931 	0.003258434077 	-0.0007079457672 	8.118326641e-08 	0.002982409865 	-4.609799374e-07 	5.685302121e-06
0.04217063918 	0.003313253267 	-0.0007284545691 	8.603470454e-08 	0.003022311547 	-4.790856222e-07 	5.761365816e-06
0.04328800965 	0.003369729283 	-0.0007494524169 	9.110216374e-08 	0.003063387994 	-4.976375262e-07 	5.83966894e-06
0.044426378 	0.003427837939 	-0.000770929939 	9.638969964e-08 	0.003105620277 	-5.166446606e-07 	5.920175411e-06
0.0455861388 	0.003487600473 	-0.0007928998752 	1.019057301e-07 	0.003149017068 	-5.361189284e-07 	6.002901756e-06
0.04676769399 	0.003549036207 	-0.0008153727295 	1.076583768e-07 	0.003193587105 	-5.56072358e-07 	6.087864634e-06
0.04797145311 	0.003612164125 	-0.0008383592907 	1.117265828e-07 	0.003239337886 	-5.667293863e-07 	6.175078337e-06
0.04919783336 	0.003677002657 	-0.0008618705215 	1.105621325e-07 	0.003286276114 	-5.508979755e-07 	6.264555647e-06
0.05044725979 	0.003743569632 	-0.0008859175243 	1.092163087e-07 	0.003334407386 	-5.346906332e-07 	6.356307228e-06
0.05172016545 	0.003811882145 	-0.0009105115348 	1.076816338e-07 	0.003383736157 	-5.180917339e-07 	6.450341577e-06
0.0530169915 	0.00388195633 	-0.0009356638707 	1.059503403e-07 	0.003434265655 	-5.010854321e-07 	6.546664843e-06
0.0543381874 	0.00395380694 	-0.0009613858438 	1.040143565e-07 	0.003485997779 	-4.836557212e-07 	6.645280651e-06
0.05568421106 	0.004027446538 	-0.0009876886248 	1.018652983e-07 	0.00353893296 	-4.657864948e-07 	6.746189817e-06
0.05705552898 	0.004102883994 	-0.001014583047 	9.94944566e-08 	0.003593069867 	-4.474616068e-07 	6.849389808e-06
0.05845261643 	0.004180122142 	-0.001042080172 	9.689288517e-08 	0.003648405611 	-4.286650716e-07 	6.954875117e-06
0.05987595761 	0.004259167865 	-0.001070197965 	9.405193245e-08 	0.003704943049 	-4.093820519e-07 	7.062651186e-06
0.06132696399 	0.004340080591 	-0.001098973671 	9.095841998e-08 	0.003762716709 	-3.895784278e-07 	7.172783839e-06
0.06281019925 	0.004422905278 	-0.00112847612 	8.757889462e-08 	0.003821716805 	-3.691379833e-07 	7.285254421e-06
0.06432130776 	0.004518576071 	-0.001162777706 	8.416280573e-08 	0.00388945625 	-3.484255254e-07 	7.414384631e-06
0.0666410827 	0.004638172392 	-0.001205632819 	7.793462589e-08 	0.003973792499 	-3.157128702e-07 	7.575152962e-06
0.06898673389 	0.00477021239 	-0.001252778349 	7.137846334e-08 	0.004066519695 	-2.825328689e-07 	7.751916769e-06
0.07135854997 	0.004904165226 	-0.001300657222 	6.425964806e-08 	0.004159894328 	-2.486407774e-07 	7.929914772e-06
0.0737568228 	0.005040000739 	-0.001349304724 	5.656785424e-08 	0.004253879385 	-2.140420272e-07 	8.109076413e-06
0.07618184749 	0.005177652903 	-0.001398711854 	4.829158392e-08 	0.004348422125 	-1.78746709e-07 	8.289301152e-06
0.07863392243 	0.005317059159 	-0.001448877951 	3.941920506e-08 	0.004443464235 	-1.427678944e-07 	8.470477829e-06
0.08111334936 	0.005458268202 	-0.001499835144 	2.993954753e-08 	0.004539010887 	-1.061243255e-07 	8.652616303e-06
0.0836286727 	0.005601363346 	-0.001551634643 	1.978507858e-08 	0.004635063837 	-6.864577729e-08 	8.835719923e-06
0.08617295058 	0.005746183277 	-0.001604238361 	8.995538315e-09 	0.004731453086 	-3.055311091e-08 	9.019464622e-06
0.08820882703 	0.005862002011 	-0.001646459486 	-4.593428318e-08 	0.00480785655 	-4.034779399e-07 	9.165110859e-06
0.08874561102 	0.005892543368 	-0.001657593689 	2.462759071e-09 	0.004828004101 	-8.179011253e-09 	9.203517691e-06
0.09134697064 	0.006040385213 	-0.00171170044 	1.468007949e-08 	0.004924612943 	-4.772848151e-08 	9.387680995e-06
0.0939773496 	0.006189646819 	-0.001766554955 	2.757168329e-08 	0.005021170503 	-8.775859912e-08 	9.57174654e-06
0.09663707163 	0.006340273396 	-0.001822155798 	4.115012746e-08 	0.005117570092 	-1.282225341e-07 	9.75551095e-06
0.09932646406 	0.006492231982 	-0.001878509544 	5.542842222e-08 	0.005213713703 	-1.690688115e-07 	9.938787395e-06
0.1020474201 	0.006645589625 	-0.001935656334 	7.043331343e-08 	0.005309568024 	-2.10277645e-07 	1.012151237e-05
0.1048062404 	0.006800385002 	-0.001993630667 	8.6218989e-08 	0.005405061877 	-2.518971345e-07 	1.03035502e-05
0.1075958387 	0.006956428472 	-0.00205237799 	1.027373377e-07 	0.005499984647 	-2.936768832e-07 	1.048449938e-05
0.1104165586 	0.007113556572 	-0.002111849643 	1.19996754e-07 	0.005594149727 	-3.355396474e-07 	1.066400419e-05
0.113268747 	0.007271715353 	-0.00217204296 	1.380081618e-07 	0.00568742174 	-3.774039865e-07 	1.084180657e-05
0.1161527553 	0.007430846193 	-0.00223295051 	1.567816586e-07 	0.005779663074 	-4.1918292e-07 	1.101764419e-05
0.1190689383 	0.007590902825 	-0.002294569214 	1.763271915e-07 	0.005870733131 	-4.607834425e-07 	1.119124903e-05
0.1220184539 	0.007751939891 	-0.002356930191 	1.96664757e-07 	0.005960551045 	-5.021254566e-07 	1.136246694e-05
0.1250089864 	0.007914011531 	-0.002420068777 	2.178564468e-07 	0.006049008879 	-5.432199079e-07 	1.153109216e-05
0.1280328844 	0.00807692961 	-0.002483921589 	2.398354674e-07 	0.006135865002 	-5.837737994e-07 	1.169666407e-05
0.1310905201 	0.008240523117 	-0.002548425606 	2.625977846e-07 	0.006220896925 	-6.236636472e-07 	1.185875855e-05
0.1341822699 	0.008404738981 	-0.002613567871 	2.86144389e-07 	0.00630392559 	-6.62761226e-07 	1.201703426e-05
0.1373085144 	0.008569521705 	-0.00267932988 	2.78271028e-07 	0.006384766335 	-6.282318742e-07 	1.217113919e-05
0.1404696386 	0.00873487188 	-0.002745709656 	2.652666451e-07 	0.006463258095 	-5.833936539e-07 	1.23207663e-05
0.1436708133 	0.008900853905 	-0.00281272995 	2.514536776e-07 	0.006539249628 	-5.383702291e-07 	1.246562728e-05
0.1469115851 	0.009067405564 	-0.002880358521 	2.368443168e-07 	0.006612515462 	-4.933202154e-07 	1.260529232e-05
0.1501885166 	0.009234356082 	-0.002948509504 	2.214663092e-07 	0.006682788955 	-4.484468802e-07 	1.273925313e-05
0.1535020113 	0.009401611255 	-0.003017125034 	2.053126743e-07 	0.006749827031 	-4.038655465e-07 	1.286704634e-05
0.1568524772 	0.009569130992 	-0.00308616392 	1.88381736e-07 	0.006813397275 	-3.596980261e-07 	1.298822889e-05
0.1602403266 	0.009736918436 	-0.003155592426 	1.706758698e-07 	0.006873280252 	-3.160724692e-07 	1.310238249e-05
0.1636700028 	0.009905043407 	-0.00322539803 	1.521636283e-07 	0.006929258753 	-2.730503095e-07 	1.320909307e-05
0.1671422645 	0.01007347747 	-0.003295518607 	1.328694386e-07 	0.006981065207 	-2.308080396e-07 	1.330785057e-05
0.1706532711 	0.01024207503 	-0.003365829681 	1.128540081e-07 	0.007028402025 	-1.895847854e-07 	1.33980877e-05
0.1742034549 	0.01041075576 	-0.003436225707 	9.213983001e-08 	0.007070985963 	-1.495336777e-07 	1.347926452e-05
0.1777932531 	0.01057949559 	-0.003506614397 	7.075821057e-08 	0.007108537929 	-1.10811857e-07 	1.355084901e-05
0.1814231076 	0.01074833176 	-0.003576914075 	4.874910235e-08 	0.007140791653 	-7.358048833e-08 	1.361233357e-05
0.1850999798 	0.01091734023 	-0.003647048643 	2.610624694e-08 	0.007167460088 	-3.792574624e-08 	1.366317102e-05
0.188819334 	0.01108641875 	-0.003716853071 	2.958983393e-09 	0.007188221727 	-4.131346038e-09 	1.370274847e-05
0.1892955931 	0.01110781961 	-0.003725625587 	2.927227504e-08 	0.007190065909 	-7.15233166e-07 	1.3706264e-05
0.1925801925 	0.01125543507 	-0.003786134976 	2.076806142e-08 	0.007202766743 	-2.770463595e-08 	1.373047532e-05
0.1963830182 	0.01142432227 	-0.003854719439 	4.484056841e-08 	0.007210777921 	-5.729890646e-08 	1.374574685e-05
0.2002282796 	0.01159305325 	-0.003922432588 	6.913507133e-08 	0.007211942755 	-8.445799152e-08 	1.374796735e-05
0.2041202567 	0.01176164018 	-0.003989102505 	9.357046667e-08 	0.007205928102 	-1.090333388e-07 	1.373650175e-05
0.2080594045 	0.01192998427 	-0.004054498332 	1.179900101e-07 	0.007192390853 	-1.307991338e-07 	1.371069599e-05
0.2120425111 	0.01209786716 	-0.004118328508 	1.422070401e-07 	0.007171002962 	-1.495263808e-07 	1.366992472e-05
0.2160700672 	0.0122651034 	-0.004180304849 	1.660548401e-07 	0.007141427516 	-1.650322106e-07 	1.36135457e-05
0.2201425686 	0.01243154496 	-0.004240140454 	1.893433604e-07 	0.007103311824 	-1.771327818e-07 	1.35408866e-05
0.2242640801 	0.01259705648 	-0.004297537986 	2.118781316e-07 	0.007056269337 	-1.856655857e-07 	1.345121055e-05
0.2284351157 	0.0127613835 	-0.004352142015 	2.33376876e-07 	0.006999916012 	-1.904385793e-07 	1.334378545e-05
0.2326526998 	0.01292415071 	-0.004403541474 	2.5353059e-07 	0.006933891102 	-1.9129707e-07 	1.321792362e-05
0.2369173517 	0.01308500398 	-0.004451318801 	2.720625667e-07 	0.006857799621 	-1.881150283e-07 	1.307287211e-05
0.2412295967 	0.01324362648 	-0.004495044833 	2.887292547e-07 	0.006771188542 	-1.806954292e-07 	1.290776732e-05
0.2455951021 	0.01339968132 	-0.004534250405 	3.03391199e-07 	0.006673550831 	-1.686501505e-07 	1.27216427e-05
0.2500108086 	0.01355264209 	-0.004568373456 	3.159448345e-07 	0.006564433735 	-1.511583139e-07 	1.251363519e-05
0.2544757956 	0.01370184203 	-0.004596762099 	3.264110559e-07 	0.006443417824 	-1.269572329e-07 	1.228294523e-05
0.2589906129 	0.01384645819 	-0.004618672709 	3.217838705e-07 	0.006310126859 	-9.106580134e-08 	1.20288556e-05
0.263557627 	0.01398508114 	-0.004633156847 	2.89760965e-07 	0.006164447221 	-4.697416634e-08 	1.175114972e-05
0.2681799304 	0.01411371903 	-0.004638872157 	2.578622455e-07 	0.006008122533 	-2.127793857e-08 	1.145315142e-05
0.2728538215 	0.01422281002 	-0.004635634355 	2.22154181e-07 	0.005850456417 	-2.599755541e-08 	1.115259598e-05
0.2775798758 	0.01428766052 	-0.004624904273 	2.040661736e-07 	0.005710261304 	-1.031956684e-07 	1.088534513e-05
0.2823588813 	0.01425991615 	-0.004615237376 	1.858909475e-07 	0.005619594797 	-1.575284965e-07 	1.071250957e-05
0.2871966566 	0.01416079707 	-0.00460288261 	1.552911075e-07 	0.005562874507 	-1.406383265e-07 	1.060438493e-05
0.2920884254 	0.01404188249 	-0.004579738431 	1.298362465e-07 	0.005502514579 	-1.184527518e-07 	1.048932213e-05
0.2970347901 	0.0139029398 	-0.004548326159 	1.053706433e-07 	0.005434597618 	-9.438996341e-08 	1.035985353e-05
0.3020363598 	0.01374314718 	-0.004508279099 	8.368790208e-08 	0.005357633229 	-7.452598935e-08 	1.021313801e-05
0.307098782 	0.01356174192 	-0.004459820364 	6.391765133e-08 	0.005272843189 	-5.687329723e-08 	1.005150463e-05
0.3122178274 	0.01335819632 	-0.00440272953 	4.673358644e-08 	0.005180246405 	-4.169656381e-08 	9.874989422e-06
0.3173940061 	0.01313216681 	-0.004337138672 	3.246712379e-08 	0.005079942327 	-2.904844889e-08 	9.683781972e-06
0.3226284087 	0.01288346442 	-0.00426317342 	2.12345941e-08 	0.004972052215 	-1.887000954e-08 	9.478113433e-06
0.3279254551 	0.0126121664 	-0.004181558956 	1.295266083e-08 	0.004856728343 	-1.099611581e-08 	9.258274079e-06
0.3332816223 	0.01231885365 	-0.004093276711 	7.28612314e-09 	0.004734244609 	-5.250802554e-09 	9.024786039e-06
0.3386975697 	0.01200445221 	-0.003998708821 	3.601528793e-09 	0.004604940847 	-1.498391578e-09 	8.778297131e-06
0.3441755749 	0.0116700003 	-0.003898468713 	1.351268884e-09 	0.004469123452 	3.403661086e-10 	8.519391428e-06
0.3497173251 	0.01131667707 	-0.003793363139 	1.792098438e-10 	0.004327093499 	3.407723562e-10 	8.248642862e-06
0.3514027616 	0.01120516265 	-0.003760452264 	2.235301828e-06 	0.00428261552 	-2.852117877e-06 	8.163855473e-06
0.3553209274 	0.01094588342 	-0.003683937448 	1.356912234e-10 	0.004179202048 	1.441354211e-09 	7.966720653e-06
0.3609870718 	0.01055892974 	-0.003570473315 	-2.969317501e-10 	0.004025729576 	4.846744582e-09 	7.674159466e-06
0.3667195497 	0.01015673445 	-0.003452937788 	-1.54485894e-09 	0.003866789446 	9.798261769e-09 	7.371175402e-06
0.3725166888 	0.009740030486 	-0.003331045902 	-3.845664565e-09 	0.003702468008 	1.626321991e-08 	7.057933071e-06
0.3783785302 	0.009309330501 	-0.00320425976 	-7.561866039e-09 	0.003532861541 	2.419742868e-08 	6.734616005e-06
0.3843071225 	0.008864844369 	-0.003071847024 	-1.308676435e-08 	0.00335805549 	3.352042951e-08 	6.401387086e-06
0.3903039129 	0.008406695125 	-0.002933022674 	-2.074575344e-08 	0.003178197502 	4.408262303e-08 	6.058527773e-06
0.396367634 	0.007935104267 	-0.002787064989 	-3.073793511e-08 	0.002993544686 	5.567780033e-08 	5.706528184e-06
0.4024993303 	0.007450366035 	-0.002633343295 	-4.311048029e-08 	0.002804419858 	6.804235647e-08 	5.346003697e-06
0.4087021267 	0.006953039825 	-0.002471401059 	-5.772427456e-08 	0.002611256063 	8.081842379e-08 	4.977779818e-06
0.4149741531 	0.006444290945 	-0.00230108547 	-7.42244861e-08 	0.002414704659 	9.353872828e-08 	4.603098212e-06
0.4213161813 	0.005925828217 	-0.00212254533 	-9.203666927e-08 	0.002215594067 	1.056401e-07 	4.223538084e-06
0.4277313904 	0.005400054683 	-0.001936298993 	-1.103280375e-07 	0.002014964216 	1.164470649e-07 	3.841081827e-06
0.4342183981 	0.004870446897 	-0.00174341923 	-1.279295188e-07 	0.001814226157 	1.250997456e-07 	3.458419293e-06
0.4407778066 	0.004341543103 	-0.001545530288 	-1.435433448e-07 	0.001615055226 	1.308612782e-07 	3.078744142e-06
0.4474123577 	0.003819110224 	-0.001345093295 	-1.553680385e-07 	0.001419714049 	1.323961188e-07 	2.706369566e-06
0.4541212809 	0.003310378175 	-0.001145367242 	-1.621819609e-07 	0.001230412851 	1.300567334e-07 	2.34550887e-06
0.4609050812 	0.002824039013 	-0.000950508006 	-1.610042908e-07 	0.001050133191 	1.213534627e-07 	2.001845731e-06
0.4677663327 	0.002369739355 	-0.0007637406224 	-1.510357646e-07 	0.000883709656 	1.048006844e-07 	1.684596219e-06
0.4747043718 	0.001930615126 	-0.0005985121106 	-1.145296746e-07 	0.0007556797207 	4.107246203e-08 	1.440535578e-06
0.4817198836 	0.001505822527 	-0.0004655568862 	-7.685706029e-08 	0.0006766016891 	-8.800090518e-09 	1.289790871e-06
0.4888153226 	0.001147154732 	-0.0003561869611 	-5.986912007e-08 	0.0006131887954 	2.915735608e-09 	1.168908271e-06
0.4959899515 	0.0008788951644 	-0.0002645824136 	-4.19331905e-08 	0.0005485135882 	7.542248534e-09 	1.045619351e-06
0.5031649243 	0.0006876788175 	-0.0001911777972 	-2.878236712e-08 	0.0004923403968 	3.165228578e-09 	9.385376352e-07
0.5102617754 	0.0005596557543 	-0.0001341818204 	-1.947323535e-08 	0.0004504045746 	-4.030153286e-09 	8.585963027e-07
0.5172803182 	0.0004808487636 	-9.085227935e-05 	-1.317313689e-08 	0.0004230189406 	-1.046353377e-08 	8.063916728e-07
0.5242218659 	0.00043753881 	-5.822698826e-05 	-9.015137499e-09 	0.0004080478109 	-1.604218223e-08 	7.778525387e-07
0.5310874576 	0.0004177692582 	-3.357679109e-05 	-6.152344331e-09 	0.0004024192197 	-1.98582514e-08 	7.671228793e-07
0.5378772912 	0.0004123918459 	-1.471438764e-05 	-4.412018576e-09 	0.0004030737117 	-2.248802265e-08 	7.683705231e-07
0.5445926252 	0.0004151375553 	-2.100359148e-08 	-3.414634631e-09 	0.0004074967316 	-2.436609115e-08 	7.768020283e-07
0.5512342888 	0.0004220320606 	1.165055877e-05 	-2.880772316e-09 	0.0004138698953 	-2.573241109e-08 	7.889510496e-07
0.557802664 	0.0004306782485 	2.110466476e-05 	-2.634837636e-09 	0.0004209612225 	-2.674362446e-08 	8.024690902e-07
0.5642988774 	0.0004396783804 	2.891193797e-05 	-2.56650897e-09 	0.0004279775726 	-2.74963736e-08 	8.158442036e-07
0.5707237498 	0.0004482458165 	3.54873413e-05 	-2.603744405e-09 	0.0004344258357 	-2.805630541e-08 	8.281363853e-07
0.577077725 	0.0004559646856 	4.11435485e-05 	-2.696946603e-09 	0.0004400160103 	-2.84613692e-08 	8.387928118e-07
0.5833617689 	0.0004626483238 	4.612602521e-05 	-2.81153305e-09 	0.0004445949506 	-2.87356562e-08 	8.475215445e-07
0.5895767917 	0.0004682561199 	5.06351128e-05 	-2.924362947e-09 	0.0004481038301 	-2.889643072e-08 	8.542104441e-07
0.5957232321 	0.0004728449989 	5.484037818e-05 	-3.019598096e-09 	0.0004505512595 	-2.895273533e-08 	8.588759248e-07
0.6018018976 	0.0004765425627 	5.889132407e-05 	-3.087225941e-09 	0.0004519963774 	-2.890740313e-08 	8.616307212e-07
0.6078138169 	0.000479533188 	6.292481693e-05 	-3.122097772e-09 	0.0004525387072 	-2.876155227e-08 	8.626645526e-07
0.6137593944 	0.0004820532985 	6.70711106e-05 	-3.12028409e-09 	0.0004523132286 	-2.851377656e-08 	8.622347276e-07
0.6196393617 	0.0004843937853 	7.146131243e-05 	-3.076072418e-09 	0.0004514871797 	-2.816021024e-08 	8.606600488e-07
0.625454667 	0.0004869074705 	7.623521385e-05 	-2.976114669e-09 	0.0004502584141 	-2.76948585e-08 	8.583176802e-07
0.6312058611 	0.0004900263676 	8.155141262e-05 	-2.798604352e-09 	0.0004488585028 	-2.710774673e-08 	8.556490601e-07
0.6368935895 	0.0004942914324 	8.760022551e-05 	-2.513236342e-09 	0.0004475601841 	-2.637928591e-08 	8.531741038e-07
0.6425186168 	0.0005003943683 	9.461855151e-05 	-2.075109191e-09 	0.0004466870032 	-2.547820033e-08 	8.515095783e-07
0.6480817161 	0.0005092369158 	0.0001029089049 	-1.419386275e-09 	0.0004466265545 	-2.435755161e-08 	8.513943463e-07
0.653583425 	0.000522013961 	0.0001128623263 	-4.51915362e-10 	0.0004478486946 	-2.294560923e-08 	8.53724085e-07
0.6590244207 	0.0005403270175 	0.0001249861752 	9.634872988e-10 	0.0004509254673 	-2.114178742e-08 	8.59589269e-07
0.6644054777 	0.0005663312979 	0.0001399366972 	3.017925617e-09 	0.0004565489396 	-1.881124132e-08 	8.703091701e-07
0.6697271999 	0.0006029103654 	0.0001585498973 	5.966784827e-09 	0.0004655393786 	-1.577629911e-08 	8.874474456e-07
0.6749901949 	0.0006538531339 	0.0001818612607 	1.011739552e-08 	0.0004788398175 	-1.184372038e-08 	9.128017788e-07
0.6801951104 	0.0007239639601 	0.0002110913066 	1.580556569e-08 	0.0004974688825 	-6.803005389e-09 	9.483139544e-07
0.6853426864 	0.0008190049563 	0.000247584789 	2.33006995e-08 	0.0005223936041 	-7.173403848e-10 	9.958274012e-07
0.6904334652 	0.0009454984526 	0.0002927300504 	3.295326063e-08 	0.0005541999386 	5.908397158e-09 	1.056459115e-06
0.6954680649 	0.001110832133 	0.0003478248886 	4.460495391e-08 	0.000591934506 	9.872936834e-09 	1.128391688e-06
0.7004471053 	0.001323535881 	0.0004138209403 	5.79347411e-08 	0.0006321696977 	8.943248413e-09 	1.205091146e-06
0.705371273 	0.00158923634 	0.0004902299804 	6.969039523e-08 	0.0006720986516 	8.741805789e-09 	1.28120683e-06
0.7102411011 	0.001884238146 	0.0005811262456 	9.30635856e-08 	0.0007284599855 	4.970778447e-08 	1.388647197e-06
0.715057188 	0.002179236266 	0.0006895099749 	1.154178221e-07 	0.0008188042599 	9.652269665e-08 	1.560868494e-06
0.7198201268 	0.002482204422 	0.0008074328546 	1.23774343e-07 	0.0009311565185 	1.104616605e-07 	1.775043126e-06
0.724530548 	0.002803165859 	0.0009288031757 	1.305067397e-07 	0.00105141137 	1.205010486e-07 	2.004282296e-06
0.7291889935 	0.003137295399 	0.001052612735 	1.340554007e-07 	0.001176707076 	1.277064309e-07 	2.243130735e-06
0.7337960302 	0.003480345019 	0.001177195881 	1.35720995e-07 	0.001305596595 	1.339184196e-07 	2.488829982e-06
0.7383522256 	0.003828660805 	0.00130108755 	1.353944193e-07 	0.001436971017 	1.38272737e-07 	2.739266145e-06
0.7428581594 	0.00417915326 	0.001423000675 	1.335042413e-07 	0.001569619655 	1.413259592e-07 	2.992131316e-06
0.747314382 	0.004529453522 	0.001541950811 	1.302046232e-07 	0.00170269867 	1.432870223e-07 	3.245816905e-06
0.7517214274 	0.004877828263 	0.001657119293 	1.256540152e-07 	0.001835572109 	1.444036294e-07 	3.499110611e-06
0.7560798383 	0.005223069041 	0.001767835822 	1.199939797e-07 	0.001967804629 	1.448475819e-07 	3.751182545e-06
0.7603901521 	0.005564442122 	0.001873531541 	1.134861379e-07 	0.002099115688 	1.446903994e-07 	4.00149792e-06
0.7646529193 	0.005901661015 	0.001973791495 	1.067119673e-07 	0.002229481531 	1.440369598e-07 	4.25001145e-06
0.7688686441 	0.006234858096 	0.002071561265 	1.106122894e-07 	0.002358736615 	1.4281956e-07 	4.496407565e-06
0.7730378455 	0.006565757161 	0.002167246897 	9.873802526e-08 	0.002486742864 	1.426373435e-07 	4.740423053e-06
0.7771610371 	0.006898705108 	0.002251439174 	8.310233181e-08 	0.002614748641 	1.446772996e-07 	4.984437642e-06
0.78123873 	0.007238515518 	0.002329545013 	8.976643512e-08 	0.002744734246 	1.476096203e-07 	5.232226333e-06
0.7852714323 	0.007586729767 	0.002413577855 	9.590814798e-08 	0.002877688865 	1.502193454e-07 	5.485674789e-06
0.789259631 	0.007940983772 	0.002502811884 	1.008223293e-07 	0.003013104581 	1.515298461e-07 	5.743814781e-06
0.7932038172 	0.008296902723 	0.002595851863 	1.036893786e-07 	0.003149496403 	1.506126092e-07 	6.003815501e-06
0.7971044765 	0.008649383126 	0.002691060488 	1.04036355e-07 	0.00328510536 	1.469620137e-07 	6.262323864e-06
0.8009620913 	0.008993389052 	0.002786716477 	1.018510282e-07 	0.003418108441 	1.406198957e-07 	6.515864702e-06
0.8047771403 	0.009324412162 	0.002881175629 	9.73861341e-08 	0.003546824006 	1.319245977e-07 	6.761232343e-06
0.8085500876 	0.009638698504 	0.002972983288 	9.098931764e-08 	0.003669828583 	1.213052226e-07 	6.995713255e-06
0.8122813978 	0.009933316185 	0.003060933362 	8.30271059e-08 	0.003786002063 	1.091908186e-07 	7.217172197e-06
0.8159715303 	0.0102061265 	0.003144080093 	7.385619046e-08 	0.003894520032 	9.598108463e-08 	7.424037607e-06
0.8196209396 	0.01045571411 	0.003221718431 	6.380068072e-08 	0.003994817538 	8.202839869e-08 	7.615232529e-06
0.8232300789 	0.01068131188 	0.003293346706 	5.312765403e-08 	0.004086540635 	6.761869424e-08 	7.790082245e-06
0.8267993892 	0.01088272606 	0.003358622475 	4.203690526e-08 	0.004169495848 	5.296561109e-08 	7.948217938e-06
0.8303293095 	0.01106023966 	0.003417323147 	3.069949348e-08 	0.004243607032 	3.825340964e-08 	8.089494452e-06
0.8338202746 	0.01121445948 	0.003469325439 	1.934589336e-08 	0.004308891693 	2.372502648e-08 	8.213945161e-06
0.8372727143 	0.01134609544 	0.003514614433 	8.313559688e-09 	0.004365466635 	9.717514734e-09 	8.321792725e-06