0.3179529243 	2.260933882e-07 	-8.46177076e-10 	6.878698766e-14 	2.249756299e-07 	-1.368794634e-11 	4.288660793e-10
0.3179529243 	2.260933882e-07 	-8.46177076e-10 	6.878698766e-14 	2.249756299e-07 	-1.368794634e-11 	4.288660793e-10
0.318152706 	3.119256424e-06 	-4.736281698e-08 	7.326711421e-12 	3.073168301e-06 	-3.523248341e-10 	5.858312924e-09
0.3183524966 	1.837533728e-05 	-6.497438195e-07 	1.215212647e-10 	1.774452405e-05 	-2.437151064e-09 	3.382599468e-08
0.318552295 	6.380582226e-05 	-4.080557394e-06 	8.421831616e-10 	5.951427735e-05 	-9.057606575e-09 	1.134507538e-07
0.3187521003 	0.0001639845886 	-1.615371276e-05 	3.500390544e-09 	0.0001448234754 	-2.333674168e-08 	2.760737958e-07
0.3189519114 	0.0003497088532 	-4.683535316e-05 	1.02265505e-08 	0.0002856093972 	-4.706747054e-08 	5.444508921e-07
0.3191517275 	0.0006567394188 	-0.0001079859512 	2.282422802e-08 	0.0004844194362 	-7.919181189e-08 	9.234380829e-07
0.3193515475 	0.001120120061 	-0.0002083075472 	4.091239104e-08 	0.0007321032951 	-1.15575391e-07 	1.395592358e-06
0.3195513705 	0.001763607616 	-0.0003484552638 	6.100308441e-08 	0.001010315202 	-1.507045376e-07 	1.925941578e-06
0.3197511955 	0.002589127437 	-0.0005200710583 	7.774361926e-08 	0.00129790554 	-1.800655383e-07 	2.474168694e-06
0.3199510214 	0.003573276397 	-0.0007093805511 	8.633387508e-08 	0.001577195275 	-2.012545785e-07 	3.006572553e-06
0.3201508474 	0.004673252914 	-0.0009023405009 	8.407750801e-08 	0.001836884527 	-2.134066317e-07 	3.501612444e-06
0.3203506724 	0.005838106266 	-0.001088112622 	7.031363647e-08 	0.002071569889 	-2.160174588e-07 	3.948987971e-06
0.3205504955 	0.007019163127 	-0.001259805269 	4.48300042e-08 	0.002279553569 	-2.074908398e-07 	4.345462672e-06
0.3207503157 	0.008176514649 	-0.001414463927 	1.039606325e-08 	0.002461947859 	-1.894866052e-07 	4.693156882e-06
0.3209501321 	0.009282531021 	-0.001551734807 	-3.234764455e-08 	0.002620432747 	-1.581383942e-07 	4.995273127e-06
0.3211499436 	0.01027596963 	-0.00168132541 	-4.503235484e-08 	0.002791182684 	-2.441894069e-07 	5.320769964e-06
0.3213497493 	0.01112618702 	-0.001810390076 	-4.333676129e-08 	0.002994221581 	-3.591087183e-07 	5.707818535e-06
0.3215495483 	0.0118771074 	-0.001932657147 	-6.433189612e-08 	0.003196393905 	-3.667221045e-07 	6.093215176e-06
0.3217493395 	0.01255290585 	-0.002043607493 	-9.018648459e-08 	0.003379454182 	-3.657764519e-07 	6.442178942e-06
0.3219491221 	0.0131551226 	-0.002142469547 	-1.22054101e-07 	0.003542573685 	-3.548419783e-07 	6.75313005e-06
0.322148895 	0.01368676503 	-0.002229684358 	-1.5590411e-07 	0.00368649982 	-3.388469484e-07 	7.027493267e-06
0.3223486573 	0.01415161838 	-0.002306076435 	-1.930507823e-07 	0.003812503431 	-3.160944294e-07 	7.26769117e-06
0.322548408 	0.01455373588 	-0.002372290994 	-2.337353351e-07 	0.003921660287 	-2.862752649e-07 	7.475774477e-06
0.3227481462 	0.01489727239 	-0.002428975027 	-2.781000548e-07 	0.004015058593 	-2.492182821e-07 	7.653817607e-06
0.322947871 	0.01518633154 	-0.002476773896 	-3.262931324e-07 	0.004093782773 	-2.04744489e-07 	7.803887773e-06
0.3231475813 	0.01542486282 	-0.002516311757 	-3.784954627e-07 	0.00415887987 	-1.526247865e-07 	7.927980933e-06
0.3233472762 	0.01561656209 	-0.002548079639 	-4.355870874e-07 	0.004211363865 	-9.287993511e-08 	8.028030015e-06
0.3235469548 	0.01576475534 	-0.002572204108 	-4.962396218e-07 	0.004252252277 	-2.466406953e-08 	8.105974692e-06
0.3237466161 	0.01587277929 	-0.002589429157 	-5.600094154e-07 	0.004282387951 	5.258038472e-08 	8.163421663e-06
0.3239462591 	0.01595122777 	-0.002601947992 	-6.364667426e-07 	0.004304667687 	1.503866993e-07 	8.205893032e-06
0.32425642 	0.01598764435 	-0.002607453863 	-7.458616333e-07 	0.004315699066 	2.90815856e-07 	8.226921906e-06
0.3245723591 	0.01595564549 	-0.002601296922 	-8.777734352e-07 	0.004307954034 	4.690960609e-07 	8.212157723e-06
0.3248941791 	0.01585197741 	-0.002583030376 	-1.026109361e-06 	0.004280571555 	6.767507618e-07 	8.159959107e-06
0.3252219844 	0.01567944804 	-0.002553159236 	-1.192089487e-06 	0.004234400272 	9.166764565e-07 	8.07194381e-06
0.3255558808 	0.01544003907 	-0.002511948885 	-1.377012302e-06 	0.004169899596 	1.19202346e-06 	7.948987595e-06
0.3258959756 	0.01513516363 	-0.002459645509 	-1.58172639e-06 	0.004087430659 	1.505382053e-06 	7.791778879e-06
0.3262423775 	0.01476677585 	-0.002396634926 	-1.709796707e-06 	0.003987528603 	1.75615146e-06 	7.601337793e-06
0.3265951969 	0.01433944386 	-0.002323816039 	-1.802163677e-06 	0.003871509659 	1.966357162e-06 	7.38017344e-06
0.3269545455 	0.01385973634 	-0.002242481606 	-1.872997006e-06 	0.003741299387 	2.147242486e-06 	7.131956472e-06
0.3273205366 	0.01333239193 	-0.002153583395 	-1.931777393e-06 	0.003598287427 	2.312780486e-06 	6.859335929e-06
0.3276932849 	0.01275904482 	-0.002057487264 	-1.98371155e-06 	0.003442949281 	2.470394509e-06 	6.563218248e-06
0.3280729065 	0.0121403555 	-0.001954381234 	-2.026490264e-06 	0.003275488426 	2.615737201e-06 	6.243991316e-06
0.328459519 	0.01147772972 	-0.001844588598 	-2.055577406e-06 	0.003096329226 	2.74077086e-06 	5.902464086e-06
0.3288532414 	0.01077389952 	-0.001728654854 	-2.066198477e-06 	0.002906260635 	2.836805546e-06 	5.540140524e-06
0.3292541942 	0.01003314002 	-0.001607376121 	-2.053921006e-06 	0.00270649004 	2.89540908e-06 	5.159322246e-06
0.329662499 	0.009261404326 	-0.001481813619 	-2.01499578e-06 	0.002498678137 	2.908952864e-06 	4.763175e-06
0.330078279 	0.008466449864 	-0.001353302646 	-1.946602051e-06 	0.002284967314 	2.871099005e-06 	4.355782774e-06
0.3305016584 	0.007657933917 	-0.001223457528 	-1.847130596e-06 	0.002068001017 	2.777449189e-06 	3.942184709e-06
0.330932763 	0.006847417629 	-0.001094168505 	-1.716464644e-06 	0.001850921219 	2.626316299e-06 	3.528370281e-06
0.3313717196 	0.006048209735 	-0.0009675871808 	-1.556228727e-06 	0.001637328985 	2.419569974e-06 	3.121204117e-06
0.3318186562 	0.005274979018 	-0.0008460879299 	-1.370315347e-06 	0.001431178472 	2.163864062e-06 	2.728223943e-06
0.332273702 	0.004543055959 	-0.0007321485874 	-1.166224848e-06 	0.00123652 	1.872638108e-06 	2.357150792e-06
0.3327369872 	0.003867289183 	-0.0006280882856 	-9.500424839e-07 	0.001057220398 	1.556538169e-06 	2.015355917e-06
0.333208643 	0.003260039652 	-0.0005361787494 	-7.309583138e-07 	0.0008970590701 	1.230089623e-06 	1.710043912e-06
0.333690202 	0.002722429928 	-0.0004576789521 	-5.468458891e-07 	0.0007605533061 	8.315394435e-07 	1.449825986e-06
0.3341943182 	0.002231766333 	-0.0003910731647 	-4.160217585e-07 	0.000662080498 	4.153827351e-07 	1.262109445e-06
0.3347076387 	0.001766915041 	-0.0003322516872 	-3.293715934e-07 	0.0006109325743 	2.304720886e-07 	1.164607287e-06
0.3352303273 	0.00135658439 	-0.0002757586044 	-2.577843491e-07 	0.0005796336615 	1.96934093e-07 	1.10494286e-06
0.3357625509 	0.001032749272 	-0.0002197654059 	-1.794338983e-07 	0.0005439237632 	1.483253699e-07 	1.036869869e-06
0.3363044791 	0.0007925952611 	-0.0001674873846 	-1.030124985e-07 	0.0005070782402 	8.507682996e-08 	9.666320609e-07
0.3368562843 	0.0006248108315 	-0.0001223085765 	-4.177524071e-08 	0.0004756296304 	3.121820788e-08 	9.0668227e-07
0.337418142 	0.0005156084193 	-8.577195334e-05 	-7.857803462e-10 	0.0004537248685 	4.467519026e-10 	8.649257057e-07
0.3374324648 	0.0005139846309 	-8.506855161e-05 	3.165596077e-08 	0.0004534504208 	-1.327032288e-08 	8.64402532e-07
0.337988836 	0.0004507872213 	-5.769320111e-05 	-3.176020379e-08 	0.0004427884725 	1.877411726e-08 	8.440778952e-07
0.3385698873 	0.0004154936054 	-3.643255489e-05 	-4.791561887e-08 	0.0004415067117 	1.44694669e-08 	8.416345029e-07
0.3391615162 	0.0003995937163 	-2.046561305e-05 	-5.290723276e-08 	0.0004480454283 	-7.220482991e-09 	8.540991141e-07
0.3397639102 	0.0003959115157 	-8.455448921e-06 	-5.150489193e-08 	0.0004602663513 	-3.78676246e-08 	8.7739559e-07
0.3403772602 	0.0003995957705 	6.506753108e-07 	-4.693884901e-08 	0.0004761865887 	-7.027184123e-08 	9.077439872e-07
0.3410017602 	0.0004076115854 	7.644234835e-06 	-4.116081741e-08 	0.000494360063 	-1.010855788e-07 	9.423876803e-07
0.3416376076 	0.000418160314 	1.311385204e-05 	-3.531845276e-08 	0.0005138749237 	-1.296775675e-07 	9.795884287e-07
0.342285003 	0.0004302007708 	1.749294062e-05 	-3.00160634e-08 	0.0005341978455 	-1.564325983e-07 	1.018329566e-06
0.3429441507 	0.0004431382011 	2.109737124e-05 	-2.550865408e-08 	0.0005550340794 	-1.819981226e-07 	1.058049219e-06
0.3436152583 	0.0004566357823 	2.415547568e-05 	-2.184767494e-08 	0.0005762341872 	-2.07027409e-07 	1.098462517e-06
0.3442985368 	0.0004705038581 	2.683162289e-05 	-1.898075943e-08 	0.0005977337753 	-2.32058897e-07 	1.139446707e-06
0.3449942011 	0.0004846365871 	2.924351664e-05 	-1.680124153e-08 	0.0006195134692 	-2.574496286e-07 	1.180964857e-06
0.3457024694 	0.0004989758302 	3.147498668e-05 	-1.51856406e-08 	0.0006415753508 	-2.834087019e-07 	1.223020935e-06
0.3464235639 	0.0005134900383 	3.358614185e-05 	-1.402323923e-08 	0.0006639316683 	-3.100604217e-07 	1.26563829e-06
0.3471577105 	0.0005281623122 	3.561902595e-05 	-1.32128698e-08 	0.0006866024835 	-3.374145093e-07 	1.308855165e-06
0.3479051389 	0.0005429849056 	3.760623423e-05 	-1.266594596e-08 	0.0007095955741 	-3.653871542e-07 	1.352686386e-06
0.3486660827 	0.0005580058145 	3.957485619e-05 	-1.231461554e-08 	0.0007329938651 	-3.939085324e-07 	1.397290032e-06
0.34945109 	0.0005733359093 	4.154547123e-05 	-1.202194322e-08 	0.0007569964486 	-4.220479663e-07 	1.443045627e-06
0.3502630611 	0.0005889896332 	4.352540057e-05 	-1.01762941e-08 	0.0007816080766 	-3.968167884e-07 	1.489962231e-06
0.3510896352 	0.0006048500043 	4.551254336e-05 	-8.516129926e-09 	0.0008066573018 	-3.715609078e-07 	1.537713016e-06
0.3519310666 	0.0006208471075 	4.750274806e-05 	-7.001497757e-09 	0.0008320571757 	-3.460217379e-07 	1.586132235e-06
0.3527876142 	0.0006369754279 	4.950402115e-05 	-5.859449313e-09 	0.0008578211748 	-3.207680783e-07 	1.635245578e-06
0.3536595409 	0.0006532223423 	5.152699136e-05 	-5.262043482e-09 	0.0008839856207 	-2.957986066e-07 	1.685122284e-06
0.3545471142 	0.0006695682595 	5.358576117e-05 	-4.787978937e-09 	0.0009106121684 	-2.68773558e-07 	1.735879885e-06
0.3554506062 	0.0006859936203 	5.569320792e-05 	-4.188708976e-09 	0.0009377472083 	-2.389526218e-07 	1.787606812e-06
0.3563702933 	0.0007024851912 	5.783047961e-05 	-3.453223721e-09 	0.0009653162418 	-2.074616613e-07 	1.840161053e-06
0.357306457 	0.0007190070694 	5.997749467e-05 	-2.637620508e-09 	0.0009933533018 	-1.752151353e-07 	1.893607481e-06
0.358259383 	0.0007375972395 	6.248775426e-05 	-1.770803177e-09 	0.001025687232 	-1.423958806e-07 	1.95524494e-06
0.3597206513 	0.0007602492465 	6.564983606e-05 	-7.820552937e-10 	0.001065131811 	-9.059567989e-08 	2.030437271e-06
0.3611962551 	0.0007848046495 	6.918534218e-05 	-1.641102271e-10 	0.001107384701 	-3.723864775e-08 	2.110983022e-06
0.3622065599 	0.0008013454534 	7.170077921e-05 	4.805763746e-08 	0.001135697332 	5.387156022e-07 	2.164954765e-06
0.3626853298 	0.0008092023233 	7.289538744e-05 	-1.014099085e-10 	0.001149140947 	-1.800971616e-08 	2.190582033e-06
0.3641869071 	0.0008335680053 	7.68102005e-05 	-1.245736783e-10 	0.001191071988 	-7.505147149e-08 	2.27051425e-06
0.3657415917 	0.000858035594 	8.097976097e-05 	5.685760615e-10 	0.001233538349 	-1.338949852e-07 	2.351466938e-06
0.3673153958 	0.0008824886467 	8.538563866e-05 	2.004810097e-09 	0.001276024614 	-1.932796997e-07 	2.432457566e-06
0.3689044967 	0.0009067755241 	9.000749452e-05 	4.073308902e-09 	0.001318231638 	-2.542128852e-07 	2.512915886e-06
0.3705090474 	0.0009308826144 	9.486823502e-05 	6.81037852e-09 	0.00136020673 	-3.165035388e-07 	2.592932077e-06
0.372129203 	0.0009548163419 	9.998167549e-05 	1.01005607e-08 	0.001401957421 	-3.798402216e-07 	2.672520498e-06
0.3737651208 	0.0009785897786 	0.0001053632802 	1.390917786e-08 	0.001443495971 	-4.439630964e-07 	2.75170452e-06
0.3754169603 	0.001002222489 	0.0001110197004 	1.825093364e-08 	0.001484855339 	-5.086220222e-07 	2.830546971e-06
0.3770848833 	0.001025740081 	0.0001169689052 	1.87393054e-08 	0.001526024245 	-4.646478647e-07 	2.909026347e-06
0.3787690537 	0.001049271442 	0.0001232221024 	1.808356282e-08 	0.001567220792 	-4.046087628e-07 	2.987558417e-06
0.3804988631 	0.00107300008 	0.0001298174967 	1.677785985e-08 	0.001608773106 	-3.424687761e-07 	3.066768675e-06
0.3822608994 	0.001096912317 	0.0001367640192 	1.484548552e-08 	0.001650551 	-2.789885622e-07 	3.146408953e-06
0.384039893 	0.001120888817 	0.0001439945018 	1.232685496e-08 	0.001692310072 	-2.149539928e-07 	3.226013351e-06
0.3858360178 	0.001144904676 	0.0001514681579 	9.242408579e-09 	0.00173403992 	-1.504962112e-07 	3.305562039e-06
0.3876494502 	0.001168980194 	0.000159162797 	5.60663804e-09 	0.001775798789 	-8.569470014e-08 	3.385166049e-06
0.3894803696 	0.001193121995 	0.0001670483698 	1.422502715e-09 	0.00181766338 	-2.050396415e-08 	3.464971596e-06
0.3900584941 	0.001200684748 	0.000169566317 	9.768525287e-08 	0.001830805032 	4.765120927e-07 	3.490023237e-06
0.3913268074 	0.00121730612 	0.0001750989545 	2.978906195e-09 	0.001859691192 	-4.509744141e-08 	3.545088287e-06
0.3931901374 	0.001241568604 	0.0001833069294 	7.764750623e-09 	0.001902106937 	-1.116337057e-07 	3.625944485e-06
0.3950927878 	0.001265993313 	0.0001916966191 	1.31446477e-08 	0.001945364475 	-1.807532685e-07 	3.708405376e-06
0.3970388981 	0.001290484887 	0.0002003023364 	1.908611103e-08 	0.001989619228 	-2.536559359e-07 	3.792767235e-06
0.3990036413 	0.001314741567 	0.0002090878476 	2.536658939e-08 	0.002034789713 	-3.307602491e-07 	3.878874733e-06
0.400987215 	0.001338484242 	0.0002180520159 	3.169406153e-08 	0.002081041282 	-4.137144158e-07 	3.967043079e-06
0.4029898197 	0.001361473255 	0.0002272788083 	3.7612937e-08 	0.002128676776 	-5.042096101e-07 	4.05784957e-06
0.4050116593 	0.001383439305 	0.0002368820164 	4.248955325e-08 	0.002177980533 	-6.035755267e-07 	4.151836233e-06
0.4070529411 	0.001404116099 	0.0002470474107 	3.733948087e-08 	0.002229125526 	-5.845964389e-07 	4.249332806e-06
0.4091191997 	0.001423346916 	0.0002580100879 	2.873301766e-08 	0.002282511864 	-5.245274118e-07 	4.351102005e-06
0.4112474576 	0.001441021253 	0.0002701550098 	1.944607202e-08 	0.002338067994 	-4.536178905e-07 	4.457007429e-06
0.4133959597 	0.001456983604 	0.0002837941275 	1.035223234e-08 	0.002394655153 	-3.718861743e-07 	4.564878282e-06
0.4155649276 	0.001471330404 	0.0002992052405 	2.403973339e-09 	0.00245075786 	-2.781866023e-07 	4.671825634e-06
0.4177545874 	0.001484561386 	0.0003169291876 	-6.221718147e-09 	0.002504222706 	-1.773888761e-07 	4.773744491e-06
0.4199651688 	0.001497801344 	0.0003389715625 	-9.49796125e-09 	0.002551955033 	-7.806473049e-08 	4.864735573e-06
0.4221969057 	0.001512349612 	0.0003644132346 	-2.345441905e-10 	0.002588474929 	-2.991612925e-09 	4.934352645e-06
0.4223203246 	0.001513181295 	0.000365646934 	4.944801103e-08 	0.002589722832 	2.443987407e-08 	4.936731495e-06
0.424469228 	0.001527666175 	0.0003872149168 	-1.993752741e-09 	0.002611618926 	-4.559580907e-08 	4.978471534e-06
0.4267889352 	0.001542631676 	0.000407249066 	5.746151288e-09 	0.002628265838 	-8.688229986e-08 	5.010205176e-06
0.4291306938 	0.001556627472 	0.0004253997668 	2.53898008e-08 	0.002643473407 	-1.363935179e-07 	5.039195029e-06
0.4314947558 	0.001569205016 	0.0004406111966 	5.638241931e-08 	0.002657850297 	-1.885836133e-07 	5.066601377e-06
0.4338813777 	0.001580431385 	0.0004536896092 	9.03513102e-08 	0.002671139533 	-2.388813187e-07 	5.091934355e-06
0.4362908213 	0.001590419634 	0.0004652803898 	1.251822144e-07 	0.002683134972 	-2.859060209e-07 	5.114800995e-06
0.43874163 	0.001599332635 	0.0004758178609 	1.60213231e-07 	0.002693861956 	-3.30294118e-07 	5.135249608e-06
0.4412451404 	0.001607316956 	0.0004856574223 	1.852894892e-07 	0.002703303631 	-3.539694894e-07 	5.153248065e-06
0.4437723886 	0.001614445627 	0.0004949447321 	1.680465897e-07 	0.002711474118 	-3.028002524e-07 	5.168823283e-06
0.446323657 	0.001620818397 	0.0005037277893 	1.472799831e-07 	0.002718553683 	-2.535010716e-07 	5.182318902e-06
0.4488992335 	0.001626567577 	0.0005121712037 	1.242041726e-07 	0.002724632803 	-2.061739432e-07 	5.193907394e-06
0.4514994119 	0.001631797578 	0.0005202969927 	9.957092658e-08 	0.002729946219 	-1.60593808e-07 	5.204036243e-06
0.4541616688 	0.001636646202 	0.0005282215398 	7.344779337e-08 	0.002734660367 	-1.157638053e-07 	5.21302272e-06
0.4568588278 	0.001641184243 	0.0005360427288 	4.654388124e-08 	0.00273878264 	-7.204669865e-08 	5.220880917e-06
0.4595815725 	0.001645432681 	0.0005436699953 	1.922596582e-08 	0.002742471721 	-2.934730587e-08 	5.227913331e-06
0.4615041402 	0.001648248238 	0.000548913613 	4.71565232e-08 	0.002744789369 	-1.582392295e-07 	5.232331413e-06
0.4623294293 	0.001649458102 	0.0005511633087 	8.125405414e-09 	0.002745779549 	-1.255080593e-08 	5.23421897e-06
0.4651017109 	0.001653303415 	0.0005585189714 	3.51337271e-08 	0.002748821097 	-5.378229358e-08 	5.240017007e-06
0.4679286799 	0.001657049658 	0.0005658096738 	6.242086844e-08 	0.002751702082 	-9.492861485e-08 	5.245508964e-06
0.4708000474 	0.001660742958 	0.0005731236301 	8.971285587e-08 	0.002754384181 	-1.358336775e-07 	5.25062179e-06
0.4736987461 	0.001664370931 	0.0005803863754 	1.167133698e-07 	0.002756937748 	-1.762498971e-07 	5.255489599e-06
0.476625129 	0.00166795709 	0.000587628597 	1.433547754e-07 	0.002759359618 	-2.162393632e-07 	5.260106357e-06
0.4795795562 	0.001671515336 	0.0005948275462 	1.695712545e-07 	0.002761741965 	-2.558245031e-07 	5.264647772e-06
0.4825972259 	0.001675106439 	0.000602058978 	1.956707359e-07 	0.002764111148 	-2.955295483e-07 	5.269164093e-06
0.4856526605 	0.001678746461 	0.0006093856998 	2.132406448e-07 	0.002766385639 	-3.227598909e-07 	5.273499905e-06
0.4887372686 	0.001682399325 	0.0006167190269 	1.870032354e-07 	0.002768615073 	-2.838887692e-07 	5.277749826e-06
0.4918514422 	0.001686079607 	0.0006240744191 	1.611433941e-07 	0.002770806891 	-2.455482188e-07 	5.281928041e-06
0.4950073042 	0.00168980781 	0.0006314556158 	1.355771347e-07 	0.002773019879 	-2.07505177e-07 	5.286146611e-06
0.4982235491 	0.001693628374 	0.0006389473048 	1.102182949e-07 	0.00277520432 	-1.695440523e-07 	5.290310761e-06
0.5014705527 	0.001697519296 	0.0006465267049 	8.541983216e-08 	0.002777330303 	-1.321505617e-07 	5.294363477e-06
0.5047487424 	0.001701457906 	0.0006541576034 	6.121001339e-08 	0.002779398069 	-9.529494879e-08 	5.298305214e-06
0.5080599365 	0.001705451281 	0.0006618156707 	3.759212746e-08 	0.002781486051 	-5.893012152e-08 	5.302285488e-06
0.5114411945 	0.001709559631 	0.0006695907899 	1.430310709e-08 	0.002783562619 	-2.258805727e-08 	5.306244002e-06
0.5135991682 	0.001712222651 	0.0006745954493 	4.67242329e-08 	0.002784812936 	-2.518785185e-07 	5.308627456e-06
0.5148541725 	0.001713770122 	0.0006775014858 	8.070908862e-09 	0.002785535408 	-1.306727589e-08 	5.310004687e-06
0.5182988631 	0.001718032301 	0.0006854646541 	2.938739676e-08 	0.002787428942 	-4.798958476e-08 	5.313614289e-06
0.5217779526 	0.001722363756 	0.0006934733668 	4.995990785e-08 	0.002789317833 	-8.233514602e-08 	5.317215041e-06
0.52532682 	0.001726824716 	0.0007016124447 	7.000275338e-08 	0.002791165343 	-1.16489072e-07 	5.320736907e-06
0.528910028 	0.00173140563 	0.0007099160184 	8.918250105e-08 	0.002792859935 	-1.499631331e-07 	5.323967271e-06
0.5325280828 	0.001736048423 	0.0007182804491 	1.07497873e-07 	0.002794466503 	-1.82761473e-07 	5.327029836e-06
0.5361891746 	0.001740788404 	0.0007267251571 	1.249829187e-07 	0.002796020387 	-2.149789565e-07 	5.329991971e-06
0.539912511 	0.001745670586 	0.0007353224249 	1.416931016e-07 	0.002797459776 	-2.467446318e-07 	5.332735847e-06
0.5436721471 	0.001750672162 	0.0007440782731 	1.574176254e-07 	0.002798699384 	-2.777519294e-07 	5.335098884e-06
0.5474686338 	0.001755748304 	0.0007528970613 	1.721616458e-07 	0.002799832136 	-3.07988647e-07 	5.337258224e-06
0.5513216279 	0.001760960837 	0.0007618394646 	1.736815524e-07 	0.002800843876 	-3.152653779e-07 	5.339186883e-06
0.5552246668 	0.001766328244 	0.0007709635335 	1.552675349e-07 	0.002801628706 	-2.862354866e-07 	5.340682987e-06
0.5591661162 	0.001771800322 	0.0007802043371 	1.376879829e-07 	0.002802199695 	-2.580027633e-07 	5.341771449e-06
0.5631511971 	0.001777387893 	0.0007895394187 	1.209067026e-07 	0.002802610198 	-2.304861849e-07 	5.342553983e-06
0.5671996694 	0.001783148586 	0.0007990423689 	1.04856896e-07 	0.00280279074 	-2.035550698e-07 	5.342898147e-06
0.5712881919 	0.001789062569 	0.000808722286 	8.969424685e-08 	0.002802649453 	-1.77511991e-07 	5.342628813e-06
0.5754174009 	0.00179508434 	0.0008184839551 	7.541874461e-08 	0.002802290012 	-1.523187875e-07 	5.34194362e-06
0.5796100922 	0.001801291928 	0.0008284003728 	6.193725888e-08 	0.002801664667 	-1.278018402e-07 	5.340751538e-06
0.5838480727 	0.001807688581 	0.0008385155075 	4.937004111e-08 	0.00280064362 	-1.042220313e-07 	5.338805138e-06
0.5881285045 	0.001814211904 	0.0008487233511 	3.772887296e-08 	0.002799326687 	-8.15851983e-08 	5.336294698e-06
0.592468147 	0.001820933923 	0.0008590765094 	2.694644896e-08 	0.002797681496 	-5.977175708e-08 	5.333158507e-06
0.5968582973 	0.001827871835 	0.0008696267081 	1.709056851e-08 	0.002795577427 	-3.895235405e-08 	5.329147567e-06
0.6012927572 	0.001834966796 	0.0008802807264 	8.17179993e-09 	0.002793095523 	-1.916717128e-08 	5.324416367e-06
0.6057856853 	0.001842282625 	0.0008910749812 	1.346870157e-10 	0.002790208552 	-3.256905482e-10 	5.318912998e-06
0.6058686619 	0.001842420651 	0.0008912755687 	3.294154141e-09 	0.002790146187 	-1.908370605e-08 	5.318794114e-06
0.6103303191 	0.001849839015 	0.0009020533938 	6.833818033e-09 	0.00278679018 	-1.723006206e-08 	5.312396631e-06
0.6149212656 	0.001857583748 	0.0009131334573 	1.29125524e-08 	0.002782917332 	-3.367348509e-08 	5.305013907e-06
0.6195723842 	0.001865583705 	0.0009243517845 	1.815568485e-08 	0.002778548745 	-4.908057703e-08 	5.296686165e-06
0.6242759264 	0.001873854791 	0.0009357416691 	2.253658032e-08 	0.002773568176 	-6.331814086e-08 	5.287191817e-06
0.6290278534 	0.001882348577 	0.0009472186185 	2.609154641e-08 	0.002768059204 	-7.638503713e-08 	5.276690186e-06
0.6338430612 	0.001891142131 	0.0009588322592 	2.886859231e-08 	0.002761943285 	-8.833210747e-08 	5.265031543e-06
0.6387094544 	0.001900229701 	0.0009705802363 	3.086231079e-08 	0.002755150243 	-9.903659469e-08 	5.252082118e-06
0.6436287687 	0.001909592375 	0.0009824012099 	3.21361731e-08 	0.002747742752 	-1.085452114e-07 	5.237961381e-06
0.6486104566 	0.001919274039 	0.0009943157163 	3.273135096e-08 	0.002739628363 	-1.168466359e-07 	5.2224931e-06
0.6535885607 	0.00192914727 	0.001006172935 	3.268426135e-08 	0.00273089703 	-1.238202514e-07 	5.205848753e-06
0.65851419 	0.001939144796 	0.001017854272 	3.208457184e-08 	0.002721661844 	-1.295124514e-07 	5.188243922e-06
0.6633878192 	0.001949282145 	0.001029362625 	3.100292455e-08 	0.002711870424 	-1.339442192e-07 	5.169578753e-06
0.6682048624 	0.001959511304 	0.001040641774 	2.953202777e-08 	0.002701617894 	-1.372176791e-07 	5.150034581e-06
0.6729731885 	0.001969874331 	0.001051715341 	2.774843075e-08 	0.002690905477 	-1.394559452e-07 	5.129613737e-06
0.6776883892 	0.001980365913 	0.001062590751 	2.570737935e-08 	0.00267970044 	-1.406828944e-07 	5.108253823e-06
0.6823494001 	0.001990944082 	0.001073217523 	2.348866181e-08 	0.002668105283 	-1.410141386e-07 	5.086150231e-06
0.6869638811 	0.002001666639 	0.001083629479 	2.114374859e-08 	0.002656082091 	-1.405295272e-07 	5.063230686e-06
0.69152573 	0.002012512812 	0.001093819549 	1.871928433e-08 	0.002643630808 	-1.392652314e-07 	5.03949508e-06
0.6960360527 	0.002023461663 	0.001103755278 	1.62743112e-08 	0.002630836927 	-1.373322853e-07 	5.015106386e-06
0.7005001735 	0.00203456683 	0.001113469848 	1.384160003e-08 	0.0026176561 	-1.347854873e-07 	4.989980067e-06
0.7049135952 	0.002045800758 	0.001122949653 	1.145798274e-08 	0.00260411217 	-1.316732056e-07 	4.964161571e-06
0.7092775063 	0.00205715794 	0.001132175902 	9.161932854e-09 	0.002590275197 	-1.280918129e-07 	4.937784455e-06
0.7135960089 	0.002068688031 	0.001141177767 	6.972691308e-09 	0.002576106169 	-1.240844876e-07 	4.910774351e-06
0.7178657865 	0.002080367857 	0.001149945511 	4.913661801e-09 	0.002561630613 	-1.196968082e-07 	4.883179917e-06
0.7220875898 	0.002092192756 	0.001158464297 	3.007290437e-09 	0.002546918226 	-1.150098531e-07 	4.855134019e-06
0.7262652504 	0.002104214885 	0.001166760477 	1.262050089e-09 	0.002531939603 	-1.100636568e-07 	4.8265806e-06
0.7303960315 	0.002116423476 	0.001174833924 	-3.117913658e-10 	0.002516705572 	-1.048913557e-07 	4.797540302e-06
0.7344805912 	0.002128804184 	0.001182668534 	-1.7033524e-09 	0.002501295573 	-9.95607101e-08 	4.768164562e-06
0.7385215828 	0.002141412562 	0.00119028735 	-2.912814122e-09 	0.002485694784 	-9.411291535e-08 	4.738425121e-06
0.7425178833 	0.002154255239 	0.001197700709 	-3.940077343e-09 	0.00246989469 	-8.856698957e-08 	4.70830575e-06
0.7464696505 	0.002167307469 	0.001204892787 	-4.783333741e-09 	0.002453981177 	-8.297788107e-08 	4.677970172e-06
0.7503784336 	0.002180621097 	0.001211881253 	-5.449298424e-09 	0.002437960988 	-7.738798528e-08 	4.64743124e-06
0.7542446399 	0.002194221319 	0.001218683523 	-5.944835154e-09 	0.002421816388 	-7.180829902e-08 	4.616655146e-06
0.7580679078 	0.002208084642 	0.001225291024 	-6.275706207e-09 	0.002405619222 	-6.62789224e-08 	4.585778844e-06
0.7618489142 	0.002222241829 	0.001231712618 	-6.452812888e-09 	0.002389409775 	-6.083953926e-08 	4.554879133e-06
0.7655892833 	0.002236735711 	0.001237968428 	-6.488266909e-09 	0.002373178934 	-5.550495153e-08 	4.52393864e-06
0.7692882266 	0.002251563833 	0.001244064153 	-6.39362572e-09 	0.002356959906 	-5.029517034e-08 	4.493020663e-06
0.7729462699 	0.002266724022 	0.001250000683 	-6.182526274e-09 	0.002340827865 	-4.524223641e-08 	4.46226851e-06
0.7765644362 	0.002282265641 	0.001255796867 	-5.871368195e-09 	0.002324797276 	-4.036874644e-08 	4.431709753e-06
0.7801431096 	0.002298214729 	0.001261469999 	-5.474496412e-09 	0.002308874524 	-3.568000228e-08 	4.401356562e-06
0.7836822925 	0.002314561812 	0.001267025181 	-5.007333175e-09 	0.002293126286 	-3.119849391e-08 	4.371336043e-06
0.7871824709 	0.002331330248 	0.001272475073 	-4.486738083e-09 	0.002277609457 	-2.694613731e-08 	4.341756654e-06
0.7906446711 	0.002348568605 	0.001277841465 	-3.929539638e-09 	0.002262334823 	-2.293411697e-08 	4.312638956e-06
0.7940688637 	0.002366297889 	0.001283142056 	-3.351208781e-09 	0.002247326382 	-1.916581221e-08 	4.284028696e-06
0.7974553732 	0.002384523413 	0.00128838951 	-2.768630707e-09 	0.002232649719 	-1.56540929e-08 	4.256050898e-06
0.8008046515 	0.002403288106 	0.001293604073 	-2.198681742e-09 	0.002218344192 	-1.240850224e-08 	4.228780587e-06
0.8041175789 	0.002422648563 	0.001298810264 	-1.65652394e-09 	0.002204414754 	-9.431265435e-09 	4.202227207e-06
0.8073941181 	0.00244263453 	0.001304028558 	-1.155989384e-09 	0.002190887615 	-6.724153169e-09 	4.17644072e-06
0.8106346707 	0.002463268359 	0.001309277402 	-7.112228668e-10 	0.002177816015 	-4.29513432e-09 	4.151522618e-06
0.8138396595 	0.002484600545 	0.001314579249 	-3.356119751e-10 	0.002165232727 	-2.149559958e-09 	4.127535373e-06
0.8170097807 	0.002506693849 	0.001319958472 	-4.110645726e-11 	0.002153142086 	-2.876932667e-10 	4.10448725e-06
0.8175402391 	0.002510567874 	0.001320885512 	3.016584176e-09 	0.00215118369 	-1.468298265e-07 	4.100754004e-06
0.8201450131 	0.00252959283 	0.001325437974 	-2.154806621e-10 	0.002141562851 	-1.209736601e-09 	4.08241401e-06
0.8232458362 	0.002553327507 	0.001331037424 	-3.754148975e-10 	0.002130539145 	-2.399947094e-09 	4.061399762e-06
0.8263126747 	0.002577948478 	0.001336778797 	-4.16991509e-10 	0.002120103801 	-3.297212194e-09 	4.041507098e-06
0.8293460587 	0.002603521291 	0.001342684832 	-3.310790279e-10 	0.002110264455 	-3.902150972e-09 	4.022750569e-06
0.832346269 	0.002630097107 	0.001348777215 	-1.09377604e-10 	0.002101033673 	-4.218511106e-09 	4.005154133e-06
0.8353136109 	0.002657714787 	0.001355076656 	2.561192869e-10 	0.002092446277 	-4.248175515e-09 	3.988784169e-06
0.8382484591 	0.002686428793 	0.001361604227 	7.724557873e-10 	0.00208452961 	-3.993985978e-09 	3.973692802e-06
0.8411512145 	0.002716309893 	0.001368380331 	1.445501378e-09 	0.002077290744 	-3.460479778e-09 	3.959893511e-06
0.8440222961 	0.00274742662 	0.001375424282 	2.280396667e-09 	0.002070728439 	-2.654744215e-09 	3.947383934e-06
0.8468619449 	0.0027798277 	0.001382755123 	3.281534865e-09 	0.002064865995 	-1.581546446e-09 	3.936208487e-06
0.8496705157 	0.002813559772 	0.001390391979 	4.452882865e-09 	0.002059733674 	-2.3699469e-10 	3.926424855e-06
0.852448358 	0.00284866493 	0.001398354768 	5.799237286e-09 	0.002055368019 	1.398067586e-09 	3.918102704e-06
0.8551958614 	0.002885178389 	0.001406664174 	7.327202538e-09 	0.002051807645 	3.356845096e-09 	3.911315642e-06
0.857913338 	0.002923114572 	0.001415343151 	9.045153131e-09 	0.002049100988 	5.672900745e-09 	3.906156002e-06
0.8606010833 	0.002962476222 	0.001424417133 	1.095777056e-08 	0.00204731239 	8.352081482e-09 	3.902746436e-06
0.8632594293 	0.003003297442 	0.00143390822 	1.306013435e-08 	0.002046472536 	1.13438993e-08 	3.90114544e-06
0.8658887031 	0.003045666767 	0.001443829634 	1.53320796e-08 	0.002046556591 	1.452872819e-08 	3.901305673e-06
0.8684892567 	0.003089744017 	0.001454179497 	1.773798101e-08 	0.002047468142 	1.773831309e-08 	3.903043342e-06
0.8710613826 	0.003135736001 	0.00146494144 	2.023658692e-08 	0.002049062921 	2.081857177e-08 	3.906083435e-06
0.8736053763 	0.003183845732 	0.001476093723 	2.279731145e-08 	0.002051215263 	2.37136408e-08 	3.910186396e-06
0.8761215493 	0.003234208581 	0.001487622675 	2.542382923e-08 	0.002053871875 	2.654179484e-08 	3.915250639e-06
0.8786102089 	0.00328680777 	0.001499544594 	2.816884888e-08 	0.002057127213 	2.960861859e-08 	3.921456218e-06