1.167446248e-36 	0.005227167015 	-2.13696361e-16 	-6.889713307e-21 	1.702421147e-16 	7.432931251e-18 	3.24528787e-19
0.0003162438639 	0.005226304422 	-5.143396559e-06 	-4.888429318e-10 	0.005773106327 	-1.84168555e-07 	1.100514521e-05
0.0006324872147 	0.005226321529 	-2.521817714e-05 	8.364433645e-10 	0.00579307351 	-1.701162191e-07 	1.104320821e-05
0.0009487300516 	0.005227306251 	-3.690265169e-05 	1.10567213e-09 	0.005795256535 	-1.541962092e-07 	1.104736966e-05
0.001264972374 	0.005227876291 	-4.899640623e-05 	1.332987544e-09 	0.00579841429 	-1.38294375e-07 	1.105338922e-05
0.001581214182 	0.005228894007 	-6.100582439e-05 	1.469954828e-09 	0.005799240707 	-1.221692479e-07 	1.10549646e-05
0.001897455474 	0.005230114306 	-7.302386602e-05 	1.528425332e-09 	0.005800208051 	-1.060293529e-07 	1.105680863e-05
0.002213696249 	0.005231558753 	-8.504789122e-05 	1.509081503e-09 	0.005801225778 	-8.987054727e-08 	1.10587487e-05
0.002529936509 	0.005233222224 	-9.707903781e-05 	1.412444608e-09 	0.005802366637 	-7.369836611e-08 	1.106092349e-05
0.002846176251 	0.005235107474 	-0.0001091161321 	1.238643732e-09 	0.00580362089 	-5.751322032e-08 	1.106331445e-05
0.003162415477 	0.005237213817 	-0.0001211582318 	9.877285909e-10 	0.005805001313 	-4.131636311e-08 	1.106594592e-05
0.003478654184 	0.005239540887 	-0.000133204444 	6.59716389e-10 	0.005806513116 	-2.510849056e-08 	1.106882784e-05
0.003794892374 	0.005242088216 	-0.0001452540587 	2.546220338e-10 	0.005808159828 	-8.890102606e-09 	1.107196693e-05
0.003968138875 	0.005243604119 	-0.0001518566098 	1.156413571e-09 	0.005809136887 	-8.794806554e-06 	1.107382947e-05
0.004111130046 	0.005244853819 	-0.00015730659 	2.311956266e-10 	0.005809943843 	-7.360624944e-09 	1.107536776e-05
0.004427367199 	0.005247836879 	-0.0001693616258 	7.993786589e-10 	0.005811866512 	-2.364828505e-08 	1.10790329e-05
0.004743603834 	0.005251038709 	-0.0001814187131 	1.445778832e-09 	0.005813928017 	-3.994578702e-08 	1.10829627e-05
0.005059839951 	0.005254458724 	-0.0001934775644 	2.170333606e-09 	0.00581612888 	-5.625289692e-08 	1.108715815e-05
0.005376075549 	0.005258096293 	-0.0002055379479 	2.972966826e-09 	0.00581846943 	-7.256939826e-08 	1.109161989e-05
0.005692310628 	0.00526195074 	-0.0002175996752 	3.853588779e-09 	0.005820949866 	-8.889508547e-08 	1.109634829e-05
0.006008545189 	0.005266021334 	-0.0002296625924 	4.812096338e-09 	0.005823570293 	-1.052297612e-07 	1.110134356e-05
0.006324779232 	0.005270307285 	-0.0002417265729 	5.848373064e-09 	0.005826330745 	-1.215732334e-07 	1.110660574e-05
0.006641012756 	0.005274807741 	-0.000253791512 	6.962289393e-09 	0.005829231203 	-1.379253154e-07 	1.111213482e-05
0.006957245763 	0.00527952177 	-0.0002658573222 	8.153702811e-09 	0.00583227161 	-1.542858252e-07 	1.111793069e-05
0.007273478251 	0.005284448345 	-0.000277923928 	9.422458062e-09 	0.005835451891 	-1.70654587e-07 	1.112399318e-05
0.007589710222 	0.005289586292 	-0.0002899912616 	1.076838737e-08 	0.005838771976 	-1.870314335e-07 	1.113032219e-05
0.007905941675 	0.0052949342 	-0.0003020592542 	1.219131039e-08 	0.005842231833 	-2.034162107e-07 	1.113691764e-05
0.008222172612 	0.005300490253 	-0.0003141278522 	1.369103661e-08 	0.005845831382 	-2.198087767e-07 	1.114377938e-05
0.008538403032 	0.00530625186 	-0.0003261967478 	1.526734361e-08 	0.005849570628 	-2.362090197e-07 	1.115090742e-05
0.008854632936 	0.005312215201 	-0.0003382680232 	1.692018339e-08 	0.005853452157 	-2.526169587e-07 	1.115830669e-05
0.009170862325 	0.005318370602 	-0.0003503186709 	1.864778425e-08 	0.005857482729 	-2.690330598e-07 	1.116599008e-05
0.009487091198 	0.005325579401 	-0.0003637411842 	2.052051033e-08 	0.005862275604 	-2.854709149e-07 	1.117512664e-05
0.009978436983 	0.005334923344 	-0.000380036925 	2.3310369e-08 	0.005868600964 	-3.109941621e-07 	1.118718453e-05
0.01047901633 	0.005345835964 	-0.000397978368 	2.639403018e-08 	0.005876038882 	-3.370236403e-07 	1.120136327e-05
0.01098900275 	0.005357552432 	-0.0004162728971 	2.97139266e-08 	0.005884019042 	-3.635501859e-07 	1.121657567e-05
0.01150857298 	0.005370098159 	-0.0004349338364 	3.328090934e-08 	0.005892558133 	-3.905808497e-07 	1.123285355e-05
0.01203790712 	0.005383500274 	-0.0004539645712 	3.710536586e-08 	0.005901677894 	-4.181228726e-07 	1.125023835e-05
0.01257718863 	0.005397788107 	-0.0004733700563 	4.119804356e-08 	0.005911402123 	-4.461838196e-07 	1.126877543e-05
0.01312660441 	0.005412992693 	-0.0004931555577 	4.5569931e-08 	0.005921753201 	-4.747710262e-07 	1.128850747e-05
0.01368634489 	0.005429146211 	-0.0005133267741 	5.023227722e-08 	0.0059327536 	-5.038917498e-07 	1.130947728e-05
0.01425660407 	0.005446281718 	-0.0005338897684 	5.519658321e-08 	0.005944426083 	-5.335531718e-07 	1.133172828e-05
0.01483757959 	0.005464432997 	-0.0005548509346 	6.047459556e-08 	0.005956793769 	-5.637623927e-07 	1.135530453e-05
0.01542947281 	0.005483634483 	-0.0005762169688 	6.607829747e-08 	0.005969880102 	-5.945264111e-07 	1.138025072e-05
0.01603248888 	0.00550392119 	-0.0005979948476 	7.201989788e-08 	0.005983708836 	-6.258521048e-07 	1.140661213e-05
0.01664683679 	0.005525328669 	-0.0006201918085 	7.831181799e-08 	0.005998304005 	-6.577462067e-07 	1.143443458e-05
0.01727272946 	0.00554789294 	-0.0006428153365 	8.49666749e-08 	0.006013689972 	-6.902152997e-07 	1.146376451e-05
0.01791038382 	0.00557165049 	-0.0006658732093 	9.199728827e-08 	0.006029891066 	-7.232657022e-07 	1.149464829e-05
0.01856002087 	0.005596637947 	-0.0006893726941 	9.941638214e-08 	0.006046931979 	-7.569034656e-07 	1.152713301e-05
0.01922186577 	0.005622894506 	-0.000713329496 	1.07239343e-07 	0.006064836646 	-7.911341917e-07 	1.156126428e-05
0.0198961479 	0.005650482681 	-0.0007377698875 	1.154840268e-07 	0.006083649005 	-8.259648961e-07 	1.159712587e-05
0.02058563617 	0.005679483812 	-0.0007627210963 	1.241823925e-07 	0.006103431597 	-8.615426831e-07 	1.163483699e-05
0.02128991459 	0.005709942198 	-0.0007882062007 	1.333588875e-07 	0.006124205015 	-8.97895795e-07 	1.167443689e-05
0.0220074278 	0.005741857124 	-0.000814205155 	1.43017578e-07 	0.00614596381 	-9.349549542e-07 	1.17159152e-05
0.02273842446 	0.005775244201 	-0.0008406978489 	1.531662534e-07 	0.006168722443 	-9.727382158e-07 	1.175929948e-05
0.02348315793 	0.005810143461 	-0.0008676983251 	1.638238056e-07 	0.006192504768 	-1.011263732e-06 	1.180463521e-05
0.0242418863 	0.005846593356 	-0.0008952157685 	1.750077868e-07 	0.006217336023 	-1.050551159e-06 	1.185197048e-05
0.02501487254 	0.00588463252 	-0.0009232599737 	1.86736335e-07 	0.006243240491 	-1.090620525e-06 	1.19013516e-05
0.02580238453 	0.005924299449 	-0.0009518409039 	1.99028e-07 	0.006270242393 	-1.131492717e-06 	1.195282472e-05
0.0266046952 	0.005965632464 	-0.000980968702 	2.119017516e-07 	0.006298365516 	-1.173189352e-06 	1.200643521e-05
0.02742208261 	0.006008669643 	-0.001010653695 	2.253769855e-07 	0.006327633225 	-1.215732824e-06 	1.20622276e-05
0.02825483002 	0.006053448754 	-0.001040906388 	2.394735243e-07 	0.00635806839 	-1.259146305e-06 	1.212024549e-05
0.02910322603 	0.006100007188 	-0.001071737466 	2.542116198e-07 	0.006389693318 	-1.303453754e-06 	1.218053139e-05
0.02996756467 	0.006148381898 	-0.001103157788 	2.696119564e-07 	0.006422529689 	-1.348679915e-06 	1.224312664e-05
0.03084814547 	0.006198609333 	-0.001135178388 	2.750696165e-07 	0.006456598483 	-1.342970876e-06 	1.230807123e-05
0.03174527359 	0.006250725371 	-0.001167810473 	2.728472151e-07 	0.006491919909 	-1.30070665e-06 	1.237540368e-05
0.03265925994 	0.006304765253 	-0.00120106542 	2.700790348e-07 	0.006528513328 	-1.257665845e-06 	1.244516091e-05
0.03359042126 	0.006360763516 	-0.001234954775 	2.667422167e-07 	0.006566397181 	-1.213826443e-06 	1.251737806e-05
0.03453908024 	0.006418753909 	-0.001269490251 	2.628133954e-07 	0.006605588907 	-1.169165414e-06 	1.259208838e-05
0.03550556561 	0.006478769317 	-0.001304683727 	2.58268701e-07 	0.006646104901 	-1.123658712e-06 	1.266932313e-05
0.03649021232 	0.006540841683 	-0.001340547257 	2.530837614e-07 	0.006687960259 	-1.077281192e-06 	1.274911108e-05
0.03749336157 	0.006605001766 	-0.001377092834 	2.472336191e-07 	0.006731168855 	-1.030006712e-06 	1.283147867e-05
0.03851536099 	0.006671280333 	-0.001414335237 	2.406935716e-07 	0.006775743325 	-9.818081188e-07 	1.291645e-05
0.03955656474 	0.00673973219 	-0.00145230018 	2.334393599e-07 	0.006821713145 	-9.326590932e-07 	1.300408125e-05
0.04061897128 	0.006810483754 	-0.001491043206 	2.254233922e-07 	0.006869163354 	-8.824293236e-07 	1.309453454e-05
0.04170592738 	0.006883631684 	-0.001530626375 	2.165787417e-07 	0.00691813114 	-8.309050506e-07 	1.318788075e-05
0.04281330888 	0.006959105667 	-0.001571009306 	2.069412194e-07 	0.00696855592 	-7.783535897e-07 	1.328400439e-05
0.04394149955 	0.007036845077 	-0.001612146455 	1.964715481e-07 	0.007020398074 	-7.247403476e-07 	1.338282995e-05
0.04509089038 	0.007116877435 	-0.001654061328 	1.851442771e-07 	0.00707365587 	-6.700316033e-07 	1.348435411e-05
0.04626187967 	0.007199222597 	-0.001696766702 	1.729304757e-07 	0.007128330426 	-6.141943258e-07 	1.358857901e-05
0.04745487324 	0.007283899401 	-0.001740276228 	1.598009215e-07 	0.00718441873 	-5.571942947e-07 	1.369549891e-05
0.04867028451 	0.007370924677 	-0.001784603746 	1.45725877e-07 	0.007241916157 	-4.989968524e-07 	1.380510498e-05
0.04990853466 	0.007460313112 	-0.001829763187 	1.306750624e-07 	0.00730081531 	-4.395667625e-07 	1.391738314e-05
0.05117005281 	0.007552076834 	-0.001875768592 	1.146176496e-07 	0.007361106185 	-3.788683792e-07 	1.40323143e-05
0.05245527612 	0.007646224773 	-0.001922634043 	9.752223896e-08 	0.00742277612 	-3.168657656e-07 	1.414987434e-05
0.05376464996 	0.007742761569 	-0.00197037357 	7.935683696e-08 	0.007485809907 	-2.535228268e-07 	1.427003426e-05
0.05509862807 	0.007841685736 	-0.002019001058 	6.00888263e-08 	0.007550189947 	-1.888034182e-07 	1.43927605e-05
0.05645767272 	0.007942986507 	-0.00206852998 	3.968491663e-08 	0.007615896491 	-1.226714293e-07 	1.451801544e-05
0.05784225485 	0.008046639794 	-0.002118975204 	1.811111682e-08 	0.007682910176 	-5.509080414e-08 	1.464576215e-05
0.05896828177 	0.008131241384 	-0.002159995934 	7.030274776e-09 	0.007737444455 	-1.037469336e-06 	1.474971964e-05
0.05925285427 	0.008152624785 	-0.002170366374 	4.733057612e-09 	0.007751230591 	-1.410077804e-08 	1.477599985e-05
0.06069116533 	0.008261005655 	-0.002222777335 	2.911464943e-08 	0.00782094298 	-8.541453353e-08 	1.490889104e-05
0.06216301825 	0.008371814631 	-0.002276304204 	5.492262888e-08 	0.007892045253 	-1.587013984e-07 	1.504443173e-05
0.06366252918 	0.008499564063 	-0.002338095007 	8.226342728e-08 	0.007973537667 	-2.337441749e-07 	1.519977892e-05
0.06596449751 	0.008659333034 	-0.002414993301 	1.25346584e-07 	0.008074503842 	-3.490567472e-07 	1.539224852e-05
0.06829214032 	0.008836079718 	-0.00249937462 	1.710568424e-07 	0.008184727778 	-4.662684846e-07 	1.560236597e-05
0.07064574395 	0.009015527935 	-0.002584590421 	2.191950518e-07 	0.00829480481 	-5.851972845e-07 	1.581220339e-05
0.07302559793 	0.009197503486 	-0.002670687778 	2.697751258e-07 	0.008404602117 	-7.057783149e-07 	1.602150757e-05
0.07543199503 	0.00938181522 	-0.002757642777 	3.228064426e-07 	0.008513999148 	-8.279414922e-07 	1.623004872e-05
0.07786523129 	0.009568311303 	-0.002845445858 	3.783000279e-07 	0.008622848857 	-9.515996657e-07 	1.643754652e-05
0.08032560603 	0.009757043072 	-0.002934154087 	4.362771773e-07 	0.008731109617 	-1.07666501e-06 	1.664392162e-05
0.08282424014 	0.009948158412 	-0.003023884226 	4.970079099e-07 	0.008838707276 	-1.203568536e-06 	1.684903266e-05
0.08535191995 	0.0101413697 	-0.003114536562 	5.602685083e-07 	0.008945318721 	-1.331587902e-06 	1.70522637e-05
0.08790779437 	0.01033632773 	-0.003205959838 	6.260145495e-07 	0.009050629913 	-1.460490837e-06 	1.725301611e-05
0.09049217788 	0.01053292534 	-0.003298137605 	6.87312809e-07 	0.009154409946 	-1.574185796e-06 	1.745084969e-05
0.09310538849 	0.01073106874 	-0.003391048959 	6.464780383e-07 	0.00925644554 	-1.45366825e-06 	1.76453579e-05
0.09574774776 	0.01093066954 	-0.00348467166 	6.031178434e-07 	0.009356513923 	-1.331443506e-06 	1.783611605e-05
0.09841958081 	0.01113167854 	-0.003578995618 	5.572238147e-07 	0.009454404455 	-1.207633849e-06 	1.802272261e-05
0.1011232676 	0.01133422802 	-0.003674086079 	5.087440956e-07 	0.009549987875 	-1.082261726e-06 	1.820493117e-05
0.1038669738 	0.01153842275 	-0.003770002381 	4.574891558e-07 	0.009643059921 	-9.550885783e-07 	1.838235236e-05
0.1066412871 	0.01174395531 	-0.003866592052 	4.037165466e-07 	0.009733249644 	-8.269264571e-07 	1.855427904e-05
0.109446549 	0.01195056227 	-0.003963711768 	3.474080772e-07 	0.009820227843 	-6.979853788e-07 	1.872008366e-05
0.1122831048 	0.0121581937 	-0.004061326889 	2.885665559e-07 	0.0099037161 	-5.685008655e-07 	1.887923548e-05
0.1151513035 	0.01236679182 	-0.004159385198 	2.271955919e-07 	0.009983439573 	-4.387373583e-07 	1.903121058e-05
0.1180514982 	0.01257632471 	-0.004257835364 	1.633035455e-07 	0.01005911305 	-3.089862097e-07 	1.917546527e-05
0.1209850947 	0.01278694282 	-0.004356696194 	9.687820578e-08 	0.01013051275 	-1.795127061e-07 	1.931157294e-05
0.1239620669 	0.01299882191 	-0.004455996558 	2.770431749e-08 	0.01019735018 	-5.024438006e-08 	1.943898365e-05
0.1251390251 	0.01308204685 	-0.004494910439 	1.761346126e-07 	0.01022154305 	-3.221636163e-06 	1.948510199e-05
0.1269722515 	0.0132117179 	-0.004555556846 	4.464761919e-08 	0.01025924064 	-7.88994756e-08 	1.955696406e-05
0.1300160189 	0.01342539388 	-0.004655167336 	1.199049552e-07 	0.01031580202 	-2.0707163e-07 	1.966478578e-05
0.133093744 	0.01363983386 	-0.004754719495 	1.975043315e-07 	0.01036666882 	-3.330943087e-07 	1.976175203e-05
0.1362058055 	0.0138550188 	-0.004854090406 	2.773494967e-07 	0.01041149212 	-4.564613294e-07 	1.98471977e-05
0.1393525864 	0.01407101593 	-0.004953175146 	3.593202791e-07 	0.0104499401 	-5.766326382e-07 	1.992049023e-05
0.1425407528 	0.01428801965 	-0.005051917738 	4.434435495e-07 	0.01048165187 	-6.932816151e-07 	1.99809417e-05
0.1457695841 	0.01450598334 	-0.005150133138 	5.294406663e-07 	0.01050621687 	-8.056251339e-07 	2.002776941e-05
0.1490344407 	0.01472463064 	-0.005247510133 	6.169169378e-07 	0.01052323885 	-9.127995749e-07 	2.006021803e-05
0.1523357245 	0.01494381227 	-0.005343794206 	7.05595258e-07 	0.01053232756 	-1.014158211e-06 	2.007754364e-05
0.155673842 	0.01516343828 	-0.005438748553 	7.951567832e-07 	0.01053309934 	-1.109035366e-06 	2.007901486e-05
0.1590492042 	0.01538344386 	-0.005532131672 	8.852358677e-07 	0.01052518027 	-1.196747033e-06 	2.006391892e-05
0.1624675126 	0.01560385554 	-0.005623735537 	9.755625107e-07 	0.01050815316 	-1.276732663e-06 	2.003146051e-05
0.1659296299 	0.01582446184 	-0.005713242326 	9.954109541e-07 	0.01048160496 	-1.259367203e-06 	1.998085227e-05
0.1694303785 	0.0160447636 	-0.00580020789 	9.141983178e-07 	0.01044518769 	-1.116521783e-06 	1.991143082e-05
0.1729701892 	0.01626433029 	-0.005884226207 	8.31057971e-07 	0.01039854494 	-9.782359607e-07 	1.982251678e-05
0.176549498 	0.01648275363 	-0.005964901714 	7.463059432e-07 	0.01034131157 	-8.451558814e-07 	1.971341408e-05
0.1801687455 	0.01669965242 	-0.006041841096 	6.603029151e-07 	0.01027309936 	-7.179176505e-07 	1.958338265e-05
0.1838369307 	0.01691464397 	-0.006114646044 	5.73246472e-07 	0.01019345655 	-5.969401466e-07 	1.943156131e-05
0.1875479555 	0.01712693239 	-0.006182766909 	4.858523597e-07 	0.01010205511 	-4.832449305e-07 	1.925732477e-05
0.1913003917 	0.01733556186 	-0.006245603995 	3.986783049e-07 	0.009998641957 	-3.776147961e-07 	1.906019055e-05
0.1950947013 	0.0175396434 	-0.006302592543 	3.122979879e-07 	0.009882905693 	-2.807417135e-07 	1.883956506e-05
0.1989313516 	0.01773822587 	-0.006353147989 	2.273750726e-07 	0.00975452955 	-1.932810723e-07 	1.859484445e-05
0.2028158131 	0.01793031632 	-0.006396673237 	1.445761364e-07 	0.009613133488 	-1.157165129e-07 	1.832530426e-05
0.206748532 	0.01811460096 	-0.006432492766 	6.48625247e-08 	0.0094584729 	-4.861665351e-08 	1.803047819e-05
0.2101444497 	0.01826390411 	-0.006455876311 	6.137022916e-07 	0.009315049851 	-2.196853058e-06 	1.7757074e-05
0.2107251389 	0.01828944082 	-0.006459871329 	1.09380106e-08 	0.00929050518 	-7.441176742e-09 	1.771028504e-05
0.2147461234 	0.01845311674 	-0.006478077627 	8.258078916e-08 	0.009109218537 	-5.170360505e-08 	1.736470231e-05
0.2188119806 	0.01860358182 	-0.006486283059 	1.483888394e-07 	0.008914689029 	-8.401069742e-08 	1.6993875e-05
0.2229278897 	0.0187384611 	-0.006483606262 	2.080762179e-07 	0.008707133709 	-1.034057344e-07 	1.659821687e-05
0.2270943661 	0.01885454695 	-0.006469040469 	2.59941638e-07 	0.008487266566 	-1.094095345e-07 	1.617908899e-05
0.2313073414 	0.01894608909 	-0.006441302796 	3.030620052e-07 	0.008257570591 	-1.144357986e-07 	1.574122462e-05
0.2355673346 	0.01900260706 	-0.006400898916 	3.321688599e-07 	0.008028238558 	-1.388378873e-07 	1.530405403e-05
0.2398748701 	0.0189989079 	-0.006350149907 	3.735091348e-07 	0.007818236193 	-2.577883319e-07 	1.490373115e-05
0.2442372224 	0.01887999957 	-0.006299395636 	4.153390238e-07 	0.007663214631 	-3.82314912e-07 	1.460821697e-05
0.248650206 	0.0186697121 	-0.006244934434 	4.30572255e-07 	0.007546020923 	-4.062241391e-07 	1.438481319e-05
0.2531124416 	0.01842897003 	-0.006177448358 	4.417824728e-07 	0.007423223056 	-4.095751631e-07 	1.415072632e-05
0.2576244788 	0.01815840543 	-0.006099827159 	4.424242148e-07 	0.007290342549 	-3.924413475e-07 	1.389741914e-05
0.2621892502 	0.01785789735 	-0.006012117227 	4.372088564e-07 	0.007145795751 	-3.710243419e-07 	1.362187277e-05
0.2668106401 	0.01752769712 	-0.005915125863 	4.010046726e-07 	0.006991355408 	-3.230041187e-07 	1.332746655e-05
0.2714836098 	0.01716875098 	-0.005809146624 	3.260504271e-07 	0.006827535516 	-2.461275455e-07 	1.301518031e-05
0.2762087349 	0.01678240745 	-0.005694727145 	2.582100894e-07 	0.006654887578 	-1.789906261e-07 	1.268606535e-05
0.2809868679 	0.01637015836 	-0.005572393825 	1.977671198e-07 	0.006473937968 	-1.215711015e-07 	1.23411251e-05
0.2858254639 	0.01593373703 	-0.005442623692 	1.447591209e-07 	0.006285237656 	-7.363726757e-08 	1.198140986e-05
0.2907180655 	0.01547547875 	-0.005305908906 	9.920336046e-08 	0.006089543053 	-3.495448095e-08 	1.160836156e-05
0.2956652752 	0.01499779959 	-0.005162599836 	6.098164153e-08 	0.005887626065 	-5.110365879e-09 	1.122345166e-05
0.3006677021 	0.01450277328 	-0.005012822082 	2.997068634e-08 	0.005680133936 	1.646111389e-08 	1.082791399e-05
0.3057325688 	0.0139922801 	-0.004856556819 	6.085500816e-09 	0.00546768752 	3.036197752e-08 	1.042293208e-05
0.3108541272 	0.01346851232 	-0.004693824905 	-1.072001633e-08 	0.00525111127 	3.724192173e-08 	1.001007755e-05
0.3160328503 	0.01293355234 	-0.004524612192 	-2.054681771e-08 	0.005031256179 	3.786531664e-08 	9.590972642e-06
0.3212699707 	0.01238917944 	-0.004348865775 	-2.358497099e-08 	0.004808905786 	3.310003499e-08 	9.167110995e-06
0.3265710904 	0.01183721502 	-0.004166640927 	-2.017290165e-08 	0.004584900746 	2.39155217e-08 	8.740095128e-06
0.3319313799 	0.01127998614 	-0.003978289347 	-1.088376494e-08 	0.004360297586 	1.140332053e-08 	8.31193908e-06
0.3361906379 	0.01083987926 	-0.00382590296 	2.378976991e-06 	0.004184177608 	-2.714116127e-06 	7.976205453e-06
0.3373514992 	0.01071991489 	-0.003784357291 	-3.52689763e-09 	0.004136172389 	3.274272323e-09 	7.884694163e-06
0.3428342305 	0.01015944988 	-0.003585581023 	-2.204794622e-08 	0.00391356881 	1.880361064e-08 	7.460349872e-06
0.3483815784 	0.009601414751 	-0.003383024976 	-4.297741356e-08 	0.003693615198 	3.39214627e-08 	7.041057154e-06
0.3539908448 	0.009049035286 	-0.003178095219 	-6.467851744e-08 	0.003477531974 	4.743388833e-08 	6.629142472e-06
0.3596627202 	0.008505480037 	-0.002972376614 	-8.543163262e-08 	0.003266440822 	5.829388046e-08 	6.226744067e-06
0.3654019652 	0.007973774311 	-0.002767591224 	-1.035399553e-07 	0.003061337735 	6.565730225e-08 	5.835760578e-06
0.3712061637 	0.007456997945 	-0.00256564782 	-1.174369287e-07 	0.002863178297 	6.892420745e-08 	5.458013613e-06
0.3770751474 	0.006957814837 	-0.002368423496 	-1.259960468e-07 	0.002672713285 	6.792078323e-08 	5.094934364e-06
0.3830113807 	0.006478165483 	-0.002177593288 	-1.28243745e-07 	0.002490395292 	6.250560267e-08 	4.747385597e-06
0.3890165364 	0.006019325078 	-0.001994623379 	-1.243105882e-07 	0.002316426117 	5.456231957e-08 	4.415751997e-06
0.3950887203 	0.005581950075 	-0.001820084272 	-1.132228093e-07 	0.002150139555 	4.231267681e-08 	4.098763593e-06
0.4012290711 	0.005165522528 	-0.001654177993 	-1.003869384e-07 	0.001992366874 	2.495593621e-08 	3.798005012e-06
0.4074414565 	0.004763667188 	-0.001498270302 	-6.512318977e-08 	0.001847455183 	-5.015386988e-08 	3.521763052e-06
0.4137231831 	0.004347400787 	-0.001361443628 	-2.669414637e-08 	0.001734758906 	-1.195389543e-07 	3.306932627e-06
0.420075024 	0.003927467006 	-0.001240577953 	-1.343510031e-08 	0.001643779546 	-1.081612523e-07 	3.13350068e-06
0.4265009097 	0.003537823741 	-0.001124680537 	-1.918653564e-09 	0.001545699794 	-8.756359965e-08 	2.946533412e-06
0.4329987794 	0.003173827079 	-0.001013129203 	5.753957887e-09 	0.001440422627 	-7.291231692e-08 	2.745845872e-06
0.4395691754 	0.002827977693 	-0.0009049514695 	1.146180295e-08 	0.001331860017 	-6.660487808e-08 	2.538895364e-06
0.4462154458 	0.002496523518 	-0.0007998242532 	1.38393332e-08 	0.001223006853 	-5.818359468e-08 	2.331390979e-06
0.452936325 	0.002179164496 	-0.0006977699038 	1.407337483e-08 	0.001115202319 	-4.923365117e-08 	2.125885575e-06
0.4597322186 	0.001877671565 	-0.0005992675577 	1.322633677e-08 	0.001009727599 	-4.134062387e-08 	1.924821442e-06
0.4666062465 	0.001595347005 	-0.0005051500284 	1.185176438e-08 	0.0009082205901 	-3.454454824e-08 	1.731320872e-06
0.4735572746 	0.001336960423 	-0.0004166139787 	1.033030228e-08 	0.0008128241675 	-2.883307327e-08 	1.549468776e-06
0.4805859366 	0.001108326025 	-0.0003351263743 	8.915453529e-09 	0.0007261230382 	-2.41786395e-08 	1.384192326e-06
0.4876951865 	0.000915480135 	-0.0002622632681 	7.740512928e-09 	0.0006509846209 	-2.053610267e-08 	1.240957619e-06
0.4948837842 	0.0007634719092 	-0.0001994948932 	6.826477001e-09 	0.0005903265296 	-1.782982371e-08 	1.125326438e-06
0.5020728327 	0.0006543112508 	-0.000147704092 	6.113628663e-09 	0.0005463573739 	-1.595578363e-08 	1.041509007e-06
0.5091839357 	0.0005846147216 	-0.00010641437 	5.525670474e-09 	0.000519152862 	-1.477548578e-08 	9.89649646e-07
0.5162165766 	0.0005466822822 	-7.397138448e-05 	5.011740964e-09 	0.0005065017444 	-1.411795789e-08 	9.655330997e-07
0.5231722107 	0.0005317115797 	-4.845100412e-05 	4.548960885e-09 	0.000505045426 	-1.381583463e-08 	9.62756952e-07
0.5300519365 	0.0005318869979 	-2.816491129e-05 	4.128246978e-09 	0.0005113118805 	-1.372688527e-08 	9.74702556e-07
0.5368557511 	0.0005412092514 	-1.178985421e-05 	3.742903e-09 	0.0005223423316 	-1.373700088e-08 	9.957296616e-07
0.5435850468 	0.0005555006251 	1.660130668e-06 	3.386181117e-09 	0.0005359013712 	-1.376673519e-08 	1.02157696e-06
0.5502406551 	0.0005720265752 	1.290255016e-05 	3.052887772e-09 	0.0005504218568 	-1.377246329e-08 	1.049257041e-06
0.5568228235 	0.0005890645988 	2.245652205e-05 	2.738731342e-09 	0.0005648588169 	-1.373086575e-08 	1.076777899e-06
0.5633327798 	0.0006055613906 	3.070126756e-05 	2.4420356e-09 	0.0005785427551 	-1.363368589e-08 	1.102863289e-06
0.5697713528 	0.0006208928614 	3.79182902e-05 	2.164414308e-09 	0.0005910605272 	-1.348572387e-08 	1.126725642e-06
0.5761388792 	0.0006347089439 	4.432296084e-05 	1.908357504e-09 	0.0006021711789 	-1.329180788e-08 	1.147905632e-06
0.5824363843 	0.0006468376059 	5.008796731e-05 	1.676919162e-09 	0.0006117472434 	-1.305649107e-08 	1.166160272e-06
0.5886648223 	0.0006572240957 	5.535837752e-05 	1.473531162e-09 	0.000619734957 	-1.278768174e-08 	1.181387074e-06
0.5948245315 	0.0006658941628 	6.026229332e-05 	1.300199507e-09 	0.0006261312297 	-1.248817971e-08 	1.193580148e-06
0.6009163367 	0.000672933534 	6.491871359e-05 	1.157454116e-09 	0.000630969557 	-1.215735934e-08 	1.202803345e-06
0.6069413562 	0.0006784755401 	6.944155275e-05 	1.044832223e-09 	0.0006343119497 	-1.179728125e-08 	1.209174874e-06
0.6128998905 	0.0006826946905 	7.394192075e-05 	9.604126192e-10 	0.0006362466294 	-1.140808858e-08 	1.212862911e-06
0.6187926729 	0.0006858050659 	7.853022308e-05 	9.010037773e-10 	0.0006368879532 	-1.09872846e-08 	1.214085453e-06
0.6246207232 	0.0006880606477 	8.331704418e-05 	8.629438927e-10 	0.0006363760709 	-1.0534874e-08 	1.213109663e-06
0.630384542 	0.0006897572767 	8.841353368e-05 	8.426033848e-10 	0.0006348777897 	-1.00544375e-08 	1.210253522e-06
0.6360847567 	0.0006912364993 	9.393304913e-05 	8.362458763e-10 	0.0006325882836 	-9.546426593e-09 	1.205889087e-06
0.6417221536 	0.0006928912701 	9.999353149e-05 	8.407548719e-10 	0.0006297303771 	-9.012269803e-09 	1.200441123e-06
0.6472975325 	0.0006951735591 	0.0001067200745 	8.543722076e-10 	0.0006265546899 	-8.458059935e-09 	1.194387381e-06
0.6528113863 	0.0006986049079 	0.0001142490176 	8.763266134e-10 	0.0006233411264 	-7.887271093e-09 	1.188261436e-06
0.6582643935 	0.0007037908731 	0.0001227336614 	9.069939073e-10 	0.0006203998734 	-7.301668148e-09 	1.18265459e-06
0.663657363 	0.0007114394053 	0.0001323503909 	9.481714431e-10 	0.0006180728561 	-6.703738132e-09 	1.178218648e-06
0.6689908816 	0.0007223824133 	0.000143304853 	1.003208278e-09 	0.0006167363593 	-6.097744436e-09 	1.175670914e-06
0.6742655434 	0.0007375994683 	0.0001558384326 	1.07589122e-09 	0.0006168035308 	-5.483994776e-09 	1.175798961e-06
0.6794819976 	0.0007582405311 	0.0001702334438 	1.17027832e-09 	0.0006187236428 	-4.862611842e-09 	1.179459228e-06
0.6846410163 	0.0007856411866 	0.0001868146261 	1.290507576e-09 	0.0006229771803 	-4.236072384e-09 	1.187567653e-06
0.6897431149 	0.0008213221468 	0.0002059454776 	1.440032034e-09 	0.0006300644784 	-3.608570433e-09 	1.201078013e-06
0.6947889098 	0.0008669660042 	0.0002280186263 	1.619980159e-09 	0.0006404854517 	-2.984226492e-09 	1.220943285e-06
0.6997790223 	0.0009243638603 	0.000253438435 	1.828913187e-09 	0.0006547096213 	-2.369947253e-09 	1.248058505e-06
0.7047141634 	0.0009953294612 	0.0002825959672 	2.063446145e-09 	0.0006731397252 	-1.776210662e-09 	1.283191406e-06
0.7095948444 	0.001081589084 	0.0003158398915 	2.318301666e-09 	0.0006960750358 	-1.21461254e-09 	1.326912482e-06
0.7144216649 	0.001184669724 	0.0003534499489 	2.585868379e-09 	0.000723682006 	-6.957217718e-10 	1.37953904e-06
0.719195219 	0.001305808998 	0.0003956180592 	2.857964319e-09 	0.0007559798597 	-2.284927876e-10 	1.441107726e-06
0.7239161526 	0.001445906988 	0.000442441492 	3.128402964e-09 	0.0007928474342 	1.820635414e-10 	1.51138757e-06
0.7285849967 	0.001605534366 	0.0004939314409 	3.395429748e-09 	0.000834048102 	5.343314595e-10 	1.589927494e-06
0.7332023176 	0.001785043226 	0.0005500476655 	3.660015387e-09 	0.0008792290333 	8.077266657e-10 	1.676054907e-06
0.7377686838 	0.001984935378 	0.0006107610709 	3.941809432e-09 	0.0009277023824 	9.271865739e-10 	1.768458582e-06
0.7422846824 	0.002206690875 	0.0006760853235 	4.215176017e-09 	0.0009777370747 	6.406468708e-10 	1.863838612e-06
0.7467508634 	0.002453252938 	0.0007460261006 	4.525370407e-09 	0.00102637834 	5.164956454e-11 	1.956562382e-06
0.7511677575 	0.002726154071 	0.0008204621312 	4.727775342e-09 	0.001072533635 	-2.002722892e-10 	2.044547203e-06
0.7555359085 	0.003008907705 	0.000902799189 	5.783217142e-09 	0.001128254849 	2.517222899e-09 	2.150767324e-06
0.7598558555 	0.003279092767 	0.0009966314297 	6.630799972e-09 	0.001208496107 	5.170699108e-09 	2.303729464e-06
0.764128156 	0.003544709472 	0.001096815434 	6.50288887e-09 	0.001305563038 	5.442801183e-09 	2.488766013e-06
0.768353309 	0.003819205889 	0.001198646379 	6.324221112e-09 	0.001407222007 	5.472359262e-09 	2.682556263e-06
0.7725318348 	0.004100814204 	0.001302063316 	6.040975124e-09 	0.001511631751 	5.364823773e-09 	2.881590253e-06
0.776664248 	0.004387683127 	0.001406216277 	5.72976872e-09 	0.001618079253 	5.250695462e-09 	3.084508778e-06
0.7807510619 	0.004678138112 	0.001510337337 	5.365513956e-09 	0.001726288993 	5.07538755e-09 	3.290786618e-06
0.7847927877 	0.004970628282 	0.001613549685 	4.970802776e-09 	0.001835660153 	4.866723789e-09 	3.499278447e-06
0.7887899104 	0.00526379322 	0.001715075586 	4.553102203e-09 	0.00194575565 	4.633914204e-09 	3.709151064e-06
0.7927429222 	0.005556496615 	0.001814132914 	4.120404371e-09 	0.002056209046 	4.385606023e-09 	3.919705935e-06
0.7966523098 	0.005847869895 	0.001909946594 	3.681954967e-09 	0.002166759489 	4.127984307e-09 	4.130445806e-06
0.8005185571 	0.006137363543 	0.002001722413 	3.250917817e-09 	0.002277235926 	3.864466839e-09 	4.341044599e-06
0.8043421454 	0.006424821926 	0.002088746521 	2.852597425e-09 	0.002387732874 	3.608994008e-09 	4.551682495e-06
0.8081235378 	0.006710517453 	0.002174331955 	2.770482433e-09 	0.002498158913 	3.363080448e-09 	4.762185215e-06
0.8118631999 	0.006996267083 	0.002254775329 	2.280477599e-09 	0.00260856613 	3.162828737e-09 	4.972652057e-06
0.8155615922 	0.007286221611 	0.002324622941 	1.758301726e-09 	0.002719918274 	3.008272193e-09 	5.184920193e-06
0.8192191701 	0.007584167204 	0.002392613606 	1.755906846e-09 	0.002833397659 	2.857045452e-09 	5.40124344e-06
0.8228363893 	0.007891301379 	0.002465758209 	1.737627448e-09 	0.002949851009 	2.70374735e-09 	5.623235893e-06
0.8264136904 	0.008206809019 	0.002543932201 	1.702801311e-09 	0.00306932453 	2.546218201e-09 	5.850985629e-06
0.8299515134 	0.008528675917 	0.002626515956 	1.644233815e-09 	0.003191175613 	2.376005569e-09 	6.08326766e-06
0.833450294 	0.008854277757 	0.002712707846 	1.55850053e-09 	0.003314580342 	2.188389606e-09 	6.318511372e-06
0.836910463 	0.009180719552 	0.002801561215 	1.447513124e-09 	0.003438576967 	1.984650214e-09 	6.554883401e-06