0.4642857292 	7.408968578e-08 	-1.648562199e-10 	2.758186816e-14 	7.396715147e-08 	-5.715558208e-12 	1.410019488e-10
0.4642857292 	7.408968578e-08 	-1.648562199e-10 	2.758186816e-14 	7.396715147e-08 	-5.715558208e-12 	1.410019488e-10
0.4644580585 	8.276184688e-07 	-7.137466777e-09 	1.003407697e-12 	8.267280195e-07 	-5.165483551e-11 	1.575973382e-09
0.4646303886 	4.57664384e-06 	-9.211970591e-08 	1.162910354e-11 	4.574071732e-06 	-2.590558158e-10 	8.719452019e-09
0.4648027194 	1.517654621e-05 	-5.714337165e-07 	6.562167097e-11 	1.516112605e-05 	-7.940813606e-10 	2.890132006e-08
0.464975051 	3.746630225e-05 	-2.310890813e-06 	2.411066968e-10 	3.731599465e-05 	-1.812971366e-09 	7.113465725e-08
0.4651473832 	7.691430537e-05 	-7.062778992e-06 	6.637707327e-10 	7.601351233e-05 	-3.395378738e-09 	1.449028814e-07
0.4653197161 	0.0001396105592 	-1.771157107e-05 	1.478677045e-09 	0.0001359161993 	-5.483085827e-09 	2.590940518e-07
0.4654920495 	0.0002323266297 	-3.827460309e-05 	2.786305621e-09 	0.0002206727646 	-7.836481462e-09 	4.206636221e-07
0.4656643834 	0.0003624287158 	-7.351079472e-05 	4.558897818e-09 	0.0003321454698 	-1.003867477e-08 	6.331615805e-07
0.4658367177 	0.0005374056653 	-0.0001281042594 	6.577064741e-09 	0.0004698135955 	-1.156746098e-08 	8.955952911e-07
0.4660090525 	0.0007638776457 	-0.0002056078199 	8.43237218e-09 	0.0006306536873 	-1.192094903e-08 	1.202201209e-06
0.4661813876 	0.001046233585 	-0.0003075276583 	9.612378079e-09 	0.0008096486573 	-1.074533364e-08 	1.543415371e-06
0.466353723 	0.001385358329 	-0.0004329291905 	9.63477055e-09 	0.001000782495 	-7.906838863e-09 	1.907769589e-06
0.4665260587 	0.001777993684 	-0.0005787030243 	8.167447708e-09 	0.001198141919 	-3.483860372e-09 	2.283991503e-06
0.4666983945 	0.002217021102 	-0.0007403158134 	5.086105864e-09 	0.001396744526 	2.299383415e-09 	2.662583271e-06
0.4668707305 	0.002692535977 	-0.0009127040499 	4.623726739e-10 	0.001592914894 	9.155326007e-09 	3.036538515e-06
0.4670430666 	0.003193294208 	-0.001091016438 	-5.491952318e-09 	0.001784258756 	1.679872576e-08 	3.401293097e-06
0.4672154027 	0.003708086139 	-0.001271071776 	-1.249196607e-08 	0.001969404185 	2.498386373e-08 	3.754231744e-06
0.4673877388 	0.004226755476 	-0.001449544136 	-2.023603764e-08 	0.002147676828 	3.351708547e-08 	4.09406895e-06
0.4675600748 	0.004740780514 	-0.001623957465 	-2.844329996e-08 	0.002318815016 	4.225388655e-08 	4.420305902e-06
0.4677324107 	0.005243473915 	-0.001792578607 	-3.68732599e-08 	0.002482766776 	5.108879136e-08 	4.732843524e-06
0.4679047464 	0.005729915626 	-0.001954274553 	-4.533228586e-08 	0.002639568799 	5.994338374e-08 	5.031751761e-06
0.4680770819 	0.006196734683 	-0.002108372184 	-5.367204904e-08 	0.002789288354 	6.875520787e-08 	5.317158846e-06
0.4682494171 	0.006641830118 	-0.002254537922 	-6.178386397e-08 	0.002932005288 	7.746852756e-08 	5.589216988e-06
0.468421752 	0.007064091045 	-0.00239268218 	-6.959157121e-08 	0.00306781355 	8.602775222e-08 	5.84810528e-06
0.4685940865 	0.007463159223 	-0.002522888869 	-7.704380137e-08 	0.003196818789 	9.437901255e-08 	6.094025122e-06
0.4687664205 	0.007839209079 	-0.002645307638 	-8.415068269e-08 	0.003319044942 	1.025249118e-07 	6.327022141e-06
0.4689387541 	0.008192747273 	-0.002760272492 	-9.081078112e-08 	0.003434828818 	1.10183851e-07 	6.547738388e-06
0.4691110871 	0.008524952989 	-0.002868305565 	-9.694108016e-08 	0.003544324094 	1.175260812e-07 	6.756466817e-06
0.4692834196 	0.008829582584 	-0.002968284609 	-1.033493528e-07 	0.003653264025 	1.209018866e-07 	6.964136604e-06
0.4694557514 	0.009142720566 	-0.003072558057 	-1.097908031e-07 	0.003778451368 	1.240440256e-07 	7.202778473e-06
0.4697235139 	0.009501027924 	-0.003192345386 	-1.157710196e-07 	0.003925201734 	1.308609162e-07 	7.482525459e-06
0.469996307 	0.009863746827 	-0.00331353705 	-1.219052449e-07 	0.004073604086 	1.379229641e-07 	7.765421588e-06
0.4702742251 	0.01019744945 	-0.003424848304 	-1.275302843e-07 	0.004209721063 	1.444654957e-07 	8.024898377e-06
0.4705573642 	0.01050369593 	-0.003526861418 	-1.325240986e-07 	0.004334320904 	1.501954357e-07 	8.262420306e-06
0.470845822 	0.01078413603 	-0.003620138191 	-1.369639685e-07 	0.004448093575 	1.552515508e-07 	8.479302638e-06
0.4711396981 	0.01104044302 	-0.003705236496 	-1.408747162e-07 	0.004551723043 	1.59669708e-07 	8.676849205e-06
0.471439094 	0.01127426787 	-0.003782676752 	-1.442610862e-07 	0.004645892708 	1.634821104e-07 	8.85636276e-06
0.4717441131 	0.01148720262 	-0.003853002993 	-1.471612597e-07 	0.004731266711 	1.667231142e-07 	9.019109339e-06
0.4720548606 	0.01168075848 	-0.003916761363 	-1.496257986e-07 	0.004808477824 	1.69426557e-07 	9.166295181e-06
0.4723714436 	0.01185635841 	-0.003974427578 	-1.516734189e-07 	0.004878119497 	1.716186522e-07 	9.299051564e-06
0.4726939714 	0.01201533216 	-0.004026448954 	-1.533214495e-07 	0.004940747463 	1.733223991e-07 	9.418437875e-06
0.473022555 	0.01215891637 	-0.004073243256 	-1.545855424e-07 	0.004996879596 	1.74557896e-07 	9.525441321e-06
0.4733573078 	0.0122882572 	-0.004115198853 	-1.554797145e-07 	0.005046996788 	1.753427188e-07 	9.620978619e-06
0.473698345 	0.01240441478 	-0.004152675775 	-1.560166732e-07 	0.00509154466 	1.756925373e-07 	9.705899243e-06
0.4740457841 	0.01250836856 	-0.004186007314 	-1.562082604e-07 	0.005130935781 	1.756218111e-07 	9.780989669e-06
0.4743997447 	0.01260102334 	-0.004215501074 	-1.560664342e-07 	0.005165550331 	1.751455537e-07 	9.846974622e-06
0.4747603486 	0.01268321519 	-0.004241443215 	-1.556017901e-07 	0.005195743648 	1.742759504e-07 	9.904531476e-06
0.4751277197 	0.01275576423 	-0.004264112549 	-1.548287648e-07 	0.005221859984 	1.730283652e-07 	9.954316471e-06
0.4755030077 	0.01281943749 	-0.004283766749 	-1.537498353e-07 	0.005244214563 	1.714077722e-07 	9.996930511e-06
0.4758860811 	0.01287484415 	-0.004300614955 	-1.523709563e-07 	0.005263067704 	1.694227944e-07 	1.003286984e-05
0.4762763472 	0.01292251985 	-0.004314842143 	-1.507046176e-07 	0.005278650859 	1.670868933e-07 	1.006257566e-05
0.4766739408 	0.01296302268 	-0.004326639396 	-1.487672909e-07 	0.005291201782 	1.644234978e-07 	1.008650121e-05
0.4770789995 	0.01299690116 	-0.004336195524 	-1.465829003e-07 	0.005300956397 	1.614665613e-07 	1.010509622e-05
0.4774916633 	0.0130246694 	-0.004343683348 	-1.441513437e-07 	0.005308126509 	1.581923588e-07 	1.011876444e-05
0.4779120749 	0.01304681222 	-0.004349197383 	-1.41214293e-07 	0.005312762788 	1.540173052e-07 	1.012760248e-05
0.4783403796 	0.01306377447 	-0.004353003908 	-1.387783473e-07 	0.005315303221 	1.510788857e-07 	1.013244525e-05
0.4787767255 	0.01307596576 	-0.004355458905 	-1.367196281e-07 	0.005316379584 	1.490929074e-07 	1.01344971e-05
0.4792212634 	0.01307738521 	-0.004355274429 	-1.279831169e-07 	0.00532062267 	1.646492236e-07 	1.01425856e-05
0.4796741471 	0.01306596748 	-0.00435199338 	-1.20250138e-07 	0.005329787975 	1.754659681e-07 	1.016005722e-05
0.480135533 	0.01304890471 	-0.004347299562 	-1.1861405e-07 	0.005339314102 	1.677322208e-07 	1.017821666e-05
0.4806055808 	0.01302890295 	-0.004341674421 	-1.150600986e-07 	0.0053473102 	1.617476689e-07 	1.019345945e-05
0.4810844527 	0.01300574073 	-0.004334871305 	-1.109184689e-07 	0.005353704676 	1.547120738e-07 	1.02056491e-05
0.4815723144 	0.0129796067 	-0.004326987847 	-1.071196902e-07 	0.005358659206 	1.4863949e-07 	1.021509381e-05
0.4820693345 	0.01295062834 	-0.004318117343 	-1.032198803e-07 	0.005362383454 	1.423883456e-07 	1.022219326e-05
0.4825756847 	0.01291897603 	-0.004308308881 	-9.934018521e-08 	0.005364923886 	1.358248828e-07 	1.022703603e-05
0.4830915401 	0.01288484713 	-0.004297622065 	-9.550155789e-08 	0.005366302722 	1.289518598e-07 	1.022966447e-05
0.483617079 	0.01284843058 	-0.004286113 	-9.17076203e-08 	0.005366532087 	1.218055627e-07 	1.023010171e-05
0.4841524829 	0.01280990264 	-0.004273834242 	-8.796006589e-08 	0.005365620264 	1.14454529e-07 	1.022836352e-05
0.4846979369 	0.01276942645 	-0.004260834481 	-8.425519627e-08 	0.005363572638 	1.069741847e-07 	1.022446018e-05
0.4852536295 	0.0127271512 	-0.004247158349 	-8.058636197e-08 	0.005360393164 	9.94415344e-08 	1.021839922e-05
0.4858197528 	0.01268320793 	-0.004232847683 	-7.69457302e-08 	0.005356084832 	9.192805106e-08 	1.021018634e-05
0.4863971602 	0.0126376881 	-0.004217925222 	-7.331998424e-08 	0.005350624231 	8.448873176e-08 	1.019977691e-05
0.4869872469 	0.01259066455 	-0.004202415081 	-6.968752789e-08 	0.005344019978 	7.719682252e-08 	1.018718737e-05
0.4875884075 	0.01254228655 	-0.004186365982 	-6.605966116e-08 	0.005336281609 	7.014954929e-08 	1.017243589e-05
0.4882008498 	0.01249271858 	-0.004169825157 	-6.243935274e-08 	0.005327385129 	6.340057934e-08 	1.015547673e-05
0.4888247852 	0.01244207205 	-0.00415282754 	-5.882595668e-08 	0.005317316219 	5.700073087e-08 	1.013628259e-05
0.4894604292 	0.01239045552 	-0.004135403503 	-5.522026296e-08 	0.005306048305 	5.098797024e-08 	1.011480281e-05
0.4901080013 	0.01233797519 	-0.004117583554 	-5.162657475e-08 	0.00529355251 	4.539227427e-08 	1.009098235e-05
0.4907677251 	0.01228473298 	-0.004099396194 	-4.805178604e-08 	0.0052797958 	4.023369889e-08 	1.006475824e-05
0.4914398285 	0.01223082458 	-0.004080867697 	-4.450551109e-08 	0.005264743223 	3.552284013e-08 	1.003606384e-05
0.4921245435 	0.01217633596 	-0.004062021326 	-4.099980932e-08 	0.005248360759 	3.126156034e-08 	1.000483431e-05
0.4928221066 	0.01212133979 	-0.004042876463 	-3.754879768e-08 	0.005230618219 	2.744392666e-08 	9.9710121e-06
0.4935327586 	0.01206589171 	-0.004023447706 	-3.416818973e-08 	0.00521149198 	2.405727898e-08 	9.934552173e-06
0.494256745 	0.01201002721 	-0.004003744501 	-3.08748403e-08 	0.005190968144 	2.108337212e-08 	9.895428037e-06
0.4949943156 	0.01195375995 	-0.003983770345 	-2.768646859e-08 	0.005169042724 	1.849922544e-08 	9.853632092e-06
0.4957457251 	0.01189707752 	-0.003963520128 	-2.462077971e-08 	0.005145721058 	1.627617645e-08 	9.809174516e-06
0.496511233 	0.01183996997 	-0.003943005399 	-2.169576243e-08 	0.005121026242 	1.437848676e-08 	9.762099333e-06
0.4972915864 	0.01178243255 	-0.003922163067 	-1.892819153e-08 	0.005094757383 	1.275019155e-08 	9.712023586e-06
0.4980891876 	0.01172445635 	-0.00390097952 	-1.632116269e-08 	0.005066833501 	1.13238679e-08 	9.658792907e-06
0.4989017502 	0.01165999816 	-0.00387718177 	-1.375747969e-08 	0.005032599537 	1.005357661e-08 	9.593533456e-06
0.5001491012 	0.01157927224 	-0.003847366367 	-1.064894677e-08 	0.004989526256 	8.608664499e-09 	9.51142381e-06
0.5014103017 	0.01148773995 	-0.003813690164 	-7.866770997e-09 	0.004942619173 	7.538445378e-09 	9.422005874e-06
0.502685506 	0.01139449314 	-0.00377940649 	-5.5593646e-09 	0.004894619372 	6.667467894e-09 	9.330504912e-06
0.5039748697 	0.0112995624 	-0.003744524025 	-3.709688426e-09 	0.004845394097 	5.782547516e-09 	9.236667856e-06
0.5052785505 	0.01120283561 	-0.003708933122 	-2.281252024e-09 	0.004794729319 	4.744315873e-09 	9.140086709e-06
0.5065967078 	0.0111040964 	-0.003672599522 	-1.223838807e-09 	0.004742699928 	3.457286761e-09 	9.040904228e-06
0.5079295026 	0.01100301906 	-0.003635422621 	-4.793725744e-10 	0.00468928826 	1.859091467e-09 	8.939086744e-06
0.5092206927 	0.01090389319 	-0.003599009027 	9.347013146e-08 	0.004636966665 	-1.314677892e-07 	8.839347242e-06
0.5092813988 	0.01089923214 	-0.003597297123 	5.196309149e-12 	0.004634505653 	1.01971498e-10 	8.834655869e-06
0.5106484713 	0.01079253767 	-0.003558190894 	1.789845778e-10 	0.004578453463 	2.544821391e-09 	8.727804815e-06
0.5120307241 	0.0106827942 	-0.003518067007 	4.171091434e-10 	0.004521201593 	5.294622213e-09 	8.618666839e-06
0.5134283261 	0.01056978712 	-0.003476879769 	6.534667832e-10 	0.00446280294 	8.308315731e-09 	8.507342776e-06
0.5148414483 	0.01045330631 	-0.003434579313 	8.275537845e-10 	0.004403293721 	1.152960216e-08 	8.393901665e-06
0.5162702635 	0.01033315865 	-0.003391123079 	8.856285582e-10 	0.00434271306 	1.48936447e-08 	8.278418087e-06
0.5177149467 	0.01020915553 	-0.003346473872 	7.818438222e-10 	0.004281098917 	1.833080894e-08 	8.160964406e-06
0.5191764905 	0.01008105221 	-0.003300563984 	4.804761345e-10 	0.004218420658 	2.176864481e-08 	8.041482223e-06
0.5206581837 	0.009948629411 	-0.003253344427 	-4.293258681e-11 	0.004154696819 	2.515126588e-08 	7.920006875e-06
0.5221563259 	0.009811875629 	-0.003204837462 	-8.089617243e-10 	0.004090025029 	2.840015001e-08 	7.796724469e-06
0.5236711006 	0.009670819055 	-0.003155067874 	-1.829093886e-09 	0.004024461351 	3.145758069e-08 	7.671741876e-06
0.525202693 	0.009525420046 	-0.0031040429 	-3.104563849e-09 	0.003958044453 	3.428011954e-08 	7.54513281e-06
0.5267512907 	0.009375666621 	-0.003051769896 	-4.626550962e-09 	0.00389079805 	3.682948728e-08 	7.416942474e-06
0.5283170833 	0.009221565675 	-0.00299826795 	-6.37976579e-09 	0.003822757429 	3.9079079e-08 	7.287238139e-06
0.5299006786 	0.009063054115 	-0.002943519357 	-8.339424822e-09 	0.003753887351 	4.099953123e-08 	7.15595263e-06
0.5315060786 	0.008900082363 	-0.002887519316 	-1.047368008e-08 	0.003684197225 	4.25908244e-08 	7.02310388e-06
0.5331292981 	0.008732842412 	-0.002830344287 	-1.274867649e-08 	0.003613796506 	4.384075137e-08 	6.888900543e-06
0.5347705361 	0.008561563531 	-0.002772071904 	-1.513126861e-08 	0.003542766535 	4.475117323e-08 	6.753497677e-06
0.5364299936 	0.008386378625 	-0.002712753336 	-1.758271751e-08 	0.003471177394 	4.533623457e-08 	6.617028876e-06
0.5381078739 	0.008207438104 	-0.00265244137 	-2.006065016e-08 	0.003399103744 	4.560991043e-08 	6.479636469e-06
0.5398043827 	0.008024850624 	-0.002591171498 	-2.252110061e-08 	0.003326594915 	4.558288529e-08 	6.341414487e-06
0.541522211 	0.007838674155 	-0.00252896176 	-2.49181639e-08 	0.003253691946 	4.527665001e-08 	6.202441166e-06
0.543261121 	0.007649107664 	-0.002465879223 	-2.720798721e-08 	0.003180506069 	4.472302268e-08 	6.062928543e-06
0.5450193315 	0.007456490604 	-0.002402029409 	-2.93563333e-08 	0.003107171075 	4.395882162e-08 	5.923131662e-06
0.546797058 	0.00726111339 	-0.002337499156 	-3.133404568e-08 	0.003033788487 	4.303121666e-08 	5.783244055e-06
0.5485945187 	0.007063221934 	-0.002272359126 	-3.311283433e-08 	0.002960435049 	4.19902633e-08 	5.643412014e-06
0.550411934 	0.006863022767 	-0.002206660437 	-3.466649843e-08 	0.00288714181 	4.087710774e-08 	5.50369473e-06
0.5522516129 	0.006660663876 	-0.002140432796 	-3.597171232e-08 	0.002813905226 	3.973529151e-08 	5.364085446e-06
0.554113947 	0.006456407233 	-0.002073743501 	-3.701331554e-08 	0.002740757893 	3.861668369e-08 	5.224646298e-06
0.555996951 	0.006250651048 	-0.002006698273 	-3.77922843e-08 	0.002667745151 	3.756997271e-08 	5.08546372e-06
0.557900856 	0.006043735854 	-0.001939382141 	-3.831701035e-08 	0.002594872654 	3.663759587e-08 	4.946548486e-06
0.5598258958 	0.005835932787 	-0.001871860464 	-3.859687368e-08 	0.002522123039 	3.585231358e-08 	4.8078675e-06
0.561772307 	0.005627422448 	-0.001804164001 	-3.86388911e-08 	0.002449424735 	3.521821258e-08 	4.669284328e-06
0.5637436946 	0.00541834356 	-0.001736314945 	-3.84532853e-08 	0.002376712047 	3.474134557e-08 	4.530673734e-06
0.565737713 	0.005209006784 	-0.001668393208 	-3.806303606e-08 	0.002303987797 	3.442896078e-08 	4.392041101e-06
0.5677538642 	0.004999756482 	-0.001600486484 	-3.750339591e-08 	0.002231254283 	3.427406022e-08 	4.253390808e-06
0.5697923962 	0.004790832998 	-0.001532655582 	-3.680592057e-08 	0.002158506055 	3.426792724e-08 	4.114712466e-06
0.5718535597 	0.004582403394 	-0.001464935305 	-3.599405207e-08 	0.002085716368 	3.437894025e-08 	3.975955092e-06
0.5739395723 	0.004374580309 	-0.001397345 	-3.508698277e-08 	0.002012861428 	3.457295743e-08 	3.837073327e-06
0.5760506688 	0.004167575449 	-0.001329937722 	-3.410844014e-08 	0.001939975133 	3.482262721e-08 	3.698131792e-06
0.578185199 	0.003961706459 	-0.00126279818 	-3.309136334e-08 	0.001867133021 	3.510138136e-08 	3.559274481e-06
0.5803434258 	0.003757251329 	-0.001195998824 	-3.206289032e-08 	0.001794415495 	3.538389199e-08 	3.420654665e-06
0.5825256149 	0.003554420964 	-0.001129586583 	-3.103413911e-08 	0.001721890041 	3.562979498e-08 	3.282400992e-06
0.5847338703 	0.003353413745 	-0.001063600063 	-3.000671425e-08 	0.001649634407 	3.579313208e-08 	3.144661672e-06
0.5869684579 	0.003154552853 	-0.0009981143502 	-2.899461617e-08 	0.001577789479 	3.580778655e-08 	3.00770527e-06
0.5892278534 	0.002958291288 	-0.0009332383364 	-2.79758578e-08 	0.001506557137 	3.548468025e-08 	2.87191663e-06
0.5915123353 	0.002765172099 	-0.000869096156 	-2.692507358e-08 	0.001436273841 	3.464498719e-08 	2.737937132e-06
0.5938221857 	0.002575771442 	-0.0008058022712 	-2.587955266e-08 	0.00136731442 	3.341456551e-08 	2.60648131e-06
0.5961603287 	0.002390625806 	-0.0007434545897 	-2.482176787e-08 	0.001299860868 	3.199249794e-08 	2.477896093e-06
0.5985251933 	0.002210428702 	-0.0006822018842 	-2.37038487e-08 	0.00123403257 	3.032786768e-08 	2.352409059e-06
0.6009163178 	0.00203603624 	-0.0006222325134 	-2.250906044e-08 	0.001170045582 	2.826842534e-08 	2.230432077e-06
0.6033339976 	0.001868351165 	-0.0005637319847 	-2.120212991e-08 	0.001108194386 	2.56745505e-08 	2.112526507e-06
0.6057794613 	0.001708355465 	-0.000506888944 	-1.973582834e-08 	0.001048843303 	2.240353647e-08 	1.999386846e-06
0.6082543018 	0.001557193132 	-0.0004519245774 	-1.806746315e-08 	0.0009924482476 	1.832969703e-08 	1.891882197e-06
0.6107566274 	0.001416181017 	-0.0003991002427 	-1.617074313e-08 	0.0009395465409 	1.334922994e-08 	1.79103684e-06
0.6132867477 	0.001286662407 	-0.0003486749026 	-1.40303122e-08 	0.0008907041827 	7.379041412e-09 	1.697929731e-06
0.6158450817 	0.001169892414 	-0.0003008742588 	-1.164100539e-08 	0.0008464748675 	3.62103084e-10 	1.613616363e-06
0.6184346228 	0.001067003859 	-0.0002558975279 	-9.00896974e-09 	0.0008073953166 	-7.68805226e-09 	1.539119877e-06
0.6210529287 	0.0009789191802 	-0.000213916398 	-6.112083538e-09 	0.0007739494299 	-1.635677393e-08 	1.475362721e-06
0.6237003239 	0.0009061286176 	-0.0001750203132 	-3.269345316e-09 	0.0007464757392 	-2.544501576e-08 	1.422990231e-06
0.6263771365 	0.0008485557601 	-0.0001391865424 	-5.633446132e-10 	0.0007250981142 	-3.472376629e-08 	1.382238536e-06
0.6290862714 	0.0008055989578 	-0.0001063024405 	1.931922182e-09 	0.0007097356116 	-4.395777032e-08 	1.352953337e-06
0.6318255697 	0.0007761896566 	-7.619133161e-05 	4.149552661e-09 	0.0007001050114 	-5.289999102e-08 	1.334594736e-06
0.6345953098 	0.0007588301757 	-4.861565032e-05 	6.060574305e-09 	0.0006956902262 	-6.133554216e-08 	1.326178928e-06
0.6373960678 	0.0007517722739 	-2.330337348e-05 	7.669512756e-09 	0.0006958109032 	-6.9147759e-08 	1.326408972e-06
0.6402301167 	0.0007532259631 	1.481873227e-08 	8.996173427e-09 	0.0006997222101 	-7.631129611e-08 	1.33386501e-06
0.6430956648 	0.0007614923325 	2.158072631e-05 	1.006632144e-08 	0.0007066813069 	-8.286076031e-08 	1.347130983e-06
0.6459930683 	0.0007750505792 	4.161074558e-05 	1.090846939e-08 	0.0007159982359 	-8.886165357e-08 	1.364891639e-06
0.6489235108 	0.0007926084347 	6.029743903e-05 	1.155418257e-08 	0.0007270733338 	-9.439057115e-08 	1.386003854e-06
0.6518878645 	0.0008131036374 	7.780082603e-05 	1.203211451e-08 	0.0007394006418 	-9.953203841e-08 	1.409503129e-06
0.6548851782 	0.0008356811829 	9.425069602e-05 	1.236492398e-08 	0.0007525658459 	-1.043573372e-07 	1.434599667e-06
0.6579158249 	0.0008596735667 	0.0001097587859 	1.257083074e-08 	0.0007662432101 	-1.089176405e-07 	1.460672525e-06
0.6609817596 	0.0008845691442 	0.0001244218247 	1.266275641e-08 	0.0007801844456 	-1.132516557e-07 	1.487248394e-06
0.6640821389 	0.0009099717356 	0.0001383174318 	1.264454382e-08 	0.0007941962493 	-1.173987872e-07 	1.513958787e-06
0.6672170054 	0.0009355735146 	0.0001514937385 	1.251396612e-08 	0.0008081359998 	-1.21382436e-07 	1.540531825e-06
0.6703874269 	0.000961153332 	0.0001640171065 	1.227428677e-08 	0.0008218796308 	-1.252453108e-07 	1.566731006e-06
0.673594155 	0.0009865449788 	0.0001759738187 	1.193802363e-08 	0.0008353016915 	-1.290523738e-07 	1.592317184e-06
0.6768365625 	0.001011572847 	0.0001873585758 	1.151145294e-08 	0.0008483549175 	-1.327826235e-07 	1.617200261e-06
0.6801152063 	0.00103610556 	0.0001981665208 	1.099752279e-08 	0.0008610300028 	-1.363829869e-07 	1.641362496e-06
0.6834316982 	0.001060069487 	0.000208442158 	1.040281537e-08 	0.0008732994291 	-1.398432867e-07 	1.664751433e-06
0.6867851015 	0.001083396329 	0.0002182047725 	9.724756689e-09 	0.0008851456988 	-1.43153759e-07 	1.687333715e-06
0.6901758354 	0.001106037383 	0.0002274759163 	8.957043719e-09 	0.0008965617014 	-1.462933837e-07 	1.709095789e-06
0.6936055424 	0.001127959255 	0.0002362787886 	8.097689962e-09 	0.0009075517118 	-1.492476112e-07 	1.730045804e-06
0.6970735343 	0.001149134214 	0.0002446328098 	7.146910272e-09 	0.000918118819 	-1.520142516e-07 	1.750189647e-06
0.700580145 	0.001169544165 	0.0002525578003 	6.108981831e-09 	0.0009282728841 	-1.545750358e-07 	1.769546117e-06
0.7041267955 	0.001189180855 	0.000260076002 	4.992383209e-09 	0.000938028933 	-1.569153064e-07 	1.788143858e-06
0.7077131112 	0.001208040167 	0.0002672083613 	3.801766181e-09 	0.0009473961762 	-1.590322695e-07 	1.806000427e-06
0.7113393773 	0.001226126022 	0.0002739790502 	2.53960827e-09 	0.0009563869105 	-1.609047204e-07 	1.823139265e-06
0.7150069301 	0.001243452037 	0.0002804175351 	1.208490183e-09 	0.0009650153072 	-1.625180086e-07 	1.839587388e-06
0.7187154514 	0.001260037882 	0.0002865546529 	-1.936664095e-10 	0.0009732882656 	-1.63870176e-07 	1.855357946e-06
0.7224653199 	0.00127591324 	0.0002924269288 	-1.66818345e-09 	0.0009812165327 	-1.649421938e-07 	1.870471426e-06
0.7262578107 	0.001291119854 	0.0002980771406 	-3.214731524e-09 	0.0009888113469 	-1.657279593e-07 	1.884949253e-06
0.7300925709 	0.001305670877 	0.0003035346719 	-4.831087121e-09 	0.0009960593599 	-1.66235106e-07 	1.89876598e-06
0.7339274599 	0.001319526097 	0.0003088066334 	-6.50010138e-09 	0.001002924275 	-1.664539931e-07 	1.911852416e-06
0.7377205243 	0.001332685495 	0.0003139128998 	-8.202529221e-09 	0.001009384463 	-1.664016532e-07 	1.92416733e-06
0.7414716977 	0.001345244097 	0.0003189081377 	-9.930292437e-09 	0.001015451596 	-1.661085185e-07 	1.935732972e-06
0.7451816807 	0.001357336468 	0.0003238607151 	-1.155111163e-08 	0.001021153219 	-1.638294872e-07 	1.946601851e-06
0.7488510254 	0.00136910406 	0.0003288357056 	-1.297767847e-08 	0.001026516164 	-1.59313572e-07 	1.956825115e-06
0.7524798606 	0.001380695861 	0.0003338964928 	-1.432697321e-08 	0.001031572897 	-1.546691392e-07 	1.966464653e-06
0.7560688559 	0.001392271756 	0.0003391079501 	-1.559089762e-08 	0.001036364908 	-1.499456648e-07 	1.975599557e-06
0.7596184549 	0.001404002508 	0.0003445332678 	-1.676333558e-08 	0.001040935733 	-1.451868428e-07 	1.98431282e-06
0.7631288782 	0.00141607 	0.0003502352066 	-1.783930864e-08 	0.001045338371 	-1.404319194e-07 	1.992705471e-06
0.7666007261 	0.001428670479 	0.0003562788345 	-1.881145177e-08 	0.001049636579 	-1.35713059e-07 	2.000899051e-06
0.7700344366 	0.00144201448 	0.0003627287696 	-1.967336711e-08 	0.001053898877 	-1.310567085e-07 	2.009024175e-06
0.7734302599 	0.001456326953 	0.0003696505084 	-2.041934589e-08 	0.001058205058 	-1.264843627e-07 	2.017232954e-06
0.7767887125 	0.001471850283 	0.0003771129384 	-2.104158813e-08 	0.001062646276 	-1.220111943e-07 	2.02569915e-06
0.7801102773 	0.001488844103 	0.0003851860539 	-2.153270477e-08 	0.001067319328 	-1.176470204e-07 	2.034607285e-06
0.7833951996 	0.001507584572 	0.0003939417778 	-2.188620827e-08 	0.001072331272 	-1.133973259e-07 	2.044161443e-06
0.7866439137 	0.0015283666 	0.0004034561751 	-2.209448604e-08 	0.001077799083 	-1.092626696e-07 	2.054584611e-06
0.7898569628 	0.001551503277 	0.0004138077505 	-2.215027374e-08 	0.001083844086 	-1.052394965e-07 	2.066108066e-06
0.7930345721 	0.001577323415 	0.0004250770762 	-2.204794467e-08 	0.001090593426 	-1.013212362e-07 	2.078974185e-06
0.7961771359 	0.001606171613 	0.000437348137 	-2.178270786e-08 	0.001098180094 	-9.749836956e-08 	2.093436482e-06
0.7992851568 	0.001638406908 	0.0004507074415 	-2.13508705e-08 	0.001106737936 	-9.375975758e-08 	2.109750109e-06
0.8023589322 	0.001674397694 	0.0004652417093 	-2.075156324e-08 	0.001116399071 	-9.009271247e-08 	2.128166917e-06
0.805398811 	0.001714517761 	0.0004810378223 	-1.998727138e-08 	0.001127294971 	-8.648490413e-08 	2.148937531e-06
0.8084052021 	0.001759143012 	0.0004981822197 	-1.90629761e-08 	0.00113955233 	-8.292495481e-08 	2.172303463e-06
0.8113785157 	0.001808643616 	0.0005167571852 	-1.798766558e-08 	0.001153288038 	-7.940292842e-08 	2.198487541e-06
0.8143190433 	0.001863375189 	0.0005368390783 	-1.677504811e-08 	0.001168609909 	-7.591218931e-08 	2.227695285e-06
0.8172271484 	0.001923671938 	0.0005584970754 	-1.544253846e-08 	0.001185614527 	-7.244936377e-08 	2.260110814e-06
0.8201032429 	0.001989838157 	0.0005817904006 	-1.401114007e-08 	0.001204382898 	-6.901585848e-08 	2.295888545e-06
0.8229476498 	0.002062136728 	0.0006067649647 	-1.250548363e-08 	0.001224978819 	-6.56165763e-08 	2.335150093e-06
0.8257606958 	0.002140779921 	0.0006334520417 	-1.095316402e-08 	0.00124744979 	-6.226137648e-08 	2.377986011e-06
0.8285427279 	0.002225923221 	0.0006618675266 	-9.382791901e-09 	0.001271825409 	-5.896360095e-08 	2.424452715e-06
0.8312941389 	0.002317658071 	0.0006920098988 	-7.823569555e-09 	0.001298115233 	-5.573972729e-08 	2.474568427e-06
0.8340152199 	0.002416004949 	0.0007238592522 	-6.304474335e-09 	0.001326310315 	-5.260729709e-08 	2.528316088e-06
0.836706302 	0.002520911669 	0.0007573782876 	-4.852896812e-09 	0.001356385421 	-4.958424295e-08 	2.5856476e-06
0.8393677168 	0.002632255303 	0.0007925136745 	-3.493312703e-09 	0.001388299433 	-4.668707264e-08 	2.646484578e-06
0.841999829 	0.002749843609 	0.0008291965108 	-2.247212033e-09 	0.001421996046 	-4.392945121e-08 	2.710719688e-06
0.8446029242 	0.002873417648 	0.0008673437508 	-1.132723191e-09 	0.001457407273 	-4.132056328e-08 	2.778223327e-06
0.8471773226 	0.003002659368 	0.0009068611211 	-1.638559782e-10 	0.001494456794 	-3.886477426e-08 	2.848850013e-06
0.8497233412 	0.00313720095 	0.0009476457017 	6.497467967e-10 	0.00153306155 	-3.656123186e-08 	2.922441406e-06
0.8522413154 	0.003276632819 	0.0009895876842 	1.302376499e-09 	0.001573133295 	-3.440424017e-08 	2.998829289e-06
0.8547315346 	0.003420510755 	0.001032572131 	1.791979761e-09 	0.001614581829 	-3.238328744e-08 	3.077841716e-06
0.8571943021 	0.003568365765 	0.001076481785 	2.12039356e-09 	0.001657317898 	-3.048480419e-08 	3.159308541e-06
0.8596299208 	0.003719714143 	0.001121199255 	2.293055109e-09 	0.001701254059 	-2.869326666e-08 	3.243063076e-06
0.8620386999 	0.003874065761 	0.001166608403 	2.3183588e-09 	0.001746304915 	-2.6993221e-08 	3.328942529e-06
0.8644209325 	0.004030929671 	0.001212595135 	2.206930692e-09 	0.001792388558 	-2.536965954e-08 	3.41679076e-06
0.8667769039 	0.00418982047 	0.001259048913 	1.971560697e-09 	0.001839428204 	-2.380978345e-08 	3.506461399e-06
0.8691069039 	0.004350265535 	0.001305864096 	1.626757169e-09 	0.001887351614 	-2.230371345e-08 	3.597816739e-06
0.8714112196 	0.004511810063 	0.001352940304 	1.188032188e-09 	0.001936090178 	-2.084539487e-08 	3.690725988e-06
0.8736901437 	0.004674020381 	0.001400182677 	6.71350777e-10 	0.00198557869 	-1.943217654e-08 	3.785064846e-06
0.8759439454 	0.004836485306 	0.001447501777 	9.272699343e-11 	0.002035755845 	-1.806452451e-08 	3.880716449e-06
0.8781729018 	0.004998819823 	0.001494814364 	-5.318913673e-10 	0.002086563789 	-1.674584507e-08 	3.977570512e-06
0.880377287 	0.005160667084 	0.001542043249 	-1.187052837e-09 	0.002137946921 	-1.548182014e-08 	4.075521043e-06
0.8825573737 	0.005321699926 	0.001589117319 	-1.857988523e-09 	0.002189850917 	-1.427984965e-08 	4.174464486e-06
0.8847134322 	0.005481620197 	0.001635970926 	-2.530865666e-09 	0.002242222468 	-1.314780631e-08 	4.274299218e-06
0.8868457226 	0.005640157978 	0.001682543795 	-3.192820561e-09 	0.002295009927 	-1.209338839e-08 	4.374926787e-06
0.8889545069 	0.005797073144 	0.001728781374 	-3.831934707e-09 	0.00234816212 	-1.112366899e-08 	4.476249638e-06
0.8910400442 	0.005952154571 	0.001774634247 	-4.437402854e-09 	0.002401627594 	-1.024452666e-08 	4.578169692e-06
0.8931025917 	0.006105220391 	0.001820058327 	-4.999430446e-09 	0.002455353978 	-9.460231755e-09 	4.680587113e-06
0.8951424045 	0.006256116219 	0.001865014203 	-5.509247643e-09 	0.002509287707 	-8.77282614e-09 	4.78339979e-06
0.8971597301 	0.00640471347 	0.001909467043 	-5.959228939e-09 	0.002563374665 	-8.181900653e-09 	4.886504565e-06
0.8991548164 	0.006550910109 	0.001953386962 	-6.342834599e-09 	0.002617559142 	-7.684644208e-09 	4.989795238e-06
0.9011279084 	0.006694629319 	0.001996748514 	-6.654699121e-09 	0.002671783116 	-7.275847799e-09 	5.093161203e-06
0.9030792486 	0.006835818635 	0.002039530792 	-6.890579426e-09 	0.002725986171 	-6.947884691e-09 	5.196487291e-06
0.9050090786 	0.006974448811 	0.00208171724 	-7.047275946e-09 	0.002780105031 	-6.690827004e-09 	5.29965288e-06
0.9069176333 	0.007110510973 	0.002123295139 	-7.122745486e-09 	0.002834074262 	-6.492540231e-09 	5.402533233e-06
0.9088051471 	0.007244015921 	0.002164255934 	-7.116269575e-09 	0.002887826407 	-6.339212358e-09 	5.504999761e-06
0.9106718518 	0.007374993214 	0.00220459502 	-7.028334004e-09 	0.002941291225 	-6.215823259e-09 	5.606918565e-06
0.9125179768 	0.00750348848 	0.002244311279 	-6.860643156e-09 	0.002994396366 	-6.106502007e-09 	5.708151724e-06
0.914343749 	0.007629562486 	0.00228340724 	-6.616014169e-09 	0.003047067439 	-5.995057389e-09 	5.808557427e-06
0.9161493933 	0.007753288177 	0.002321888383 	-6.298163018e-09 	0.003099228653 	-5.86523807e-09 	5.907991198e-06
0.9179351304 	0.00787474798 	0.002359762872 	-5.911971719e-09 	0.003150804188 	-5.701391298e-09 	6.006308502e-06
0.9197011796 	0.007994033093 	0.002397041653 	-5.46334131e-09 	0.003201718259 	-5.489008297e-09 	6.103364873e-06