0 	7.771428409e-05 	-3.174763337e-18 	-1.82328956e-25 	1.296945904e-31 	7.448454189e-39 	4.277701146e-46
0 	9.697550584e-05 	-3.712476768e-06 	-1.32348898e-23 	3.965243639e-05 	-4.235164736e-22 	7.558856458e-08
0 	9.697550584e-05 	-3.712476768e-06 	-1.32348898e-23 	3.965243639e-05 	-4.235164736e-22 	7.558856458e-08
0.001074327146 	0.0001014136437 	-5.294799734e-06 	2.312349717e-07 	5.659381478e-05 	-2.46927198e-06 	1.078835404e-07
0.002146986776 	0.0001112261999 	-1.295679792e-05 	5.672410064e-07 	4.900415862e-05 	-2.118132406e-06 	9.341554633e-08
0.003217959715 	0.0001109961972 	-1.51039458e-05 	6.69951933e-07 	5.445881883e-05 	-2.269736677e-06 	1.038136447e-07
0.004287226928 	0.0001183996175 	-1.515323697e-05 	6.908239319e-07 	6.508871243e-05 	-2.512966476e-06 	1.240771764e-07
0.005354769522 	0.0001345523572 	-1.656881734e-05 	7.455387136e-07 	8.111295906e-05 	-2.804141695e-06 	1.546238441e-07
0.006420568743 	0.000154243822 	-2.241923253e-05 	8.869976397e-07 	0.000102316078 	-3.105409347e-06 	1.95042882e-07
0.007484605976 	0.0001712405873 	-3.260127207e-05 	1.058137255e-06 	0.0001271062757 	-3.352584823e-06 	2.422998889e-07
0.008546862746 	0.0001822656281 	-4.374572033e-05 	1.151702239e-06 	0.000151470839 	-3.442600998e-06 	2.887455182e-07
0.009607320712 	0.0001887393072 	-5.268046017e-05 	1.126473049e-06 	0.0001704187684 	-3.303449255e-06 	3.24865538e-07
0.01066596167 	0.0001941111366 	-5.830732894e-05 	1.013728962e-06 	0.0001811544184 	-2.962658151e-06 	3.453306707e-07
0.01172276756 	0.0001990844182 	-6.169642376e-05 	8.724534011e-07 	0.0001860939418 	-2.547953413e-06 	3.547467751e-07
0.01277772044 	0.0002028462091 	-6.401711871e-05 	7.372054604e-07 	0.0001886035308 	-2.155132558e-06 	3.595307494e-07
0.01383080251 	0.0002059950767 	-6.531373312e-05 	6.145833754e-07 	0.0001891488095 	-1.802743431e-06 	3.605702021e-07
0.01488199612 	0.000209001359 	-6.573993125e-05 	5.056021674e-07 	0.0001881084589 	-1.49080614e-06 	3.585870047e-07
0.01593128371 	0.0002117262014 	-6.57988542e-05 	4.078136725e-07 	0.000186480877 	-1.210966946e-06 	3.554843813e-07
0.0169786479 	0.0002140466415 	-6.575381368e-05 	3.194279379e-07 	0.00018485613 	-9.566119636e-07 	3.523871618e-07
0.01802407142 	0.0002160337415 	-6.566126812e-05 	2.393499419e-07 	0.0001833580911 	-7.236622578e-07 	3.495314834e-07
0.01906753711 	0.0002177485612 	-6.555502856e-05 	1.666459473e-07 	0.0001820332629 	-5.090927604e-07 	3.470059927e-07
0.02010902796 	0.0002192460963 	-6.545414379e-05 	1.005531771e-07 	0.0001808884497 	-3.106117202e-07 	3.448236605e-07
0.02114852709 	0.0002205729283 	-6.536914214e-05 	4.044068806e-08 	0.0001799148951 	-1.264037535e-07 	3.429677948e-07
0.02190656462 	0.0002214369795 	-6.532577703e-05 	2.273206113e-08 	0.0001793328588 	-6.422928379e-08 	3.418582718e-07
0.02213602389 	0.0002216745166 	-6.510709672e-05 	1.645269793e-08 	0.0001787976425 	-4.047930431e-08 	3.408380008e-07
0.02298658729 	0.0002224263501 	-6.437839533e-05 	7.328998694e-08 	0.0001771146354 	-1.814399735e-07 	3.376297215e-07
0.02383601527 	0.0002231078195 	-6.374587711e-05 	1.239573138e-07 	0.0001757179518 	-3.090401894e-07 	3.349672543e-07
0.02468429274 	0.0002237410074 	-6.32045089e-05 	1.68983218e-07 	0.00017457947 	-4.246181754e-07 	3.327969917e-07
0.0255314047 	0.0002243435323 	-6.274939446e-05 	2.088290301e-07 	0.0001736750511 	-5.293232442e-07 	3.310729179e-07
0.02637733621 	0.0002249250888 	-6.237673669e-05 	2.439140741e-07 	0.0001729824959 	-6.24137695e-07 	3.297527152e-07
0.02722207243 	0.0002254947334 	-6.208290097e-05 	2.746343497e-07 	0.0001724820821 	-7.099008445e-07 	3.287987874e-07
0.02806559858 	0.0002260919491 	-6.185817879e-05 	3.012640717e-07 	0.0001721648525 	-7.875658588e-07 	3.281940596e-07
0.02890789998 	0.0002267423867 	-6.169337907e-05 	3.240945096e-07 	0.0001720109423 	-8.586082597e-07 	3.27900664e-07
0.02974896199 	0.0002273952031 	-6.148892144e-05 	3.410560865e-07 	0.0001717428651 	-9.195303065e-07 	3.273896344e-07
0.03105328552 	0.0002283411511 	-6.155173628e-05 	3.547758256e-07 	0.0001722186589 	-9.775593603e-07 	3.282966295e-07
0.03237895466 	0.0002293338135 	-6.166909577e-05 	2.970458934e-07 	0.0001727463004 	-8.393316441e-07 	3.293024608e-07
0.03372619192 	0.0002304594787 	-6.193089431e-05 	2.45402994e-07 	0.000173581683 	-7.127949227e-07 	3.308949323e-07
0.03509521438 	0.0002317348492 	-6.232859736e-05 	1.990779687e-07 	0.0001747142711 	-5.966004693e-07 	3.3305396e-07
0.03648623309 	0.0002331555495 	-6.286108416e-05 	1.578612493e-07 	0.0001761262705 	-4.899406498e-07 	3.357456233e-07
0.03789945241 	0.0002347392237 	-6.352534877e-05 	1.215132052e-07 	0.0001778106856 	-3.92315758e-07 	3.389565867e-07
0.03933506942 	0.000236500046 	-6.431916693e-05 	8.982290553e-08 	0.0001797610992 	-3.032789567e-07 	3.42674617e-07
0.04079327314 	0.0002384527855 	-6.524079917e-05 	6.259534373e-08 	0.0001819729991 	-2.224564959e-07 	3.46891113e-07
0.04227424383 	0.0002406122139 	-6.628934439e-05 	3.965333312e-08 	0.0001844432742 	-1.495332866e-07 	3.51600144e-07
0.04377815219 	0.0002429938312 	-6.746507902e-05 	2.083697962e-08 	0.0001871701235 	-8.424982816e-08 	3.567982767e-07
0.04530515853 	0.0002456143711 	-6.87700353e-05 	6.005099629e-09 	0.0001901528032 	-2.63981292e-08 	3.624840932e-07
0.04608381709 	0.0002470412085 	-6.948535236e-05 	1.401282525e-08 	0.0001917694954 	-4.445161126e-08 	3.655659579e-07
0.04669962032 	0.0002482884932 	-6.994830489e-05 	6.126622138e-09 	0.0001931577678 	-6.224642709e-09 	3.682123909e-07
0.04795657 	0.0002510034054 	-7.098749824e-05 	1.647490168e-08 	0.0001961757643 	-1.409426993e-08 	3.73965531e-07
0.04923369681 	0.0002539695815 	-7.215644143e-05 	2.428961694e-08 	0.0001994392565 	-1.583559002e-08 	3.801866542e-07
0.05053116635 	0.0002572000018 	-7.346846296e-05 	2.977921484e-08 	0.0002029440786 	-1.157118817e-08 	3.868678192e-07
0.0518491351 	0.0002607095791 	-7.494222638e-05 	3.319678244e-08 	0.0002066856464 	-1.360355217e-09 	3.940002873e-07
0.0531877496 	0.0002645151646 	-7.660238589e-05 	3.485015416e-08 	0.0002106590404 	1.48305212e-08 	4.015746807e-07
0.05454714558 	0.0002686353797 	-7.848013827e-05 	3.510791282e-08 	0.000214859244 	3.716042056e-08 	4.095814361e-07
0.05592744703 	0.0002730901163 	-8.061339078e-05 	3.439930563e-08 	0.0002192815439 	6.594353558e-08 	4.180115688e-07
0.05732876521 	0.0002778993978 	-8.304612064e-05 	3.320991612e-08 	0.0002239218823 	1.016689552e-07 	4.268573435e-07
0.05875119761 	0.0002830818069 	-8.582684071e-05 	2.683415241e-08 	0.0002287769301 	1.212568748e-07 	4.361124141e-07
0.06019482689 	0.000288653875 	-8.900741237e-05 	2.139950783e-08 	0.0002338440086 	1.33012793e-07 	4.457716739e-07
0.06165971967 	0.0002946312727 	-9.26430087e-05 	1.769733455e-08 	0.0002391206652 	1.401876963e-07 	4.558304481e-07
0.06314592535 	0.0003010284189 	-9.679272847e-05 	1.53251729e-08 	0.0002446040855 	1.424760605e-07 	4.662833711e-07
0.06465775049 	0.0003078886155 	-0.0001015493376 	1.38728724e-08 	0.0002503224763 	1.394245071e-07 	4.771842133e-07
0.06623409489 	0.0003153078919 	-0.0001070537641 	1.283045794e-08 	0.0002564247417 	1.295408702e-07 	4.888168272e-07
0.06783446702 	0.0003231490854 	-0.0001132650168 	9.845481153e-09 	0.0002627816879 	1.116541045e-07 	5.009349335e-07
0.06945913953 	0.0003314094416 	-0.0001202465895 	5.397430074e-09 	0.0002693830265 	8.48904999e-08 	5.135189196e-07
0.07110838511 	0.0003401496377 	-0.0001281314926 	1.928191058e-09 	0.0002762148898 	4.910456516e-08 	5.265423499e-07
0.0727824764 	0.0003493773015 	-0.0001370049722 	6.686667116e-11 	0.0002832666463 	3.516743e-09 	5.399849577e-07
0.07289842475 	0.0003500389124 	-0.0001376748723 	-1.978600708e-08 	0.0002837554654 	-1.882767589e-09 	5.409167827e-07
0.07426181252 	0.000357862729 	-0.0001458735096 	2.751334898e-08 	0.0002897213743 	5.475320058e-08 	5.522894633e-07
0.0757472134 	0.0003664896027 	-0.0001555162133 	6.475116951e-08 	0.0002962857129 	1.236675005e-07 	5.648029171e-07
0.07725503592 	0.000375300331 	-0.0001660274522 	1.111587054e-07 	0.0003030253379 	2.045655445e-07 	5.776505155e-07
0.07878553239 	0.0003842512297 	-0.0001774330803 	1.679080135e-07 	0.0003099459792 	2.991831635e-07 	5.908431813e-07
0.08033895541 	0.0003930311951 	-0.0001891033501 	2.645677823e-07 	0.0003168111223 	3.98888142e-07 	6.039300522e-07
0.08191555778 	0.0004006571006 	-0.0001991241521 	4.217325702e-07 	0.0003232131477 	4.987826906e-07 	6.161340919e-07
0.08351559245 	0.0004061262248 	-0.0002059527905 	5.137009947e-07 	0.0003291712658 	5.301891969e-07 	6.274919211e-07
0.08513931241 	0.0004104392243 	-0.000211102057 	4.988627571e-07 	0.0003350712029 	4.713519966e-07 	6.38738841e-07
0.08678697065 	0.000414039586 	-0.0002154598299 	4.440763222e-07 	0.0003412520255 	4.050074536e-07 	6.505212067e-07
0.08845882009 	0.0004169782067 	-0.0002190453519 	3.501623822e-07 	0.0003477811084 	3.290283512e-07 	6.629674533e-07
0.09015511346 	0.0004198216973 	-0.0002224911172 	2.448094527e-07 	0.0003546871345 	2.424468939e-07 	6.761322585e-07
0.0918761033 	0.0004226880433 	-0.0002259251208 	1.336760468e-07 	0.0003619741592 	1.4495645e-07 	6.900233529e-07
0.09362204182 	0.0004258521073 	-0.0002296610634 	3.047834883e-08 	0.0003696269239 	3.706596192e-08 	7.046116494e-07
0.09419342311 	0.0004269729836 	-0.0002309647742 	-2.638884808e-08 	0.0003721906732 	-2.384929826e-08 	7.094988681e-07
0.09531469617 	0.0004294923922 	-0.000233055104 	8.442681284e-08 	0.0003768350496 	5.963236341e-08 	7.183523404e-07
0.09699468175 	0.0004333150283 	-0.0002361385197 	2.138571909e-07 	0.0003839572051 	1.539382363e-07 	7.319291483e-07
0.0986997996 	0.0004372381397 	-0.0002392141774 	3.485766958e-07 	0.000391359538 	2.555112701e-07 	7.460400522e-07
0.1004303306 	0.0004412657863 	-0.0002422836542 	4.88411448e-07 	0.0003990412921 	3.644420638e-07 	7.606836105e-07
0.1021865562 	0.0004454075429 	-0.0002453518985 	6.331423722e-07 	0.0004070008002 	4.809985224e-07 	7.758566452e-07
0.1039687584 	0.0004496914137 	-0.0002484497577 	7.826257411e-07 	0.0004152544551 	6.057938626e-07 	7.915904054e-07
0.105801143 	0.0004541619596 	-0.0002516255165 	8.475158878e-07 	0.0004239457787 	6.69078434e-07 	8.081584839e-07
0.1076898344 	0.0004587608813 	-0.0002547540642 	7.132476043e-07 	0.000433107493 	5.808458625e-07 	8.256232577e-07
0.1096057252 	0.0004633164004 	-0.0002575331003 	5.546740733e-07 	0.0004425849536 	4.873190958e-07 	8.436899317e-07
0.1115490892 	0.0004680806639 	-0.0002604009554 	3.917644377e-07 	0.0004524651248 	3.848552602e-07 	8.625242841e-07
0.1135202004 	0.0004733185286 	-0.0002638222834 	2.45129766e-07 	0.0004628269246 	2.702520861e-07 	8.822767545e-07
0.1155193324 	0.0004790189613 	-0.0002677829278 	1.155347033e-07 	0.0004736539495 	1.43571478e-07 	9.029160731e-07
0.1175467585 	0.0004851363581 	-0.0002722303023 	3.479899859e-09 	0.0004849101757 	4.89566412e-09 	9.243735687e-07
0.1176158625 	0.0004853503621 	-0.0002723857924 	-3.283289818e-09 	0.0004852987009 	-3.816521729e-10 	9.251142056e-07
0.1195071859 	0.0004907231473 	-0.0002759691172 	1.299639745e-07 	0.0004954051296 	1.115959834e-07 	9.443798677e-07
0.1214927075 	0.0004964523879 	-0.0002795587398 	2.678681001e-07 	0.0005062930287 	2.36154651e-07 	9.651352296e-07
0.1235069599 	0.0005023144739 	-0.000283105947 	4.088233362e-07 	0.0005175128882 	3.694053162e-07 	9.865234002e-07
0.1255502441 	0.0005091778192 	-0.0002875162073 	5.545538594e-07 	0.0005298536358 	5.12908117e-07 	1.010048295e-06
0.1286698652 	0.0005176263867 	-0.0002925700255 	7.484177803e-07 	0.0005480208054 	7.522436742e-07 	1.04467997e-06
0.1318034845 	0.0005269445705 	-0.0002981095581 	5.943577431e-07 	0.0005675677482 	7.161503708e-07 	1.081941875e-06
0.1349511188 	0.0005369750801 	-0.0003044978204 	3.591842899e-07 	0.000588136449 	5.474407208e-07 	1.121151536e-06
0.1381127882 	0.0005481465901 	-0.0003124665563 	1.736434518e-07 	0.0006100739193 	3.436834814e-07 	1.162970452e-06
0.1413694387 	0.000560524159 	-0.0003221716952 	3.687077179e-08 	0.0006337413658 	9.976947998e-08 	1.208087182e-06
0.1425900493 	0.0005651432854 	-0.0003252726016 	-5.112634112e-08 	0.0006425702816 	4.594204561e-08 	1.22491755e-06
0.1445658929 	0.0005727624784 	-0.0003288530848 	1.268714443e-07 	0.0006565813204 	1.453328187e-07 	1.251626484e-06
0.1477280931 	0.0005847574626 	-0.0003330598437 	2.83403854e-07 	0.0006791626 	4.135970537e-07 	1.294672679e-06
0.1509048918 	0.000597626758 	-0.0003386686789 	3.804766635e-07 	0.0007033380945 	7.264116076e-07 	1.340757891e-06
0.1540963343 	0.0006112322631 	-0.0003449658498 	4.166881768e-07 	0.0007286129822 	1.082613098e-06 	1.388938852e-06
0.15730247 	0.0006251090098 	-0.0003499305205 	2.740204416e-07 	0.0007538948368 	1.042879242e-06 	1.437133093e-06
0.1605233532 	0.0006394420274 	-0.0003543645659 	1.22719704e-07 	0.0007797063067 	7.950567476e-07 	1.486336929e-06
0.1637590427 	0.0006547033583 	-0.0003601321459 	3.050620965e-08 	0.0008070503987 	5.039093e-07 	1.538462368e-06
0.1670096021 	0.0006706922502 	-0.0003649535169 	2.046273311e-09 	0.0008343585851 	1.680443937e-07 	1.590519361e-06
0.1685683127 	0.0006785135465 	-0.0003664100282 	8.305694281e-08 	0.0008470789965 	4.577946871e-08 	1.614768001e-06
0.1702759792 	0.00068707953 	-0.000367009134 	4.194067116e-08 	0.0008609154684 	1.776550729e-07 	1.641144162e-06
0.1735378181 	0.0007041525877 	-0.0003691230576 	7.878215289e-08 	0.0008887343011 	5.50286532e-07 	1.694174589e-06
0.176816035 	0.0007221919814 	-0.0003718890609 	8.876887155e-08 	0.0009177796282 	9.423041023e-07 	1.749543055e-06
0.1801107166 	0.0007411758339 	-0.000374656918 	1.022911013e-07 	0.0009474617855 	1.327642833e-06 	1.806125497e-06
0.1834219551 	0.0007611045854 	-0.0003777772456 	9.756364052e-08 	0.0009780883355 	1.610819903e-06 	1.864508213e-06
0.1867498487 	0.0007820006805 	-0.0003812795208 	5.595503616e-08 	0.001009679604 	1.264108918e-06 	1.924729952e-06
0.1900945014 	0.0008038934944 	-0.0003851894261 	2.539985844e-08 	0.00104220816 	9.10341295e-07 	1.986738419e-06
0.1934560237 	0.0008268484326 	-0.0003895156981 	6.396961598e-09 	0.001075688148 	5.502006796e-07 	2.050560583e-06
0.1968739022 	0.0008510203948 	-0.0003943022478 	-8.07008391e-10 	0.001110450327 	1.801628089e-07 	2.116826957e-06
0.1985304137 	0.0008630559557 	-0.0003967695434 	3.794273388e-08 	0.00112758719 	1.585907714e-07 	2.149494581e-06
0.2002921667 	0.0008759704084 	-0.0003989773445 	1.560362274e-08 	0.001146082829 	1.962439318e-07 	2.18475241e-06
0.203671274 	0.0009014953555 	-0.0004036027628 	3.485470493e-08 	0.001182251997 	5.74362667e-07 	2.253700897e-06
0.2070684227 	0.0009278773775 	-0.0004087312738 	4.030224616e-08 	0.001219278897 	9.568497225e-07 	2.324284458e-06
0.2104837616 	0.000955043097 	-0.0004143726141 	3.205795778e-08 	0.001257168274 	1.343799438e-06 	2.396512141e-06
0.213917447 	0.0009829004256 	-0.0004205467439 	1.02347173e-08 	0.001295948187 	1.736502535e-06 	2.470437435e-06
0.2173696432 	0.001011329393 	-0.0004272717035 	-1.668374323e-08 	0.001335691431 	1.42773737e-06 	2.546199103e-06
0.2208498461 	0.001040296742 	-0.0004346143693 	-3.069350202e-08 	0.001376773899 	1.071846748e-06 	2.624513705e-06
0.2244220358 	0.001069669886 	-0.0004426591719 	-3.116876965e-08 	0.001419931329 	7.025622532e-07 	2.706783763e-06
0.2280123558 	0.001098825835 	-0.0004513383606 	-1.874864076e-08 	0.001465034399 	3.231286002e-07 	2.792762751e-06
0.2309642662 	0.001122029418 	-0.0004589869711 	-1.318081948e-08 	0.001503745082 	1.177895987e-07 	2.866556071e-06
0.231601588 	0.001126862386 	-0.0004604410201 	5.029788787e-09 	0.001512361667 	7.692565346e-08 	2.882981676e-06
0.2351229535 	0.001152116331 	-0.0004686437789 	5.232246558e-08 	0.001561631632 	4.900577777e-07 	2.976903924e-06
0.2386642333 	0.001175590388 	-0.0004761695792 	1.702861502e-07 	0.00161165861 	8.361547085e-07 	3.072269247e-06
0.2422256574 	0.001197242695 	-0.0004832065641 	3.711820084e-07 	0.001661529287 	1.074469337e-06 	3.16733662e-06
0.245844 	0.001217475086 	-0.0004861890292 	6.613582375e-07 	0.001706990839 	1.173985215e-06 	3.253998973e-06
0.2495251984 	0.001236580324 	-0.0004819028069 	8.053812676e-07 	0.001743904662 	8.627911604e-07 	3.324366979e-06
0.2532263804 	0.00125458249 	-0.0004741824805 	7.472475004e-07 	0.001774388878 	4.482436015e-07 	3.382478367e-06
0.2569478097 	0.001271430516 	-0.0004652551226 	5.635432579e-07 	0.001800549982 	2.010287977e-07 	3.432348704e-06
0.2606897621 	0.001287015428 	-0.0004561255149 	2.821287315e-07 	0.001824221243 	9.428606778e-08 	3.477472705e-06
0.2644525256 	0.001301283549 	-0.0004499750469 	2.965548017e-08 	0.001849073571 	1.340783812e-08 	3.52484815e-06
0.2649834881 	0.00130309514 	-0.0004495243818 	2.940696072e-08 	0.001852857779 	-1.030534607e-08 	3.532061902e-06
0.2682013626 	0.001314073773 	-0.0004475850819 	1.407928333e-07 	0.001876408 	1.096878662e-07 	3.576955168e-06
0.2720083861 	0.001325371507 	-0.0004468000369 	2.977990487e-07 	0.001905564917 	2.455585185e-07 	3.632536357e-06
0.2758373145 	0.001335215298 	-0.0004465187099 	4.564408205e-07 	0.001935233677 	3.735454285e-07 	3.689093259e-06
0.2796884853 	0.001343740683 	-0.0004460985372 	6.202187386e-07 	0.001964454894 	4.854736386e-07 	3.744797021e-06
0.28356225 	0.001351083694 	-0.0004452579562 	7.162239771e-07 	0.001992745467 	5.275174462e-07 	3.798726716e-06
0.2874589747 	0.0013574167 	-0.000443957328 	5.672938363e-07 	0.002019998632 	3.913027862e-07 	3.850678821e-06
0.2914374958 	0.00136284479 	-0.000442143832 	4.131033042e-07 	0.002046534353 	2.670594339e-07 	3.901263281e-06
0.2954539871 	0.001367429457 	-0.0004398352537 	2.560817477e-07 	0.002072347809 	1.556394258e-07 	3.950470903e-06
0.2994935987 	0.001371259801 	-0.000437056968 	9.698745336e-08 	0.002097477239 	5.564885283e-08 	3.998374582e-06
0.3019494975 	0.00137317056 	-0.0004350914118 	9.364319346e-08 	0.002112402951 	-1.006900083e-07 	4.026827136e-06
0.3035411544 	0.001374468655 	-0.0004336626481 	6.838002353e-08 	0.002121867657 	2.829227711e-08 	4.044869498e-06
0.3075897287 	0.001377203155 	-0.0004296154567 	2.414592885e-07 	0.002145566843 	9.497856582e-08 	4.090046733e-06
0.3117070592 	0.001379418549 	-0.0004250419225 	4.171346068e-07 	0.002169273302 	1.5598568e-07 	4.135237833e-06
0.3158763763 	0.001381153985 	-0.0004199399941 	5.942167699e-07 	0.002193014865 	2.109836866e-07 	4.180495851e-06
0.3200711507 	0.001382487025 	-0.0004143655251 	7.71187143e-07 	0.002216690213 	2.595521696e-07 	4.225627644e-06
0.3242918762 	0.001383464187 	-0.0004083141886 	8.280882139e-07 	0.002240341084 	2.635477083e-07 	4.270712777e-06
0.3285390659 	0.001384155898 	-0.0004017950376 	6.631469554e-07 	0.002264031623 	1.989539577e-07 	4.315873529e-06
0.3328661155 	0.001384581014 	-0.0003947148807 	4.960302029e-07 	0.002287994261 	1.39712133e-07 	4.361552976e-06
0.3372333222 	0.001384766302 	-0.0003870886404 	3.288228551e-07 	0.002312147145 	8.647290935e-08 	4.407595086e-06
0.3416275151 	0.001384767372 	-0.0003789603475 	1.621714059e-07 	0.002336382925 	3.956629024e-08 	4.453795219e-06
0.3459484157 	0.001384622692 	-0.0003705055542 	9.571854565e-09 	0.002360190328 	-6.720702714e-09 	4.499178747e-06
0.3460484185 	0.00138462617 	-0.0003703033507 	3.929928231e-09 	0.002360732821 	6.203847137e-10 	4.500212888e-06
0.3504786873 	0.001384639316 	-0.0003609045783 	1.75219034e-07 	0.002384843519 	2.449219052e-08 	4.546174581e-06
0.3549828372 	0.001384531097 	-0.0003508531547 	3.46532566e-07 	0.002409302708 	4.188545589e-08 	4.592800592e-06
0.35951625 	0.001384334712 	-0.0003401947137 	5.157878208e-07 	0.002433961887 	5.212122441e-08 	4.639807842e-06
0.3640795876 	0.001384078277 	-0.000328927376 	6.828291075e-07 	0.002458766945 	5.484987605e-08 	4.687093176e-06
0.3686755843 	0.00138379443 	-0.0003169979437 	8.475803753e-07 	0.002483784132 	4.964171436e-08 	4.734782887e-06
0.373358679 	0.001383482851 	-0.0003042586077 	8.390664866e-07 	0.002509167376 	2.990518818e-08 	4.783170407e-06
0.3780726351 	0.0013831641 	-0.0002907417963 	6.798182226e-07 	0.002534759389 	7.737714496e-09 	4.831955896e-06
0.3828182057 	0.001382875118 	-0.0002764726482 	5.228585086e-07 	0.002560447784 	-7.408742831e-09 	4.880925116e-06
0.3875975535 	0.001382655746 	-0.0002613762713 	3.68352348e-07 	0.002586296572 	-1.517265333e-08 	4.93020009e-06
0.3924622408 	0.001382516229 	-0.0002452927972 	2.150087325e-07 	0.002612420296 	-1.501802288e-08 	4.979999169e-06
0.3973596973 	0.001382481585 	-0.0002282500434 	6.526626875e-08 	0.002638657644 	-6.547495523e-09 	5.030014847e-06
0.3995609819 	0.001382523949 	-0.000220232899 	3.396155383e-07 	0.002650395718 	-1.191380926e-07 	5.052390879e-06
0.4022763705 	0.001382723328 	-0.0002102980673 	7.947400457e-08 	0.002664710285 	-1.421943224e-08 	5.079678422e-06
0.4072278368 	0.001383256125 	-0.0001913275163 	2.186947813e-07 	0.00269070274 	-4.647352946e-08 	5.129227264e-06
0.4122531061 	0.001384004389 	-0.0001711983331 	3.530637212e-07 	0.002716799302 	-8.775624648e-08 	5.178974564e-06
0.4173143592 	0.001385005721 	-0.0001499418073 	4.806251278e-07 	0.002742837019 	-1.380921782e-07 	5.22860969e-06
0.422412537 	0.001386321419 	-0.0001275524455 	6.006828775e-07 	0.002768728976 	-1.976532824e-07 	5.277966957e-06
0.427575927 	0.001388016009 	-0.000103849808 	7.131820469e-07 	0.002794531032 	-2.669192138e-07 	5.327152846e-06
0.4327946249 	0.001390128391 	-7.876292335e-05 	8.108391451e-07 	0.002820140176 	-3.434112531e-07 	5.375970992e-06
0.4380519682 	0.001392721276 	-5.232811963e-05 	6.805865407e-07 	0.002845387311 	-3.249079044e-07 	5.424099049e-06
0.4433556139 	0.001395887035 	-2.4427348e-05 	5.562254072e-07 	0.002870240542 	-2.98600869e-07 	5.471476216e-06
0.4487334003 	0.0013997095 	5.118433598e-06 	4.380813749e-07 	0.002894656334 	-2.642076988e-07 	5.5180195e-06
0.4541517666 	0.001404255362 	3.629767685e-05 	3.278557573e-07 	0.002918430453 	-2.221955275e-07 	5.563339578e-06
0.4596118531 	0.001409630122 	6.914879492e-05 	2.262856207e-07 	0.002941423731 	-1.726389346e-07 	5.607171158e-06
0.4651459664 	0.001415981335 	0.0001038940226 	1.339492523e-07 	0.002963578658 	-1.154374409e-07 	5.649404607e-06
0.4707278335 	0.00142340331 	0.0001405704139 	5.265708593e-08 	0.002984668431 	-5.15379414e-08 	5.689607575e-06
0.4749329857 	0.001429843793 	0.0001694489731 	3.853440915e-07 	0.002999494928 	-1.553501142e-07 	5.717870999e-06
0.4763506212 	0.001432049671 	0.0001791668925 	1.571589538e-08 	0.00300446391 	-1.814277982e-08 	5.72734326e-06
0.4820326335 	0.001442146905 	0.0002199567838 	6.876167352e-08 	0.003022793598 	-9.188869981e-08 	5.76228474e-06
0.4877703369 	0.001453723522 	0.0002632311336 	1.05730137e-07 	0.003039439323 	-1.686170321e-07 	5.794016118e-06
0.493555219 	0.001466764016 	0.0003093138646 	1.212065322e-07 	0.003054170128 	-2.47453433e-07 	5.822097126e-06
0.4994072706 	0.001481861463 	0.0003560547508 	1.400126799e-07 	0.003065077533 	-3.055620258e-07 	5.842889673e-06
0.5053176938 	0.001499619806 	0.0003994632883 	2.283626891e-07 	0.003069650964 	-2.983597244e-07 	5.851607902e-06
0.511278026 	0.00152000324 	0.0004357581872 	4.129835908e-07 	0.003066770004 	-2.291419158e-07 	5.846115992e-06
0.5173077372 	0.001542440335 	0.0004646544123 	6.007808487e-07 	0.00305786777 	-1.667178298e-07 	5.82914586e-06
0.5233956724 	0.001566100361 	0.0004890181242 	7.124603757e-07 	0.00304558055 	-1.40079344e-07 	5.805723004e-06
0.5295365024 	0.001590447937 	0.0005110756036 	7.866729821e-07 	0.003031228501 	-1.107255217e-07 	5.778364009e-06
0.5357509981 	0.001615238267 	0.0005322009536 	8.241266247e-07 	0.003015282397 	-7.940593281e-08 	5.747966304e-06
0.5420221314 	0.001640317054 	0.0005530326905 	7.661705162e-07 	0.00299791394 	-4.35276415e-08 	5.714857197e-06
0.5483526887 	0.00166556214 	0.0005736870251 	6.772809833e-07 	0.00297933456 	-1.344942069e-08 	5.679439734e-06
0.5547556326 	0.001690872034 	0.0005941606363 	5.978411389e-07 	0.002959795261 	8.896019749e-09 	5.642192401e-06
0.5611453472 	0.001715961071 	0.0006141598359 	5.281364997e-07 	0.002939553673 	2.502903121e-08 	5.603606307e-06
0.5674604494 	0.0017406196 	0.0006335241283 	4.675271812e-07 	0.002918956503 	3.62294975e-08 	5.564342377e-06
0.5737018556 	0.001764793159 	0.0006521887021 	4.1513664e-07 	0.002898140047 	4.362487461e-08 	5.524660426e-06
0.5798639363 	0.001788433472 	0.000670074625 	3.698251829e-07 	0.002877198661 	4.825321757e-08 	5.484740324e-06
0.5859581069 	0.001811530206 	0.000687248604 	3.306587275e-07 	0.002856274563 	5.07852503e-08 	5.444853177e-06
0.5919785117 	0.001834061271 	0.0007037017174 	2.969899741e-07 	0.002835377566 	5.182702316e-08 	5.405017693e-06
0.5979243277 	0.001856008657 	0.0007194228124 	2.67981339e-07 	0.00281457106 	5.184934273e-08 	5.365354711e-06
0.603806435 	0.001877398848 	0.0007344928444 	2.430616487e-07 	0.002793916267 	5.112912879e-08 	5.325980934e-06
0.6096166771 	0.001898224635 	0.0007489032384 	2.217784792e-07 	0.002773389687 	4.995424744e-08 	5.286851566e-06
0.6153571087 	0.001918487619 	0.0007626713349 	2.035595661e-07 	0.002753044582 	4.85080994e-08 	5.248068143e-06
0.6210352419 	0.00193822025 	0.0007758657481 	1.880637656e-07 	0.002732896613 	4.689643923e-08 	5.209660515e-06
0.6266451332 	0.001957421656 	0.0007884792152 	1.749601091e-07 	0.002712917237 	4.524471167e-08 	5.17157427e-06
0.6321888401 	0.00197610314 	0.0008005402943 	1.638673277e-07 	0.002693148672 	4.360659234e-08 	5.13388989e-06
0.637672122 	0.001994299012 	0.0008121073472 	1.545753595e-07 	0.002673583333 	4.200715399e-08 	5.096592917e-06
0.6430906123 	0.00201201479 	0.0008231795158 	1.468625414e-07 	0.002654191541 	4.048930533e-08 	5.059626772e-06
0.6484456802 	0.00202926423 	0.0008337817267 	1.404687733e-07 	0.002635003078 	3.905644238e-08 	5.023048227e-06
0.653742691 	0.002046083757 	0.0008439683058 	1.352584093e-07 	0.002616007285 	3.769409048e-08 	4.986836966e-06
0.6589779999 	0.002062486231 	0.0008537457272 	1.311018444e-07 	0.002597169078 	3.640747916e-08 	4.950926108e-06
0.6641527762 	0.002078482944 	0.0008631277509 	1.278137632e-07 	0.002578507786 	3.518759782e-08 	4.915352499e-06
0.6692707843 	0.002094111068 	0.0008721664445 	1.253012615e-07 	0.002560022143 	3.400249901e-08 	4.880113725e-06
0.6743305076 	0.002109392224 	0.0008808761602 	1.235033626e-07 	0.00254166934 	3.284203673e-08 	4.845128182e-06
0.6793323654 	0.002124335122 	0.0008892600454 	1.222864355e-07 	0.002523458829 	3.169984319e-08 	4.810413888e-06
0.6842786275 	0.002138975071 	0.0008973646839 	1.2158108e-07 	0.002505401256 	3.054139366e-08 	4.775991133e-06
0.6891698224 	0.002153341699 	0.0009052117908 	1.213688702e-07 	0.002487453002 	2.935129477e-08 	4.741776773e-06
0.6940055861 	0.002167446155 	0.0009128020782 	1.215634348e-07 	0.002469611294 	2.812577692e-08 	4.70776552e-06
0.6987869863 	0.002181317042 	0.0009201673407 	1.221072502e-07 	0.002451892174 	2.684319967e-08 	4.673987952e-06
0.7035162408 	0.002194990442 	0.0009273372776 	1.229933232e-07 	0.002434267019 	2.548535825e-08 	4.640389508e-06
0.7081923019 	0.002208487626 	0.0009343198621 	1.241913785e-07 	0.002416716135 	2.404541287e-08 	4.606932644e-06
0.7128159963 	0.002221827724 	0.0009411263639 	1.256480416e-07 	0.002399251381 	2.252443786e-08 	4.57363997e-06
0.7173887898 	0.002235049036 	0.0009477906765 	1.27349852e-07 	0.002381870584 	2.090428935e-08 	4.540507339e-06
0.7219111564 	0.002248185159 	0.0009543303724 	1.293099202e-07 	0.002364543533 	1.91777516e-08 	4.507477166e-06
0.7263831588 	0.002261257156 	0.0009607504608 	1.314923631e-07 	0.00234726828 	1.735262282e-08 	4.474545732e-06
0.7308055292 	0.002274296116 	0.000967072093 	1.338781642e-07 	0.002330057327 	1.543088536e-08 	4.441736872e-06
0.7351796769 	0.002287344206 	0.0009733220315 	1.36476343e-07 	0.00231289659 	1.340537477e-08 	4.409023737e-06
0.73950552 	0.002300436128 	0.0009795132735 	1.392990201e-07 	0.002295767484 	1.127900896e-08 	4.376370899e-06
0.7437835465 	0.002313599651 	0.0009856537441 	1.423222835e-07 	0.002278675938 	9.07079702e-09 	4.343789663e-06
0.7480144128 	0.00232687495 	0.0009917661578 	1.455443649e-07 	0.002261631264 	6.78928786e-09 	4.311297776e-06
0.7521992977 	0.002340309438 	0.0009978733405 	1.489850679e-07 	0.002244620114 	4.436905969e-09 	4.278869798e-06
0.7563381148 	0.002353943351 	0.001003987178 	1.526553809e-07 	0.002227632949 	2.028276548e-09 	4.246487539e-06
0.7604314361 	0.002367814323 	0.001010118797 	1.565434039e-07 	0.002210679414 	-4.091913135e-10 	4.214169389e-06
0.7644798564 	0.002381970356 	0.001016289 	1.606538175e-07 	0.002193768942 	-2.855377142e-09 	4.181933329e-06
0.7684842987 	0.002396466845 	0.00102251964 	1.650084707e-07 	0.002176895154 	-5.298537598e-09 	4.1497672e-06
0.772444869 	0.0024113539 	0.001028823709 	1.696223356e-07 	0.002160054318 	-7.714097471e-09 	4.117663886e-06
0.7763620792 	0.002426680135 	0.00103521364 	1.744891992e-07 	0.002143258451 	-1.006559938e-08 	4.085646295e-06
0.7802364736 	0.002442501798 	0.00104170797 	1.796139295e-07 	0.00212652172 	-1.231927678e-08 	4.053741435e-06
0.784068756 	0.00245888416 	0.001048328457 	1.85014007e-07 	0.002109847206 	-1.445241188e-08 	4.021955177e-06
0.7878592533 	0.00247589036 	0.00105509029 	1.907096412e-07 	0.002093235982 	-1.643457323e-08 	3.990289567e-06
0.7916083725 	0.002493580443 	0.001062005768 	1.966954025e-07 	0.002076703043 	-1.821871941e-08 	3.958773189e-06
0.7953166163 	0.002512020621 	0.0010690922 	2.029733103e-07 	0.002060269056 	-1.976059264e-08 	3.927445443e-06
0.7989845177 	0.002531285108 	0.001076369431 	2.095510532e-07 	0.002043947454 	-2.102293014e-08 	3.896331934e-06
0.8026125957 	0.002551450884 	0.001083855203 	2.155542859e-07 	0.002027747177 	-2.188185565e-08 	3.865449703e-06
0.8062011484 	0.002572590377 	0.001091562039 	2.118109743e-07 	0.002011686378 	-2.136097615e-08 	3.834833357e-06
0.8097506432 	0.002594780446 	0.001099506063 	2.081794557e-07 	0.001995790525 	-2.046248313e-08 	3.804531441e-06
0.8132615384 	0.002618101089 	0.001107703104 	2.046417006e-07 	0.00198008401 	-1.919838952e-08 	3.774590459e-06
0.8167343376 	0.002642639536 	0.001116172223 	2.011825611e-07 	0.001964589007 	-1.759441005e-08 	3.745052676e-06