0.4709558481 	1.363093044e-07 	-3.715416121e-10 	7.483494489e-15 	1.360475833e-07 	-1.913502341e-12 	2.593445062e-10
0.4709558481 	1.363093044e-07 	-3.715416121e-10 	7.483494489e-15 	1.360475833e-07 	-1.913502341e-12 	2.593445062e-10
0.4711314108 	1.530604785e-06 	-1.629974902e-08 	3.282518791e-13 	1.527271519e-06 	-2.147792751e-11 	2.911403999e-09
0.4713069734 	8.537391511e-06 	-2.12549289e-07 	4.27663527e-12 	8.507984083e-06 	-1.195676356e-10 	1.621858233e-08
0.471482536 	2.84801079e-05 	-1.323164764e-06 	2.655174796e-11 	2.827339655e-05 	-3.965155922e-10 	5.389695201e-08
0.4716580986 	7.067080516e-05 	-5.344030933e-06 	1.065886683e-10 	6.953747136e-05 	-9.703694697e-10 	1.325577474e-07
0.4718336613 	0.000145840914 	-1.623105692e-05 	3.200318556e-10 	0.0001410682326 	-1.949222613e-09 	2.689152592e-07
0.4720092239 	0.0002661891196 	-4.021869585e-05 	7.779991766e-10 	0.0002502340485 	-3.399644373e-09 	4.770156455e-07
0.4721847865 	0.0004453083605 	-8.532824627e-05 	1.60417395e-09 	0.0004012926781 	-5.313301842e-09 	7.649753779e-07
0.4723603491 	0.0006973193978 	-0.0001598313272 	2.889931899e-09 	0.0005938936997 	-7.589806772e-09 	1.132126456e-06
0.4725359118 	0.001034735838 	-0.000269995014 	4.646969885e-09 	0.0008225891107 	-1.005498657e-08 	1.568083472e-06
0.4727114744 	0.001465349644 	-0.0004180548063 	6.78813188e-09 	0.00107785909 	-1.251379544e-08 	2.054699002e-06
0.472887037 	0.001989377231 	-0.0006014344809 	9.152375018e-09 	0.001348338451 	-1.481044348e-08 	2.570307838e-06
0.4730625996 	0.002598341592 	-0.0008135438882 	1.155846202e-08 	0.001623240414 	-1.686307385e-08 	3.094347385e-06
0.4732381623 	0.003276305291 	-0.001045596081 	1.385499665e-08 	0.001894018306 	-1.866206309e-08 	3.610525307e-06
0.4734137249 	0.004002818914 	-0.001288519657 	1.594519692e-08 	0.002154932916 	-2.024531545e-08 	4.107901071e-06
0.4735892875 	0.004756300851 	-0.00153431518 	1.778623353e-08 	0.002402784748 	-2.167017161e-08 	4.580375548e-06
0.4737648501 	0.005516774637 	-0.001776693624 	1.937494556e-08 	0.002636268735 	-2.29933356e-08 	5.025460922e-06
0.4739404128 	0.006267508481 	-0.002011159864 	2.073127761e-08 	0.002855303067 	-2.426066562e-08 	5.443001236e-06
0.4741159754 	0.006995626087 	-0.002234789706 	2.188527908e-08 	0.003060497552 	-2.550405472e-08 	5.834158955e-06
0.474291538 	0.007692012432 	-0.00244589859 	2.286892276e-08 	0.003252781522 	-2.674212127e-08 	6.200705644e-06
0.4744671006 	0.008350799225 	-0.002643632702 	2.371209625e-08 	0.003433042601 	-2.798320557e-08 	6.544333362e-06
0.4746426632 	0.008968668819 	-0.00282791953 	2.444109275e-08 	0.003602552726 	-2.922727303e-08 	6.867466773e-06
0.4748182259 	0.009544920655 	-0.002999366032 	2.507389459e-08 	0.00376236853 	-3.046188417e-08 	7.172120114e-06
0.4749937885 	0.01006745435 	-0.003156683312 	2.563671239e-08 	0.003922979514 	-3.159930858e-08 	7.47828929e-06
0.4751693511 	0.01053094556 	-0.003299639328 	2.617086888e-08 	0.004090506149 	-3.245603465e-08 	7.797641618e-06
0.4753449137 	0.01095320953 	-0.003431620342 	2.666906427e-08 	0.00425400889 	-3.307795999e-08 	8.109323285e-06
0.4755204764 	0.01134570637 	-0.003554562607 	2.71068193e-08 	0.004406556671 	-3.362119239e-08 	8.400121755e-06
0.475696039 	0.01171013868 	-0.003668635189 	2.749578276e-08 	0.004548062137 	-3.410292883e-08 	8.669870501e-06
0.4758716016 	0.01204826519 	-0.003774341241 	2.784549782e-08 	0.004679109209 	-3.453705933e-08 	8.919682644e-06
0.4760471642 	0.01236185073 	-0.003872345729 	2.816037455e-08 	0.004800612358 	-3.492791874e-08 	9.151301416e-06
0.4762227269 	0.01269136448 	-0.00397538193 	2.848308661e-08 	0.004928431348 	-3.532870131e-08 	9.394959937e-06
0.4764955107 	0.01306508278 	-0.004092198342 	2.884030192e-08 	0.005073360822 	-3.57721162e-08 	9.671235795e-06
0.4767734216 	0.01343654907 	-0.004208150256 	2.918692526e-08 	0.005217150152 	-3.620158698e-08 	9.945338222e-06
0.4770565557 	0.01377223453 	-0.004312844202 	2.949485666e-08 	0.005346970893 	-3.658230442e-08 	1.019281264e-05
0.4773450114 	0.01407516067 	-0.004407277406 	2.976882635e-08 	0.005464113668 	-3.692204038e-08 	1.041611932e-05
0.4776388886 	0.01434814531 	-0.004492296514 	3.001393469e-08 	0.005569604933 	-3.722656661e-08 	1.061721499e-05
0.4779382892 	0.01459378644 	-0.004568716277 	3.023546889e-08 	0.005664439432 	-3.750086751e-08 	1.079799591e-05
0.4782433171 	0.01481445856 	-0.004637284855 	3.043607813e-08 	0.005749543133 	-3.774899658e-08 	1.096022721e-05
0.4785540779 	0.01501231835 	-0.004698678696 	3.061822396e-08 	0.005825756213 	-3.797408453e-08 	1.110551053e-05
0.4788706795 	0.01518931576 	-0.004753509288 	3.078368086e-08 	0.005893837204 	-3.817840361e-08 	1.123529182e-05
0.4791932316 	0.01534720802 	-0.004802327917 	3.093358703e-08 	0.00595446968 	-3.836343861e-08 	1.135087417e-05
0.4795218461 	0.01548757499 	-0.004845630428 	3.106849233e-08 	0.006008268367 	-3.852995018e-08 	1.145342942e-05
0.4798566368 	0.01561183478 	-0.004883862032 	3.118840273e-08 	0.006055785154 	-3.867803125e-08 	1.154400962e-05
0.48019772 	0.01572125905 	-0.004917422044 	3.129282164e-08 	0.006097515002 	-3.880715874e-08 	1.162355831e-05
0.4805452138 	0.01581698744 	-0.004946668403 	3.138078841e-08 	0.006133901557 	-3.891624095e-08 	1.16929212e-05
0.4808992388 	0.01590004107 	-0.00497192187 	3.145091449e-08 	0.006165342373 	-3.900366141e-08 	1.175285613e-05
0.4812599177 	0.0159713348 	-0.004993469877 	3.150141778e-08 	0.006192193691 	-3.906732013e-08 	1.180404221e-05
0.4816273755 	0.01603168842 	-0.005011570021 	3.153015586e-08 	0.006214774763 	-3.910467314e-08 	1.184708801e-05
0.4820017397 	0.01608183667 	-0.0050264532 	3.153465877e-08 	0.006233371752 	-3.911277111e-08 	1.188253904e-05
0.48238314 	0.01612243824 	-0.005038326427 	3.151216177e-08 	0.006248241215 	-3.908829777e-08 	1.191088437e-05
0.4827717088 	0.01615408371 	-0.005047375332 	3.145963857e-08 	0.006259613205 	-3.902760881e-08 	1.193256254e-05
0.4831675807 	0.0161773027 	-0.005053766384 	3.137383517e-08 	0.006267694028 	-3.892677134e-08 	1.194796683e-05
0.4835708931 	0.01619257011 	-0.005057648861 	3.125130415e-08 	0.006272668686 	-3.878160405e-08 	1.195744991e-05
0.4839817856 	0.01620031169 	-0.005059156601 	3.108843989e-08 	0.00627470304 	-3.858771848e-08 	1.196132796e-05
0.4844004009 	0.01620090898 	-0.005058409541 	3.088151403e-08 	0.006273945725 	-3.834056085e-08 	1.19598843e-05
0.4848268841 	0.01619470362 	-0.005055515087 	3.062671102e-08 	0.006270529846 	-3.803545415e-08 	1.195337269e-05
0.485261383 	0.01618200118 	-0.005050569328 	3.032016314e-08 	0.006264574474 	-3.766763994e-08 	1.19420201e-05
0.4857040484 	0.0161630746 	-0.005043658102 	2.995798462e-08 	0.006256185978 	-3.723231946e-08 	1.192602929e-05
0.4861550336 	0.01613816714 	-0.005034857955 	2.953630408e-08 	0.006245459202 	-3.672469301e-08 	1.190558107e-05
0.4866144951 	0.01610749506 	-0.00502423698 	2.905129471e-08 	0.00623247851 	-3.613999711e-08 	1.188083627e-05
0.4870825921 	0.01607125002 	-0.005011855572 	2.849920161e-08 	0.006217318719 	-3.547353861e-08 	1.185193749e-05
0.487559487 	0.01602960112 	-0.004997767098 	2.787636555e-08 	0.006200045924 	-3.472072495e-08 	1.181901075e-05
0.4880453452 	0.0159826968 	-0.00498201849 	2.717924279e-08 	0.00618071824 	-3.387708996e-08 	1.178216681e-05
0.4885403351 	0.01593066652 	-0.00496465078 	2.640442055e-08 	0.006159386455 	-3.293831473e-08 	1.17415025e-05
0.4890446283 	0.01587362224 	-0.004945699576 	2.554862769e-08 	0.006136094626 	-3.190024296e-08 	1.16971018e-05
0.4895583997 	0.01581165977 	-0.004925195489 	2.46087406e-08 	0.006110880602 	-3.075889055e-08 	1.164903686e-05
0.4900818274 	0.01574485995 	-0.004903164509 	2.358178414e-08 	0.006083776496 	-2.951044921e-08 	1.15973689e-05
0.4906150929 	0.01567328976 	-0.00487962835 	2.246492765e-08 	0.006054809107 	-2.815128404e-08 	1.1542149e-05
0.4911583811 	0.01559700326 	-0.004854604757 	2.125547631e-08 	0.006024000299 	-2.667792524e-08 	1.148341885e-05
0.4917118805 	0.01551604251 	-0.004828107771 	1.995085809e-08 	0.005991367342 	-2.508705448e-08 	1.142121137e-05
0.4922757829 	0.01543043831 	-0.004800147981 	1.854860727e-08 	0.005956923209 	-2.337548689e-08 	1.135555128e-05
0.4928502838 	0.01534021097 	-0.004770732738 	1.704634552e-08 	0.005920676853 	-2.154015007e-08 	1.128645565e-05
0.4934355824 	0.01524537091 	-0.004739866352 	1.544176248e-08 	0.005882633448 	-1.957806223e-08 	1.121393435e-05
0.4940318817 	0.01514591929 	-0.004707550267 	1.373259769e-08 	0.00584279461 	-1.748631175e-08 	1.113799045e-05
0.4946393885 	0.01504184849 	-0.00467378322 	1.191662635e-08 	0.005801158594 	-1.526204028e-08 	1.105862063e-05
0.4952583133 	0.01493314268 	-0.004638561387 	9.991650209e-09 	0.005757720475 	-1.290243118e-08 	1.09758155e-05
0.4958888709 	0.01481977821 	-0.004601878517 	7.955494499e-09 	0.005712472322 	-1.040470354e-08 	1.088955994e-05
0.4965312797 	0.01470172405 	-0.004563726059 	5.80600988e-09 	0.00566540335 	-7.766110784e-09 	1.07998334e-05
0.4971857627 	0.01457894222 	-0.004524093288 	3.541077184e-09 	0.00561650008 	-4.983941776e-09 	1.070661018e-05
0.4978525466 	0.01445138814 	-0.004482967421 	1.158611866e-09 	0.005565746485 	-2.055521574e-09 	1.060985972e-05
0.4985318627 	0.01431901099 	-0.004440333737 	-1.343434475e-09 	0.005513124133 	1.021790006e-09 	1.050954689e-05
0.4992239466 	0.01418175404 	-0.004396175691 	-3.967076546e-09 	0.005458612328 	4.250602195e-09 	1.040563224e-05
0.4999290382 	0.01403955486 	-0.004350475008 	-6.714300601e-09 	0.005402188222 	7.633497782e-09 	1.029807221e-05
0.5006473819 	0.01389234541 	-0.00430321176 	-9.587069704e-09 	0.005343826889 	1.117303599e-08 	1.018681929e-05
0.501379227 	0.01374005176 	-0.004254364375 	-1.25873256e-08 	0.005283501328 	1.487175087e-08 	1.0071822e-05
0.502124827 	0.01358259327 	-0.004203909597 	-1.57169834e-08 	0.005221182422 	1.87321389e-08 	9.953024849e-06
0.5028844406 	0.01341988079 	-0.004151822224 	-1.897793762e-08 	0.005156838595 	2.27566666e-08 	9.830367631e-06
0.5036583311 	0.01325181305 	-0.004098073512 	-2.237222104e-08 	0.005090433061 	2.694805918e-08 	9.703780227e-06
0.5044467669 	0.01307827058 	-0.004042627027 	-2.590248725e-08 	0.005021916382 	3.131016842e-08 	9.573168394e-06
0.5052500214 	0.0128991057 	-0.003985447753 	-2.957106424e-08 	0.004951246466 	3.58459034e-08 	9.438451893e-06
0.506068373 	0.01269017207 	-0.003918871439 	-3.387461684e-08 	0.00486895751 	4.116887412e-08 	9.281586271e-06
0.507324668 	0.0124254705 	-0.003834634486 	-3.937136044e-08 	0.004764822686 	4.797203648e-08 	9.083076354e-06
0.5085949819 	0.01212774597 	-0.003739993832 	-4.561680402e-08 	0.004647794526 	5.570856492e-08 	8.859988155e-06
0.5098794711 	0.01182080862 	-0.00364256369 	-5.212848957e-08 	0.004527289296 	6.378142936e-08 	8.630271694e-06
0.5111782938 	0.01150435068 	-0.003542273174 	-5.893075614e-08 	0.004403221607 	7.222097117e-08 	8.393764195e-06
0.5124916099 	0.01117794759 	-0.003439002526 	-6.605549713e-08 	0.004275436652 	8.106665196e-08 	8.150170555e-06
0.5138195812 	0.01084105497 	-0.003332600923 	-7.353424552e-08 	0.004143744998 	9.035599779e-08 	7.899129661e-06
0.5151623712 	0.01049303271 	-0.00322289119 	-8.139580981e-08 	0.004007924756 	1.001304021e-07 	7.64021853e-06
0.5165201452 	0.01013333018 	-0.00310971984 	-8.952320605e-08 	0.003867775543 	1.102564763e-07 	7.373055178e-06
0.5178930705 	0.009762262989 	-0.002993207446 	-9.735913022e-08 	0.003723434246 	1.200365784e-07 	7.097900549e-06
0.5192813161 	0.009381857764 	-0.002874025116 	-1.041823701e-07 	0.003575732791 	1.285575075e-07 	6.816340523e-06
0.520685053 	0.008995320359 	-0.002753207667 	-1.097599439e-07 	0.003425960305 	1.355308885e-07 	6.530832538e-06
0.522104454 	0.008605913238 	-0.002631781571 	-1.141821969e-07 	0.003275392429 	1.410730127e-07 	6.243808318e-06
0.523539694 	0.00821681642 	-0.002510731284 	-1.174134578e-07 	0.003125257333 	1.451339148e-07 	5.957609097e-06
0.5249909497 	0.007831388946 	-0.002391080264 	-1.193154391e-07 	0.002976830681 	1.475458653e-07 	5.674666645e-06
0.5264583998 	0.007453133674 	-0.002273312442 	-1.203453983e-07 	0.002830303891 	1.493005795e-07 	5.395345859e-06
0.527942225 	0.007085522547 	-0.002159494407 	-1.190262418e-07 	0.002689004886 	1.473756943e-07 	5.125990682e-06
0.5294426081 	0.006731093913 	-0.002051582914 	-1.1591464e-07 	0.002556212066 	1.425567412e-07 	4.872850661e-06
0.5309597337 	0.006344515718 	-0.001940810326 	-1.218373808e-07 	0.002461622325 	1.095248315e-07 	4.692536325e-06
0.5324937889 	0.00592736435 	-0.00182550009 	-1.277130645e-07 	0.002399331675 	8.615688872e-08 	4.573793032e-06
0.5340449624 	0.005528662541 	-0.001713464738 	-1.25797788e-07 	0.002333070601 	9.437026672e-08 	4.447481009e-06
0.5356134452 	0.0051473565 	-0.001603763413 	-1.26137688e-07 	0.002261517647 	9.764587147e-08 	4.311081192e-06
0.5371994306 	0.004780748424 	-0.001495257244 	-1.268092435e-07 	0.002185531862 	1.010334445e-07 	4.166231166e-06
0.5388031139 	0.004428159642 	-0.001388655677 	-1.264058543e-07 	0.002107965238 	1.018745919e-07 	4.018367623e-06
0.5404246925 	0.004089536081 	-0.001284079023 	-1.256982791e-07 	0.002029990654 	1.021521082e-07 	3.869726394e-06
0.5420643661 	0.003765559188 	-0.001181738635 	-1.244871511e-07 	0.00195226614 	1.018153845e-07 	3.721561868e-06
0.5437223366 	0.003457169745 	-0.001081903636 	-1.227573101e-07 	0.001875416256 	1.007222897e-07 	3.575064628e-06
0.5453988083 	0.003165450323 	-0.0009848648342 	-1.204900074e-07 	0.001800089697 	9.875523768e-08 	3.431471272e-06
0.5470939875 	0.002891584378 	-0.0008909320659 	-1.17664562e-07 	0.001726978787 	9.582273766e-08 	3.292101557e-06
0.5488080831 	0.00263681238 	-0.0008004255078 	-1.142685532e-07 	0.001656808481 	9.186721096e-08 	3.15833745e-06
0.5505413061 	0.002402370733 	-0.0007136669232 	-1.103023663e-07 	0.001590323348 	8.685805661e-08 	3.031598309e-06
0.5522938699 	0.00218940816 	-0.0006309668905 	-1.057871055e-07 	0.001528268226 	8.079945961e-08 	2.913303999e-06
0.5540659904 	0.001998881582 	-0.00055260787 	-1.007714174e-07 	0.001471358894 	7.37434766e-08 	2.804818996e-06
0.5558578859 	0.001831437983 	-0.0004788239122 	-9.533662361e-08 	0.001420241297 	6.580454244e-08 	2.707374648e-06
0.5576697768 	0.001687295012 	-0.0004097790549 	-8.959787096e-08 	0.001375439916 	5.717170046e-08 	2.621970764e-06
0.5595018865 	0.00156613797 	-0.0003455478184 	-8.369983544e-08 	0.00133729867 	4.812332217e-08 	2.549262948e-06
0.5613544406 	0.001467052768 	-0.0002861011344 	-7.780831242e-08 	0.001305917907 	3.903120387e-08 	2.489442492e-06
0.563227667 	0.001388508035 	-0.0002313021999 	-7.204403134e-08 	0.001281099709 	3.040342519e-08 	2.442132109e-06
0.5651217966 	0.001328754839 	-0.0001809979166 	-6.643221909e-08 	0.001262632159 	2.195830919e-08 	2.406927825e-06
0.5670370626 	0.001286162822 	-0.0001349703034 	-6.113736305e-08 	0.001250569725 	1.326390125e-08 	2.383933473e-06
0.5689737009 	0.001258827429 	-9.28373727e-05 	-5.634093293e-08 	0.001244746935 	5.055673034e-09 	2.372833617e-06
0.5709319499 	0.001244445042 	-5.419836992e-05 	-5.201782999e-08 	0.001244476241 	-2.052394419e-09 	2.3723176e-06
0.5729120508 	0.001240715137 	-1.869026928e-05 	-4.815129865e-08 	0.001248907501 	-8.05867984e-09 	2.380764812e-06
0.5749142474 	0.001245570073 	1.405250702e-05 	-4.474731398e-08 	0.00125724285 	-1.303531587e-08 	2.396654305e-06
0.5769387863 	0.001257221919 	4.438021748e-05 	-4.177558908e-08 	0.001268755782 	-1.708087427e-08 	2.418601152e-06
0.5789859169 	0.001274168491 	7.261365496e-05 	-3.919181076e-08 	0.001282799215 	-2.030498592e-08 	2.44537184e-06
0.5810558911 	0.00129517505 	9.903745813e-05 	-3.694463024e-08 	0.001298808286 	-2.281988614e-08 	2.475889578e-06
0.583148964 	0.001319243092 	0.0001238987105 	-3.498168198e-08 	0.00131629913 	-2.473430905e-08 	2.509231988e-06
0.5852653933 	0.001345574572 	0.0001474086218 	-3.325372018e-08 	0.001334863764 	-2.614922302e-08 	2.544621341e-06
0.5874054395 	0.001373537014 	0.0001697459919 	-3.171723584e-08 	0.001354162669 	-2.715562055e-08 	2.581410418e-06
0.5895693664 	0.001402632466 	0.0001910615334 	-3.033572863e-08 	0.001373916456 	-2.783351702e-08 	2.619066625e-06
0.5917574402 	0.001432471308 	0.0002114823838 	-2.907991525e-08 	0.001393897527 	-2.825160555e-08 	2.657156101e-06
0.5939699306 	0.00146275075 	0.0002311163696 	-2.79272168e-08 	0.001413922148 	-2.846732912e-08 	2.695328594e-06
0.5962071099 	0.001493237379 	0.0002500557723 	-2.686083949e-08 	0.001433843116 	-2.8527354e-08 	2.733303494e-06
0.5984692536 	0.00152375305 	0.0002683804879 	-2.586869209e-08 	0.001453543138 	-2.846845545e-08 	2.770857212e-06
0.6007566404 	0.001554163497 	0.0002861605675 	-2.494230904e-08 	0.001472928999 	-2.831874522e-08 	2.807812051e-06
0.6030695519 	0.001584369195 	0.0003034581915 	-2.407588233e-08 	0.001491926561 	-2.809909194e-08 	2.844026685e-06
0.6054082729 	0.001614298064 	0.0003203291618 	-2.326545241e-08 	0.001510476607 	-2.782456544e-08 	2.879388229e-06
0.6077730914 	0.001643899687 	0.0003368240075 	-2.250827031e-08 	0.00152853147 	-2.750576994e-08 	2.913805815e-06
0.6101642987 	0.001673140759 	0.0003529887934 	-2.180231993e-08 	0.001546052368 	-2.714998706e-08 	2.947205516e-06
0.6125821893 	0.001702001521 	0.0003688657082 	-2.114597698e-08 	0.001563007344 	-2.676210096e-08 	2.979526412e-06
0.6150270608 	0.001730472976 	0.0003844934933 	-2.053777741e-08 	0.001579369689 	-2.634531408e-08 	3.01071759e-06
0.6174992144 	0.001758554722 	0.0003999077584 	-1.997626912e-08 	0.001595116765 	-2.590168099e-08 	3.040735894e-06
0.6199989545 	0.001786253251 	0.0004151412172 	-1.945992398e-08 	0.001610229121 	-2.543249479e-08 	3.069544245e-06
0.622526589 	0.001813580621 	0.000430223867 	-1.898709153e-08 	0.001624689848 	-2.493855956e-08 	3.09711041e-06
0.625082429 	0.001840553402 	0.0004451831294 	-1.855598003e-08 	0.001638484097 	-2.442037842e-08 	3.123406082e-06
0.6276667894 	0.001867191838 	0.0004600439622 	-1.816465404e-08 	0.001651598729 	-2.387828071e-08 	3.148406215e-06
0.6302799884 	0.001893519169 	0.0004748289517 	-1.78110412e-08 	0.001664022055 	-2.331250663e-08 	3.172088528e-06
0.6329223478 	0.001919561071 	0.0004895583895 	-1.749294331e-08 	0.001675743646 	-2.272326261e-08 	3.194433137e-06
0.6355941931 	0.001945345197 	0.0005042503384 	-1.720804894e-08 	0.001686754188 	-2.211075706e-08 	3.215422292e-06
0.6382958531 	0.00197090078 	0.0005189206891 	-1.695394605e-08 	0.001697045385 	-2.147522303e-08 	3.235040173e-06
0.6410276607 	0.001996258292 	0.0005335832104 	-1.672813423e-08 	0.001706609877 	-2.081693225e-08 	3.253272753e-06
0.6437899523 	0.002021449145 	0.0005482495939 	-1.652803659e-08 	0.001715441197 	-2.013620373e-08 	3.270107704e-06
0.646583068 	0.00204650542 	0.0005629294935 	-1.635101145e-08 	0.001723533743 	-1.943340915e-08 	3.285534346e-06
0.6494073518 	0.002071459617 	0.0005776305612 	-1.619436412e-08 	0.001730882771 	-1.87089766e-08 	3.299543636e-06
0.6522631514 	0.002096344417 	0.0005923584786 	-1.605535868e-08 	0.001737484413 	-1.796339448e-08 	3.312128199e-06
0.6551508186 	0.002121192458 	0.0006071169845 	-1.593122953e-08 	0.001743335711 	-1.719721652e-08 	3.323282401e-06
0.658070709 	0.002146036104 	0.0006219078985 	-1.581919247e-08 	0.001748434684 	-1.641106939e-08 	3.33300246e-06
0.6610231822 	0.002170907216 	0.0006367311402 	-1.571645464e-08 	0.001752780407 	-1.560566371e-08 	3.341286616e-06
0.6640086017 	0.002195836914 	0.0006515847452 	-1.562022305e-08 	0.001756373129 	-1.478180932e-08 	3.348135343e-06
0.6670273351 	0.002220855321 	0.0006664648764 	-1.552771146e-08 	0.001759214413 	-1.394043527e-08 	3.353551619e-06
0.6700797543 	0.002245991299 	0.0006813658343 	-1.543614553e-08 	0.001761307304 	-1.30826144e-08 	3.357541252e-06
0.6731662352 	0.002271272164 	0.0006962800639 	-1.534276673e-08 	0.001762656534 	-1.220959228e-08 	3.360113259e-06
0.6762871577 	0.002296723377 	0.0007111981641 	-1.524483585e-08 	0.001763268752 	-1.132281951e-08 	3.361280317e-06
0.6794429063 	0.002322368215 	0.0007261088991 	-1.513963707e-08 	0.001763152789 	-1.042398595e-08 	3.361059258e-06
0.6826338695 	0.002348227431 	0.0007409992159 	-1.502448435e-08 	0.001762319949 	-9.515055249e-09 	3.359471635e-06
0.6858604404 	0.002374318876 	0.0007558542722 	-1.489673169e-08 	0.001760784339 	-8.598297328e-09 	3.356544335e-06
0.6891230163 	0.002400657124 	0.0007706574774 	-1.475378908e-08 	0.001758563213 	-7.676316345e-09 	3.352310251e-06
0.6924219988 	0.002427253073 	0.0007853905527 	-1.459314605e-08 	0.001755677349 	-6.752071307e-09 	3.346808993e-06
0.6957577944 	0.002454113537 	0.0008000336132 	-1.441240417e-08 	0.001752151448 	-5.828886217e-09 	3.340087646e-06
0.6991308138 	0.002481240849 	0.0008145652782 	-1.420931999e-08 	0.001748014542 	-4.910446476e-09 	3.332201552e-06
0.7025414724 	0.002508632458 	0.0008289628129 	-1.398185894e-08 	0.001743300411 	-4.000778025e-09 	3.323215109e-06
0.7059901901 	0.002536280557 	0.0008432023067 	-1.372826051e-08 	0.001738048007 	-3.10420558e-09 	3.313202567e-06
0.7094773917 	0.002564171737 	0.0008572588906 	-1.344711411e-08 	0.001732301859 	-2.225286228e-09 	3.302248811e-06
0.7130035066 	0.002592286693 	0.0008711069973 	-1.313744442e-08 	0.001726112454 	-1.36871467e-09 	3.290450085e-06
0.7165689691 	0.002620599997 	0.0008847206646 	-1.279880421e-08 	0.00171953658 	-5.391971746e-10 	3.277914643e-06
0.7201742182 	0.002649079961 	0.0008980738852 	-1.243137103e-08 	0.001712637603 	2.587081387e-10 	3.264763274e-06
0.7238196978 	0.002677688598 	0.0009111409655 	-1.203604701e-08 	0.001705485626 	1.020778046e-09 	3.251129618e-06
0.727505857 	0.002706381629 	0.000923896991 	-1.161455407e-08 	0.001698157906 	1.743366525e-09 	3.237160947e-06
0.7312331497 	0.002735108559 	0.0009363182064 	-1.116951974e-08 	0.001690739004 	2.423707604e-09 	3.223018459e-06
0.7350020349 	0.002763735232 	0.0009483502041 	-1.070593816e-08 	0.001683341048 	3.058734707e-09 	3.208915899e-06
0.7387709215 	0.002791963849 	0.0009598803897 	-1.023267115e-08 	0.001676120692 	3.644002094e-09 	3.195151893e-06
0.7424982157 	0.002819515265 	0.0009708181641 	-9.759255323e-09 	0.001669224658 	4.177825999e-09 	3.182006135e-06
0.7461843763 	0.002846286792 	0.0009811528164 	-9.292841324e-09 	0.001662747701 	4.664135776e-09 	3.169659254e-06
0.7498298574 	0.002872253311 	0.000990906154 	-8.839473873e-09 	0.001656759004 	5.109704391e-09 	3.158243134e-06
0.7534351078 	0.002897394901 	0.001000101903 	-8.405057803e-09 	0.001651320057 	5.522147369e-09 	3.14787499e-06
0.7570005716 	0.002921697503 	0.0010087654 	-7.99521166e-09 	0.001646484305 	5.909594246e-09 	3.138656702e-06
0.7605266877 	0.002945153274 	0.001016923141 	-7.615135016e-09 	0.001642296851 	6.280338225e-09 	3.13067425e-06
0.7640138905 	0.002967760704 	0.001024602398 	-7.269489719e-09 	0.001638794577 	6.642479924e-09 	3.123997942e-06
0.7674626093 	0.002989524537 	0.001031830816 	-6.962301895e-09 	0.001636006356 	7.003563446e-09 	3.11868282e-06
0.770873269 	0.003010455552 	0.001038636039 	-6.696884303e-09 	0.001633953386 	7.370233195e-09 	3.114769288e-06
0.7742462894 	0.003030570215 	0.001045045382 	-6.475780099e-09 	0.001632649618 	7.7479333e-09 	3.112283943e-06
0.777582086 	0.003049890256 	0.00105108554 	-6.30072769e-09 	0.001632102269 	8.140666532e-09 	3.111240544e-06
0.7808810695 	0.003068442196 	0.001056782368 	-6.172646569e-09 	0.001632312381 	8.550826627e-09 	3.111641076e-06
0.7841436462 	0.003086256857 	0.00106216071 	-6.091641259e-09 	0.001633275401 	8.979112769e-09 	3.113476859e-06
0.787370218 	0.003103368898 	0.001067244296 	-6.057020643e-09 	0.001634981768 	9.424527611e-09 	3.116729669e-06
0.7905611821 	0.003119816397 	0.001072055702 	-6.067330806e-09 	0.001637417475 	9.884455216e-09 	3.121372805e-06
0.7937169314 	0.003135640497 	0.001076616374 	-6.120398226e-09 	0.001640564596 	1.035481048e-08 	3.127372092e-06
0.7968378547 	0.003150885138 	0.001080946703 	-6.21338087e-09 	0.001644401765 	1.083024839e-08 	3.134686802e-06
0.7999243362 	0.003165596858 	0.00108506615 	-6.342825102e-09 	0.001648904612 	1.130441854e-08 	3.143270481e-06
0.8029767561 	0.003179824673 	0.00108899341 	-6.504726563e-09 	0.001654046156 	1.177024948e-08 	3.153071692e-06
0.8059954902 	0.003193620022 	0.001092746611 	-6.694593617e-09 	0.001659797156 	1.222024757e-08 	3.164034696e-06
0.8089809102 	0.003207036759 	0.001096343535 	-6.907512289e-09 	0.001666126439 	1.264679603e-08 	3.176100069e-06
0.8119333839 	0.003220131196 	0.001099801849 	-7.138211821e-09 	0.001673001207 	1.304244151e-08 	3.189205287e-06
0.8148532749 	0.003232962156 	0.001103139352 	-7.381130169e-09 	0.001680387335 	1.340015763e-08 	3.2032853e-06
0.8177409426 	0.003245591051 	0.001106374206 	-7.630478764e-09 	0.001688249673 	1.371357753e-08 	3.218273101e-06
0.8205967427 	0.003258081966 	0.001109525174 	-7.880305921e-09 	0.001696552348 	1.39771897e-08 	3.234100308e-06
0.8234210268 	0.003270501733 	0.001112611836 	-8.124558213e-09 	0.001705259083 	1.418649407e-08 	3.250697765e-06
0.8262141429 	0.00328292002 	0.001115654793 	-8.357139106e-09 	0.00171433352 	1.433811742e-08 	3.267996163e-06
0.8289764348 	0.003295409404 	0.001118675842 	-8.571964151e-09 	0.001723739557 	1.442988925e-08 	3.285926683e-06
0.8317082427 	0.00330804546 	0.001121698145 	-8.763012055e-09 	0.001733441697 	1.446088079e-08 	3.30442166e-06
0.8344099031 	0.003320906847 	0.001124746354 	-8.924371055e-09 	0.001743405399 	1.443141123e-08 	3.323415245e-06
0.8370817486 	0.003334075412 	0.001127846734 	-9.050280132e-09 	0.001753597426 	1.434302595e-08 	3.342844082e-06
0.8397241082 	0.003347636311 	0.001131027247 	-9.135164791e-09 	0.001763986199 	1.419845196e-08 	3.36264797e-06
0.8423373074 	0.003361678154 	0.001134317622 	-9.173667278e-09 	0.001774542137 	1.400153603e-08 	3.382770521e-06
0.844921668 	0.003376293177 	0.001137749405 	-9.160671377e-09 	0.001785237988 	1.375717041e-08 	3.403159786e-06
0.8474775082 	0.003391577444 	0.001141355986 	-9.091322051e-09 	0.001796049152 	1.347121101e-08 	3.423768869e-06
0.8500051427 	0.00340763108 	0.001145172617 	-8.961040384e-09 	0.001806953981 	1.31503917e-08 	3.444556504e-06
0.8525048829 	0.00342455854 	0.001149236406 	-8.765534419e-09 	0.001817934067 	1.280223807e-08 	3.465487601e-06
0.8549770366 	0.003442468898 	0.001153586303 	-8.500806549e-09 	0.001828974515 	1.243498292e-08 	3.486533762e-06
0.8574219081 	0.003461476168 	0.00115826307 	-8.163158175e-09 	0.001840064188 	1.205748486e-08 	3.507673763e-06
0.8598397987 	0.003481699639 	0.001163309244 	-7.749192333e-09 	0.001851195949 	1.167915051e-08 	3.528893993e-06
0.862231006 	0.003503264227 	0.001168769084 	-7.255814969e-09 	0.00186236687 	1.130986026e-08 	3.550188873e-06
0.8645958245 	0.003526300819 	0.001174688509 	-6.680235423e-09 	0.001873578431 	1.095989649e-08 	3.571561224e-06
0.8669345455 	0.003550946612 	0.001181115021 	-6.019966608e-09 	0.001884836697 	1.063987274e-08 	3.593022607e-06
0.8692474569 	0.003577345425 	0.001188097627 	-5.272825231e-09 	0.001896152473 	1.036066155e-08 	3.614593623e-06
0.8715348435 	0.003605647979 	0.001195686731 	-4.436932299e-09 	0.00190754144 	1.013331859e-08 	3.636304158e-06
0.8737969871 	0.003636012106 	0.001203934028 	-3.510714078e-09 	0.001919024255 	9.969000014e-09 	3.658193595e-06
0.8760341663 	0.003668602899 	0.001212892368 	-2.492903529e-09 	0.001930626635 	9.878870283e-09 	3.680310956e-06
0.8782466565 	0.003703592755 	0.001222615615 	-1.382542358e-09 	0.001942379395 	9.873997366e-09 	3.702714983e-06
0.8804347301 	0.003741161309 	0.001233158478 	-1.789837818e-10 	0.00195431845 	9.965233023e-09 	3.72547414e-06
0.8825986568 	0.003781495226 	0.001244576321 	1.118103596e-09 	0.001966484773 	1.01630765e-08 	3.748666534e-06
0.8847387028 	0.00382478783 	0.001256924952 	2.508730275e-09 	0.001978924298 	1.047752115e-08 	3.772379726e-06
0.8868551318 	0.003871238554 	0.001270260381 	3.992577657e-09 	0.001991687766 	1.091788537e-08 	3.796710444e-06
0.8889482045 	0.00392105218 	0.001284638558 	5.568985733e-09 	0.00200483051 	1.149263134e-08 	3.821764166e-06
0.8910181784 	0.00397443785 	0.001300115072 	7.236934614e-09 	0.00201841217 	1.220917819e-08 	3.847654584e-06
0.8930653087 	0.00403160783 	0.00131674482 	8.995017528e-09 	0.002032496351 	1.307371872e-08 	3.874502948e-06
0.8950898473 	0.00409277602 	0.00133458165 	1.084140238e-08 	0.002047150214 	1.40910525e-08 	3.902437284e-06
0.8970920436 	0.004158156175 	0.001353677956 	1.277377924e-08 	0.002062444014 	1.526445045e-08 	3.931591517e-06
0.8990721441 	0.004227959857 	0.001374084251 	1.478929145e-08 	0.002078450603 	1.659556774e-08 	3.962104524e-06
0.9010303927 	0.004302394096 	0.001395848704 	1.688444986e-08 	0.002095244911 	1.808442178e-08 	3.994119144e-06
0.9029670306 	0.004381658796 	0.001419016645 	1.905503183e-08 	0.002112903433 	1.972944955e-08 	4.027781194e-06
0.9048822962 	0.004465943885 	0.001443630048 	2.129597123e-08 	0.002131503735 	2.152765166e-08 	4.063238541e-06
0.9067764254 	0.004555426275 	0.001469727011 	2.360125104e-08 	0.002151124023 	2.347481926e-08 	4.100640261e-06
0.9086496514 	0.004650266704 	0.001497341228 	2.596381738e-08 	0.002171842755 	2.556582052e-08 	4.140135923e-06
0.910502205 	0.004750606551 	0.0015265015 	2.837554078e-08 	0.002193738325 	2.779489879e-08 	4.181874966e-06
0.9123343142 	0.004856564767 	0.001557231303 	3.08272542e-08 	0.002216888768 	3.015590582e-08 	4.226006145e-06
0.9141462048 	0.004968235084 	0.001589548436 	3.330889342e-08 	0.002241371449 	3.264237634e-08 	4.272676939e-06
0.9159380997 	0.005085683645 	0.001623464791 	3.580974892e-08 	0.00226726268 	3.524735745e-08 	4.322032822e-06
0.9177102197 	0.005208947187 	0.001658986245 	3.83188105e-08 	0.002294637223 	3.796295462e-08 	4.374216308e-06
0.9194627831 	0.005338031827 	0.001696112665 	4.082515372e-08 	0.002323567659 	4.077963701e-08 	4.429365761e-06
0.9211960055 	0.005472912407 	0.001734838005 	4.331829434e-08 	0.002354123683 	4.368543362e-08 	4.487614034e-06
0.9229101006 	0.005613532288 	0.001775150461 	4.578845096e-08 	0.002386371429 	4.666522135e-08 	4.549087201e-06
0.9246052793 	0.005759803435 	0.001817032628 	4.822666095e-08 	0.002420372942 	4.970023404e-08 	4.613903535e-06