0.4709558481 	0.1901343956 	0.001452815311 	-6.789933414e-09
0.4720092239 	0.7176675839 	0.0002900204336 	7.671160603e-09
0.4730625996 	1.306282168 	-0.002490153514 	1.440726143e-08
0.4741159754 	1.667398796 	-0.0007856004706 	-7.776124101e-09
0.4751693511 	1.86774679 	0.0008431622283 	-9.583886477e-09
0.4762227269 	2.009710054 	0.0002637316344 	-4.786302067e-09
0.4778443634 	2.13141147 	0.0001397388085 	-8.140151882e-09
0.4796765386 	2.232305685 	0.0001401075297 	-1.181355086e-08
0.4817465869 	2.315879372 	7.077082272e-05 	-1.617138136e-08
0.4840853915 	2.387905277 	0.0001136222117 	-2.152222429e-08
0.4867278453 	2.451883361 	0.000138041815 	-2.787026197e-08
0.4897133715 	2.509960726 	0.0001699013276 	-3.530015128e-08
0.4930865115 	2.563548318 	0.0002042864009 	-4.375069514e-08
0.4968975894 	2.613587757 	0.000249949661 	-5.31989106e-08
0.5012034633 	2.660722899 	0.0002920175959 	-6.352705167e-08
0.506068373 	2.709180912 	0.0003407662489 	-7.543478926e-08
0.5134203412 	2.760022861 	0.0004335282223 	-8.948205815e-08
0.5212948542 	2.807168733 	0.0005216800265 	-1.049194052e-07
0.529729052 	2.848085368 	0.0005987326933 	-1.21368391e-07
0.5387627144 	2.883642603 	0.0006898825051 	-1.387322733e-07
0.5484384488 	2.914417459 	0.0007749213571 	-1.566157162e-07
0.5588018907 	2.940809339 	0.0008538738145 	-1.745308355e-07
0.5699019192 	2.963133865 	0.0009219986804 	-1.920551314e-07
0.5817908876 	2.981671157 	0.0009758532976 	-2.0918997e-07
0.5945248701 	2.996689294 	0.001012554157 	-2.264838174e-07
0.6081639266 	3.008445451 	0.001031004454 	-2.446762046e-07
0.6227723857 	3.017173142 	0.001031454172 	-2.641119052e-07
0.638419148 	3.023063073 	0.001014528177 	-2.84386963e-07
0.6551780116 	3.026243409 	0.0009803334437 	-3.044135015e-07
0.6731280194 	3.02676098 	0.0009284550791 	-3.227302395e-07
0.6923538328 	3.024561007 	0.0008585595235 	-3.378393958e-07
0.7129461301 	3.019459907 	0.0007711473392 	-3.484663728e-07
0.7350020349 	3.011268515 	0.0006702509671 	-3.538197929e-07
0.7570579485 	3.000239199 	0.0005655289532 	-3.539955101e-07
0.7776502527 	2.987012909 	0.0004663634336 	-3.498061669e-07
0.7968760713 	2.971989614 	0.0003766981784 	-3.419354673e-07
0.814826083 	2.955290125 	0.0002976219754 	-3.307757312e-07
0.831584949 	2.9369596 	0.0002295776822 	-3.167247643e-07
0.8472317127 	2.916991297 	0.000172522183 	-3.003048263e-07
0.8618401721 	2.895340053 	0.0001259309656 	-2.821348402e-07
0.8754792281 	2.871928816 	8.89282599e-05 	-2.628455844e-07
0.8882132094 	2.846649597 	6.038992624e-05 	-2.42998132e-07
0.9001021759 	2.81935915 	3.90908839e-05 	-2.230324806e-07
0.9112022019 	2.789868713 	2.366169208e-05 	-2.032493116e-07
0.9215656407 	2.757926601 	1.326310667e-05 	-1.838171934e-07
0.9312413717 	2.72318973 	6.175938778e-06 	-1.64793208e-07
0.9402750304 	2.685182109 	4.632785048e-06 	-1.461559677e-07
0.9487092242 	2.643217489 	-8.107867417e-06 	-1.278361119e-07
0.9565837329 	2.59630582 	-7.809171873e-06 	-1.097618833e-07
0.9639356968 	2.546764788 	7.570432891e-06 	-9.329058752e-08
0.9688006083 	2.50011383 	-1.803660558e-06 	-8.006051199e-08
0.9731064834 	2.454994522 	-7.017523976e-06 	-6.910309312e-08
0.976917562 	2.407250049 	-2.70881495e-06 	-5.915728508e-08
0.9802907021 	2.356184014 	-4.18009822e-06 	-5.01316574e-08
0.9832762282 	2.300827648 	-3.387020376e-06 	-4.198823862e-08
0.9859186816 	2.239766425 	-5.384974981e-06 	-3.468117401e-08
0.9882574856 	2.170873514 	1.332588532e-05 	-2.815163782e-08
0.990327533 	2.090701687 	-7.775781806e-05 	-2.238324112e-08
0.9921597073 	1.993567552 	-0.000104366979 	-1.723131443e-08
0.9937813429 	1.875894528 	-0.0002603804136 	-1.298010698e-08
0.9948347186 	1.738075984 	-0.0006876011351 	-1.023108976e-08
0.9958880943 	1.542713312 	0.0009107500015 	-6.927488562e-09
0.9969414701 	1.196086915 	0.002126997298 	-2.411273428e-09
0.9979948458 	0.6504556293 	-0.0004544567902 	-9.490277015e-10
0.9990482216 	0.1884598085 	-0.00141057145 	-9.481280276e-10
0.9990482216 	0.1884598085 	-0.00141057145 	-9.481280276e-10
