4.166797561e-36 	0.6269922058 	-4.230912594e-14 	1.190362349e-17
0.001882306041 	0.6271643108 	-0.001789148445 	1.375915087e-05
0.003764590556 	0.6277824975 	-0.003573928435 	2.80984274e-05
0.005646853463 	0.6288883052 	-0.005208563689 	4.029660477e-05
0.007529094743 	0.6304006232 	-0.006880944204 	5.21422479e-05
0.009411314447 	0.6326190737 	-0.008814693569 	6.554323356e-05
0.01230888652 	0.63619105 	-0.01129871668 	8.157986268e-05
0.01558259296 	0.6414823813 	-0.01424817318 	9.949677911e-05
0.01928125303 	0.6487999161 	-0.01755788128 	0.0001180321037
0.02348538385 	0.6587232054 	-0.02127268675 	0.0001369047325
0.02824139099 	0.671920968 	-0.02542162184 	0.0001555883033
0.03361474634 	0.6891715549 	-0.03002503066 	0.0001733258434
0.03968556905 	0.7114365467 	-0.03510795291 	0.0001891776267
0.04658836433 	0.7398399335 	-0.04068145403 	0.0002017952508
0.0543897936 	0.775592499 	-0.04671195839 	0.0002095993473
0.06322334345 	0.82475168 	-0.0537578146 	0.0002128387768
0.07662502217 	0.8944192095 	-0.06196719339 	0.0001985172771
0.0910400846 	0.9814945513 	-0.07025271751 	0.0001742413487
0.1065326275 	1.081388761 	-0.07789031931 	0.0001402582824
0.1231893535 	1.193376877 	-0.08472628739 	9.841599126e-05
0.1411004821 	1.315987445 	-0.09058707629 	5.070267762e-05
0.1601313758 	1.445287696 	-0.0952841668 	4.083284846e-06
0.1603602305 	1.446825037 	-0.09534149351 	6.464381493e-07
0.181067345 	1.580950957 	-0.09899234136 	5.824624036e-05
0.2033256789 	1.716318063 	-0.1014646894 	0.0001197469735
0.2272448124 	1.847908317 	-0.1026855999 	0.0001811745371
0.2529407134 	1.970572393 	-0.1026176391 	0.0002384125735
0.280537575 	2.080115524 	-0.1013042007 	0.0002879489937
0.3101788018 	2.174509039 	-0.09888421812 	0.0003273114627
0.341991698 	2.254231561 	-0.09554460061 	0.0003553282404
0.3761334987 	2.321048787 	-0.09142077223 	0.0003718247787
0.4127592716 	2.376073402 	-0.08652496658 	0.0003769008484
0.4520368631 	2.419002188 	-0.08084057219 	0.0003709158353
0.4941463394 	2.44862365 	-0.07453469605 	0.0003556244179
0.5362843642 	2.46444831 	-0.06804788907 	0.0003337789204
0.5756432866 	2.46872701 	-0.06178864879 	0.0003087729379
0.6123999578 	2.464790314 	-0.05589951654 	0.0002830282155
0.6467227457 	2.455058583 	-0.05040535277 	0.0002578293995
0.6787708094 	2.440949028 	-0.04529453288 	0.0002339301036
0.708693935 	2.423190263 	-0.04053505816 	0.0002116470043
0.7366321921 	2.402097427 	-0.03609113131 	0.000191039648
0.7627169818 	2.377749419 	-0.03193050669 	0.0001720500381
0.7870710604 	2.350091666 	-0.02802674963 	0.0001545587495
0.8098091487 	2.318993409 	-0.02435926079 	0.0001384174079
0.8310384246 	2.284277286 	-0.02091343059 	0.0001234649656
0.8508589793 	2.245732146 	-0.0176801444 	0.000109534754
0.8693642773 	2.203115038 	-0.0146574277 	9.646510927e-05
0.8866415892 	2.156149454 	-0.01184687321 	8.409597908e-05
0.902772399 	2.104510962 	-0.009269164149 	7.230598175e-05
0.9178327855 	2.047825397 	-0.006925477788 	6.095111996e-05
0.9318937798 	1.990033001 	-0.00498112246 	5.066371214e-05
0.9411981638 	1.938247966 	-0.003598151591 	4.237279175e-05
0.949433363 	1.890889845 	-0.002585574726 	3.549145464e-05
0.9567222395 	1.843877583 	-0.001786118745 	2.935818928e-05
0.963173537 	1.797083135 	-0.001180870492 	2.400277315e-05
0.9688835034 	1.750140266 	-0.0007382602082 	1.940967856e-05
0.9739373264 	1.702347047 	-0.0004327534009 	1.554629434e-05
0.9784104047 	1.652514067 	-0.0002222259878 	1.235414225e-05
0.982369473 	1.598599266 	-0.000140785864 	9.732849271e-06
0.985873597 	1.537102493 	-8.043683804e-05 	7.610891536e-06
0.9889750553 	1.465509737 	-0.000101389934 	5.956655297e-06
0.9909896885 	1.382519956 	-0.0007114345428 	4.86083443e-06
0.9930043218 	1.262586439 	0.0001975569116 	3.849349757e-06
0.9950189551 	1.02121239 	0.002324911949 	1.47583214e-06
0.9970335883 	0.5693727993 	0.0001738253705 	8.818329911e-08
0.9990482216 	0.1619313426 	-0.001527512487 	2.524400372e-07
0.9990482216 	0.1619313426 	-0.001527512487 	2.524400372e-07
