0.3524915403 	4.025219284e-05 	-3.105750193e-06 	6.154493272e-09 	3.817343491e-05 	-6.178569541e-08 	7.27691767e-08
0.3536068642 	0.003908030117 	-0.00146997595 	3.565338159e-06 	0.003104349899 	-5.981296611e-06 	5.917753716e-06
0.3547223496 	0.02240876717 	-0.01059508093 	1.484550553e-05 	0.01749529035 	-1.864884239e-05 	3.335088597e-05
0.3558378442 	0.03954293041 	-0.01924969275 	1.70199954e-05 	0.03082266743 	-1.772087367e-05 	5.875657083e-05
0.3569531967 	0.04194653935 	-0.02032142534 	8.670992691e-06 	0.03303433725 	-4.642259354e-06 	6.297262822e-05
0.3580682569 	0.04104402596 	-0.02013058181 	1.967594888e-06 	0.03255556835 	7.130364251e-06 	6.205996162e-05
0.35978394 	0.0381460953 	-0.01885946088 	-4.922595363e-06 	0.03027446621 	1.817625859e-05 	5.771154696e-05
0.361720438 	0.03394335681 	-0.0168818084 	-1.143930161e-05 	0.02718036697 	2.449882943e-05 	5.181333384e-05
0.3639049575 	0.02983405437 	-0.01482431784 	-1.681652254e-05 	0.02430840975 	2.327816233e-05 	4.633858516e-05
0.3663674413 	0.02627621071 	-0.01276065186 	-1.816763642e-05 	0.02211984869 	1.26652169e-05 	4.21665795e-05
0.36920096 	0.02342027821 	-0.01085713106 	-1.696060034e-05 	0.02093694279 	-3.612556412e-06 	3.991163208e-05
0.3724184949 	0.02116437624 	-0.009097233347 	-1.501704566e-05 	0.02077991415 	-1.975929712e-05 	3.961229184e-05
0.3760438857 	0.01935371597 	-0.007492517401 	-1.263436322e-05 	0.02148591988 	-3.211260241e-05 	4.095813499e-05
0.3801277765 	0.01783472697 	-0.00600164713 	-1.056357162e-05 	0.02280543604 	-3.9642986e-05 	4.347349954e-05
0.3848143963 	0.01647538607 	-0.004550846317 	-8.910023002e-06 	0.02453823256 	-4.294097387e-05 	4.677669132e-05
0.3901331779 	0.01508100995 	-0.003006194942 	-7.487330379e-06 	0.02673725317 	-4.35312067e-05 	5.096863577e-05
0.3981914987 	0.01354728072 	-0.001212040264 	-5.832400373e-06 	0.02939481977 	-3.982165036e-05 	5.603469635e-05
0.4069277984 	0.01201462647 	0.0007200357928 	-5.257796513e-06 	0.03214305144 	-3.411015096e-05 	6.127358975e-05
0.4163791821 	0.01065013411 	0.002678082066 	-5.231043813e-06 	0.03468018702 	-2.362882482e-05 	6.611007532e-05
0.4265723647 	0.009718599263 	0.004642829065 	-3.287972522e-06 	0.03665772539 	-9.781070884e-06 	6.987981308e-05
0.4375983103 	0.009383842353 	0.006413316193 	-2.723465754e-07 	0.03782772614 	-1.249954569e-06 	7.211015969e-05
0.4495688352 	0.009490917064 	0.0077363345 	9.6025752e-07 	0.03826412156 	5.849912707e-07 	7.294205066e-05
0.4609124074 	0.009715594781 	0.008435831603 	2.892361297e-06 	0.03828162133 	-5.774109742e-06 	7.297541009e-05
0.4625033521 	0.009747255504 	0.00853446125 	1.325901923e-07 	0.03828279085 	7.58427307e-08 	7.297763952e-05
0.4764361663 	0.009934117303 	0.00896993713 	2.077471687e-06 	0.03826845772 	8.393219182e-07 	7.295031658e-05
0.4915177733 	0.01008705426 	0.009256334242 	4.604308763e-06 	0.03831767732 	1.348510316e-06 	7.304414282e-05
0.5078705597 	0.01024571038 	0.009509474626 	6.725459306e-06 	0.03845385781 	1.659892119e-06 	7.330374068e-05
0.5255559403 	0.01043142186 	0.009766115486 	8.390170782e-06 	0.03868574884 	2.041347857e-06 	7.374578943e-05
0.5446528007 	0.01065283261 	0.01003152896 	9.806576664e-06 	0.03903039056 	2.379604994e-06 	7.440277233e-05
0.5653073198 	0.0109171361 	0.01031201897 	1.094741611e-05 	0.03949441365 	2.545789497e-06 	7.528732933e-05
0.5875706324 	0.01123267761 	0.01061880375 	1.171641843e-05 	0.04006245038 	2.473974858e-06 	7.63701652e-05
0.6115522574 	0.0116071404 	0.01096232015 	1.202160844e-05 	0.04070302488 	2.128919086e-06 	7.759127824e-05
0.6373531822 	0.0120448197 	0.01134888393 	1.178751678e-05 	0.04136210073 	1.553843085e-06 	7.884766e-05
0.6650736862 	0.01253199373 	0.01176588627 	1.090786878e-05 	0.04196124868 	9.696659793e-07 	7.998980251e-05
0.6928473989 	0.01302385641 	0.01216960928 	9.546201704e-06 	0.04239961295 	3.215125621e-07 	8.082544665e-05
0.7188076063 	0.01348106007 	0.0125313581 	8.126147201e-06 	0.04259558426 	-5.089677688e-07 	8.119902242e-05
0.7430616173 	0.01400093606 	0.01277229195 	5.51362417e-06 	0.04223471787 	-4.726206866e-06 	8.051111079e-05
0.7657166274 	0.01463310962 	0.01284996506 	3.048984808e-06 	0.04120046234 	-8.321052042e-06 	7.853953229e-05
0.7868765632 	0.01524047679 	0.01283889229 	1.899058879e-06 	0.03987454352 	-8.326038889e-06 	7.601196251e-05
0.8066407466 	0.0157423614 	0.0127539993 	9.894532165e-07 	0.03847288863 	-7.920622726e-06 	7.334001871e-05
0.825101173 	0.01613373401 	0.01258574278 	4.977960804e-07 	0.03703421164 	-6.95507373e-06 	7.059750051e-05
0.8423446134 	0.01642795161 	0.01235672762 	2.011142115e-07 	0.03557707334 	-6.138606904e-06 	6.781978992e-05
0.8584514973 	0.01664465447 	0.01208685576 	1.274874392e-08 	0.03410282164 	-5.403898019e-06 	6.500945644e-05
0.8734970175 	0.01679636022 	0.01179255274 	-1.026846893e-07 	0.03262455394 	-4.780345846e-06 	6.219146734e-05
0.8875511498 	0.01689574123 	0.01148748064 	-1.54704279e-07 	0.03115192435 	-4.225005243e-06 	5.938422604e-05
0.900679109 	0.01695443566 	0.01118357907 	-1.431896756e-07 	0.02969526256 	-3.702365632e-06 	5.660742381e-05
0.9129417823 	0.01698426276 	0.01089165052 	-6.362778635e-08 	0.02826434217 	-3.17405995e-06 	5.387969184e-05
0.9243960038 	0.01699497088 	0.01062369144 	9.213344187e-08 	0.02687642787 	-2.600832887e-06 	5.123394143e-05
0.9350948531 	0.017000961 	0.01038922903 	3.325123681e-07 	0.0255417445 	-1.946521643e-06 	4.868966398e-05
0.9450879208 	0.01701886417 	0.01022242017 	6.854458925e-07 	0.02429569251 	-1.157613614e-06 	4.631434257e-05
0.954421548 	0.0170572904 	0.01008669426 	1.097139456e-06 	0.023208516 	-2.616866935e-07 	4.424188198e-05
0.9605997311 	0.01712333288 	0.01001350504 	1.523253413e-06 	0.0223979904 	6.387657173e-07 	4.26967949e-05
0.9660692856 	0.0172289225 	0.01003944742 	1.992806659e-06 	0.02183918484 	1.602180872e-06 	4.163155619e-05
0.9709113578 	0.01738595266 	0.01011229504 	2.500150033e-06 	0.02143680159 	2.681828514e-06 	4.086450188e-05
0.9751978312 	0.01760597299 	0.01023910876 	3.040242754e-06 	0.02119835029 	3.876138457e-06 	4.040994744e-05
0.9789923751 	0.01789780653 	0.01041515261 	3.596610488e-06 	0.02111971489 	5.162771661e-06 	4.026004649e-05
0.9823513805 	0.01826273599 	0.01063015577 	4.145834312e-06 	0.02118593028 	6.495599967e-06 	4.038627144e-05
0.9853247881 	0.01867649007 	0.01087247105 	4.655789613e-06 	0.02138380315 	7.80058866e-06 	4.076347213e-05
0.987956823 	0.01909157573 	0.0110909759 	5.081604078e-06 	0.02161323423 	8.954123607e-06 	4.120083153e-05
0.9902866465 	0.01938628585 	0.01131334409 	5.395910728e-06 	0.02180688041 	9.823897764e-06 	4.156997496e-05
0.9923489342 	0.01909388207 	0.01111559619 	5.385279027e-06 	0.02137251242 	1.003606036e-05 	4.074194885e-05
0.993688642 	0.01800290099 	0.01043956873 	5.039276155e-06 	0.0199711101 	9.477103252e-06 	3.807048654e-05
0.9950284246 	0.01492805782 	0.008660388372 	4.098257105e-06 	0.01645847264 	7.735871391e-06 	3.137442324e-05
0.9963682821 	0.007128815216 	0.003930849672 	1.879095781e-06 	0.007775326483 	3.733834261e-06 	1.482193332e-05
0.9977082144 	0.0008570962274 	0.0003170764479 	1.96728415e-07 	0.0008749790713 	5.312470724e-07 	1.667953298e-06
0.9990482216 	8.685259116e-06 	4.763492807e-07 	4.840825237e-10 	8.668384629e-06 	7.749909782e-09 	1.652435036e-08
0.9990482216 	8.685259116e-06 	4.763492807e-07 	4.840825237e-10 	8.668384629e-06 	7.749909782e-09 	1.652435036e-08
