0.4709558481 	2.071057229e-05 	-1.272265562e-06 	1.735675085e-11 	2.067041672e-05 	-2.091030649e-10 	3.940355931e-08
0.4720092239 	0.001722096647 	-0.0006499059114 	7.788687797e-09 	0.001759021203 	-1.789758591e-08 	3.353183308e-06
0.4730625996 	0.01246265822 	-0.00679809591 	5.246185543e-08 	0.01351025194 	-9.999334483e-08 	2.575429518e-05
0.4741159754 	0.02564974123 	-0.01469120306 	8.768214958e-08 	0.02803367364 	-1.655549638e-07 	5.343997352e-05
0.4751693511 	0.03140849992 	-0.01788072275 	8.673603503e-08 	0.03440135256 	-1.68585833e-07 	6.557853934e-05
0.4762227269 	0.03424258198 	-0.01948035208 	8.838661696e-08 	0.03763294856 	-1.70128969e-07 	7.17388595e-05
0.4778443634 	0.03588464566 	-0.02036029469 	8.825147069e-08 	0.03933118742 	-1.665991846e-07 	7.497617475e-05
0.4796765386 	0.03644866811 	-0.02052207514 	8.603803706e-08 	0.03983662165 	-1.592209084e-07 	7.593967288e-05
0.4817465869 	0.03652599978 	-0.02056722072 	8.27154123e-08 	0.03991081764 	-1.483987323e-07 	7.608111107e-05
0.4840853915 	0.03629022646 	-0.020436048 	7.748901236e-08 	0.03962869776 	-1.33653054e-07 	7.554331215e-05
0.4867278453 	0.03582030026 	-0.02019944344 	7.028181649e-08 	0.03913020597 	-1.152206546e-07 	7.459304826e-05
0.4897133715 	0.03516950019 	-0.01986730876 	6.0995965e-08 	0.03843225628 	-9.328337167e-08 	7.326256217e-05
0.4930865115 	0.03435711012 	-0.0194496196 	4.966958467e-08 	0.03755965202 	-6.813111248e-08 	7.159913591e-05
0.4968975894 	0.03339155939 	-0.01894914368 	3.640189623e-08 	0.03652313577 	-4.000328452e-08 	6.962324785e-05
0.5012034633 	0.03227514348 	-0.01835078722 	2.126253527e-08 	0.03531655054 	-9.097653925e-09 	6.732316105e-05
0.506068373 	0.03090407323 	-0.01765048308 	2.614412001e-09 	0.03384733055 	2.744367707e-08 	6.45224194e-05
0.5134203412 	0.02916727947 	-0.01670758611 	-2.069324763e-08 	0.03195352697 	7.105508228e-08 	6.091230342e-05
0.5212948542 	0.02723312362 	-0.01556689876 	-4.637281047e-08 	0.02979979571 	1.151585478e-07 	5.680669305e-05
0.529729052 	0.02529750273 	-0.01439383319 	-7.27401687e-08 	0.02761941315 	1.525607436e-07 	5.265027788e-05
0.5387627144 	0.02340555118 	-0.01316651292 	-9.968723662e-08 	0.02543740422 	1.784417443e-07 	4.849076241e-05
0.5484384488 	0.02160285579 	-0.01189682912 	-1.267833398e-07 	0.02330922056 	1.877001165e-07 	4.443385285e-05
0.5588018907 	0.01993577988 	-0.01059112176 	-1.534466197e-07 	0.02128199398 	1.758679462e-07 	4.056939554e-05
0.5699019192 	0.01843899538 	-0.00925787509 	-1.790884018e-07 	0.0194126009 	1.401569975e-07 	3.700581277e-05
0.5817908876 	0.01713527945 	-0.007904348414 	-2.032860455e-07 	0.01775744933 	8.062867506e-08 	3.385063386e-05
0.5945248701 	0.01603658415 	-0.006536728757 	-2.258507995e-07 	0.0163684452 	1.009070447e-09 	3.120280593e-05
0.6081639266 	0.01515099417 	-0.00515945825 	-2.467845068e-07 	0.01528457728 	-9.158492014e-08 	2.913665242e-05
0.6227723857 	0.01449040102 	-0.003775107956 	-2.661232986e-07 	0.0145251195 	-1.885182186e-07 	2.768891482e-05
0.638419148 	0.01407312887 	-0.002384374248 	-2.837108431e-07 	0.01408803493 	-2.823145128e-07 	2.685571015e-05
0.6551780116 	0.01391832947 	-0.0009862912378 	-2.990149968e-07 	0.01395627771 	-3.682538893e-07 	2.660454427e-05
0.6731280194 	0.01403589653 	0.0004214610029 	-3.111314725e-07 	0.01410914581 	-4.436469132e-07 	2.689595335e-05
0.6923538328 	0.01441986891 	0.001842377686 	-3.189788297e-07 	0.01453231414 	-5.055992704e-07 	2.770262979e-05
0.7129461301 	0.01505075974 	0.003281469807 	-3.215022283e-07 	0.01522180132 	-5.49477974e-07 	2.9016984e-05
0.7350020349 	0.01588934836 	0.004721291165 	-3.176272512e-07 	0.01616387139 	-5.695889846e-07 	3.081283138e-05
0.7570579485 	0.01685816386 	0.006097726883 	-3.069350446e-07 	0.01729291904 	-5.640451955e-07 	3.296511002e-05
0.7776502527 	0.01787681494 	0.007359549687 	-2.907697792e-07 	0.01851811227 	-5.38238029e-07 	3.530066883e-05
0.7968760713 	0.01891082085 	0.008510404558 	-2.710312452e-07 	0.01978647464 	-4.998815466e-07 	3.771852004e-05
0.814826083 	0.01995384928 	0.009570297897 	-2.491122882e-07 	0.02107514203 	-4.547653671e-07 	4.017507824e-05
0.831584949 	0.02100425771 	0.01055415413 	-2.262714657e-07 	0.02236966953 	-4.069459904e-07 	4.264280745e-05
0.8472317127 	0.02206121876 	0.01147293521 	-2.036340515e-07 	0.02366052 	-3.593364716e-07 	4.510352723e-05
0.8618401721 	0.02312308824 	0.01233456373 	-1.821278321e-07 	0.02494070694 	-3.141112619e-07 	4.754391934e-05
0.8754792281 	0.02418685314 	0.01314464609 	-1.624110702e-07 	0.02620433009 	-2.728624335e-07 	4.995273627e-05
0.8882132094 	0.0252481019 	0.01390706662 	-1.44836056e-07 	0.02744580113 	-2.366161054e-07 	5.231932511e-05
0.9001021759 	0.02630124011 	0.01462451423 	-1.294560501e-07 	0.02865959223 	-2.058197657e-07 	5.463314831e-05
0.9112022019 	0.02733994004 	0.01529881465 	-1.160651359e-07 	0.02983997682 	-1.803597783e-07 	5.688328941e-05
0.9215656407 	0.02835727711 	0.01593151199 	-1.04262866e-07 	0.03098169533 	-1.596399631e-07 	5.905972221e-05
0.9312413717 	0.02934660075 	0.01652322626 	-9.352217437e-08 	0.03207824767 	-1.426818477e-07 	6.115005574e-05
0.9402750304 	0.03029846743 	0.01707669109 	-8.328099764e-08 	0.03312936596 	-1.283044411e-07 	6.315377935e-05
0.9487092242 	0.03120766277 	0.01758758473 	-7.298181713e-08 	0.03412001298 	-1.151558292e-07 	6.50422279e-05
0.9565837329 	0.03206825146 	0.01808703956 	-6.226121448e-08 	0.03506055283 	-1.020044823e-07 	6.683515826e-05
0.9639356968 	0.0327911747 	0.01845302735 	-5.169641795e-08 	0.03582800092 	-8.868600235e-08 	6.829812763e-05
0.9688006083 	0.03332735273 	0.01869462255 	-4.243158327e-08 	0.03638084905 	-7.63454574e-08 	6.935200983e-05
0.9731064834 	0.03374612402 	0.01892189552 	-3.421268271e-08 	0.03682811 	-6.474001482e-08 	7.02046135e-05
0.976917562 	0.03407957802 	0.01909194663 	-2.643852824e-08 	0.03718025926 	-5.298641122e-08 	7.087590787e-05
0.9802907021 	0.03432286193 	0.01921714036 	-1.928769506e-08 	0.03743967985 	-4.135525909e-08 	7.137043561e-05
0.9832762282 	0.03446403202 	0.01929120745 	-1.28809237e-08 	0.03759066926 	-3.013250671e-08 	7.165826339e-05
0.9859186816 	0.03447970522 	0.01930109613 	-7.307374066e-09 	0.03760408699 	-1.962962387e-08 	7.168384132e-05
0.9882574856 	0.03431335562 	0.0192334438 	-2.627011447e-09 	0.03745758131 	-1.015654591e-08 	7.140456078e-05
0.990327533 	0.03388311157 	0.01901691703 	1.158619778e-09 	0.03701061688 	-1.956880973e-09 	7.055252234e-05
0.9921597073 	0.03301404715 	0.01869899914 	4.028634659e-09 	0.03617778537 	4.729144807e-09 	6.8964914e-05
0.9937813429 	0.03115540142 	0.01771103838 	5.84128904e-09 	0.03422358673 	9.344166773e-09 	6.523966826e-05
0.9948347186 	0.02817856145 	0.01605476819 	6.662616724e-09 	0.03085918135 	1.173133598e-08 	5.882617653e-05
0.9958880943 	0.02234458415 	0.01276332172 	6.849599258e-09 	0.02440836695 	1.239391137e-08 	4.652913137e-05
0.9969414701 	0.01043487357 	0.005628238579 	3.876267324e-09 	0.01128789877 	7.263899336e-09 	2.151787236e-05
0.9979948458 	0.00134678522 	0.0004814197214 	4.603074034e-10 	0.001370183531 	1.095955125e-09 	2.611950633e-06
0.9990482216 	1.771697048e-05 	9.864413893e-07 	9.607624626e-13 	1.76820315e-05 	1.370910955e-11 	3.370686651e-08
0.9990482216 	1.771697048e-05 	9.864413893e-07 	9.607624626e-13 	1.76820315e-05 	1.370910955e-11 	3.370686651e-08
