9.3321304e-34 	0.01819390629 	-1.194048716e-15 	-1.816253752e-18 	-3.74640743e-15 	1.635716809e-16 	-7.141693821e-18
0.00192775434 	0.01817021935 	-0.000235224068 	7.9446218e-08 	0.02091983158 	-1.783641054e-06 	3.987901336e-05
0.003855496009 	0.01816908447 	-0.0004833916436 	1.740856407e-07 	0.02100504112 	-1.786830122e-06 	4.004144642e-05
0.00578322496 	0.01819889684 	-0.000716019392 	2.546015866e-07 	0.02103188279 	-1.777130661e-06 	4.009261411e-05
0.00771094118 	0.01822010958 	-0.0009515435361 	3.339075933e-07 	0.02107002176 	-1.772756153e-06 	4.016531758e-05
0.009638644701 	0.01825652026 	-0.001220508733 	4.22158807e-07 	0.02110777719 	-1.77247981e-06 	4.023728992e-05
0.01260625481 	0.01831640302 	-0.001564720482 	5.290996786e-07 	0.0211671613 	-1.772396762e-06 	4.035049255e-05
0.01595911716 	0.01840683922 	-0.001974824348 	6.505833044e-07 	0.02125723123 	-1.784465117e-06 	4.052219086e-05
0.01974724082 	0.01853273352 	-0.002436530063 	7.789935402e-07 	0.02138277841 	-1.809588623e-06 	4.076151868e-05
0.02404205461 	0.01870374928 	-0.002955647385 	9.122587093e-07 	0.02155469516 	-1.846646857e-06 	4.108923979e-05
0.02889802931 	0.0189312002 	-0.003537420902 	1.047955059e-06 	0.02178547446 	-1.901594316e-06 	4.152916927e-05
0.03438438409 	0.01922755617 	-0.004186861136 	1.182426805e-06 	0.02208987391 	-1.975733031e-06 	4.210943924e-05
0.0405829431 	0.01960668675 	-0.004909321278 	1.311047247e-06 	0.02248497495 	-2.067490539e-06 	4.286261164e-05
0.04761204351 	0.02008277254 	-0.005709670516 	1.426518761e-06 	0.02298914774 	-2.168041086e-06 	4.382370509e-05
0.05555517351 	0.02066738151 	-0.006590482999 	1.521902066e-06 	0.02362107273 	-2.271126762e-06 	4.502832976e-05
0.06454090063 	0.02143913268 	-0.007637317221 	1.602951576e-06 	0.02447215797 	-2.384966276e-06 	4.665073477e-05
0.07815107649 	0.02246673301 	-0.008910752136 	1.602276729e-06 	0.02562165138 	-2.401796059e-06 	4.88419887e-05
0.09276442112 	0.023639643 	-0.01026365853 	1.532027786e-06 	0.02694692602 	-2.323151226e-06 	5.13683305e-05
0.1084475675 	0.02482296064 	-0.01156533815 	1.371215884e-06 	0.0282906146 	-2.099498962e-06 	5.392977439e-05
0.1252825093 	0.02593736025 	-0.01277640904 	1.12498809e-06 	0.02955096678 	-1.728684722e-06 	5.633235596e-05
0.1433555104 	0.02688822777 	-0.01384686392 	8.057586717e-07 	0.03060759993 	-1.232420378e-06 	5.834659241e-05
0.162757545 	0.02756411405 	-0.0147159017 	4.359676246e-07 	0.03132644249 	-6.57378515e-07 	5.971690613e-05
0.1835847774 	0.02783935183 	-0.01531052141 	5.058744267e-08 	0.03156218433 	-7.434919475e-08 	6.016629559e-05
0.1866078948 	0.02780462469 	-0.01534246773 	9.664437411e-06 	0.03150872127 	-2.510212101e-05 	6.006438014e-05
0.2059390814 	0.02758148967 	-0.01554622111 	3.000534535e-07 	0.03116558889 	-4.189689308e-07 	5.941027444e-05
0.2299285983 	0.02666964275 	-0.01533186933 	5.476733912e-07 	0.03000030571 	-7.15240285e-07 	5.718892083e-05
0.2556683305 	0.02503048813 	-0.01458439181 	6.287649284e-07 	0.02797774953 	-7.354266562e-07 	5.333336661e-05
0.2832814443 	0.02269786729 	-0.01326124433 	5.155797252e-07 	0.02512046149 	-4.856845255e-07 	4.788658148e-05
0.3129059726 	0.01987914142 	-0.01141237845 	2.671851893e-07 	0.02164377513 	-1.20447017e-07 	4.125905097e-05
0.3446742826 	0.01695973334 	-0.009218629208 	3.188851869e-08 	0.01798973703 	1.000491955e-07 	3.429343876e-05
0.3787404413 	0.01437035407 	-0.006932457313 	-6.364221768e-08 	0.01470962016 	1.943435013e-08 	2.804062435e-05
0.4152616124 	0.01239870796 	-0.004743278279 	-1.743461339e-08 	0.01223545261 	-2.637809661e-07 	2.332417334e-05
0.4544071642 	0.01116273102 	-0.002694488319 	9.170919308e-08 	0.01074484264 	-5.218289032e-07 	2.048265645e-05
0.4963586739 	0.01072570851 	-0.0007407875899 	1.939418349e-07 	0.01021303548 	-6.131928795e-07 	1.946888418e-05
0.5383269944 	0.01106091925 	0.001115750734 	2.539824935e-07 	0.01049778471 	-5.416607192e-07 	2.001169537e-05
0.5775204243 	0.01195093757 	0.00284071223 	2.616155381e-07 	0.01138142142 	-3.895376456e-07 	2.169615253e-05
0.6141186481 	0.01314004075 	0.004430169202 	2.162565605e-07 	0.01266771869 	-2.398987863e-07 	2.414819263e-05
0.6482913416 	0.01446420708 	0.00588572659 	1.206652748e-07 	0.01420353002 	-1.518587366e-07 	2.707587589e-05
0.6801980766 	0.01583652216 	0.007202648999 	-1.906822315e-08 	0.01586302223 	-1.57544951e-07 	3.023932927e-05
0.7099885359 	0.01720348995 	0.008373306288 	-1.930330739e-07 	0.01754308863 	-2.652832695e-07 	3.344200278e-05
0.7378026005 	0.01851911687 	0.009390406271 	-3.88626666e-07 	0.01916042145 	-4.666569162e-07 	3.652508864e-05
0.763771238 	0.01973744028 	0.01024877074 	-5.924248938e-07 	0.0206485629 	-7.43189208e-07 	3.936189985e-05
0.7880167691 	0.02081380603 	0.01094584682 	-7.91194993e-07 	0.02195517834 	-1.070194532e-06 	4.185267204e-05
0.8106534623 	0.02170901217 	0.01148202738 	-9.72285269e-07 	0.02304059606 	-1.41879959e-06 	4.392177989e-05
0.8317880447 	0.02239349608 	0.01186102512 	-1.123851017e-06 	0.0238775072 	-1.75775457e-06 	4.551716513e-05
0.8515201759 	0.02285007991 	0.01209044384 	-1.23528714e-06 	0.0244515701 	-2.055896797e-06 	4.661148857e-05
0.8699429115 	0.02307525315 	0.01218174787 	-1.298015388e-06 	0.02476066586 	-2.285265059e-06 	4.720071099e-05
0.8871431365 	0.02307691161 	0.01215150258 	-1.306273451e-06 	0.02481729327 	-2.423613669e-06 	4.730865858e-05
0.9032019733 	0.02287459747 	0.01201701029 	-1.258300479e-06 	0.02463827589 	-2.457106662e-06 	4.69674017e-05
0.918195162 	0.02249517251 	0.01181521115 	-1.154988399e-06 	0.0242585951 	-2.37927019e-06 	4.624362459e-05
0.9321934175 	0.02199518206 	0.0115438794 	-1.018492117e-06 	0.02372914734 	-2.210248834e-06 	4.523435001e-05
0.9414562861 	0.02149276375 	0.01127950101 	-8.803485482e-07 	0.02318519838 	-2.003047336e-06 	4.419743211e-05
0.9496547406 	0.02102074673 	0.01107011906 	-7.462484081e-07 	0.02268095397 	-1.780183466e-06 	4.32362021e-05
0.9569110947 	0.02054671536 	0.01086832559 	-6.15374942e-07 	0.02217602886 	-1.540499643e-06 	4.227367452e-05
0.963333607 	0.02007986377 	0.01068294778 	-4.919288377e-07 	0.02168483843 	-1.293839863e-06 	4.133732903e-05
0.9690180959 	0.01962414246 	0.01051265845 	-3.793785502e-07 	0.02121134602 	-1.049009665e-06 	4.04347209e-05
0.9740493692 	0.01917842656 	0.01035197101 	-2.797400938e-07 	0.02075108863 	-8.134437921e-07 	3.955734239e-05
0.9785024891 	0.01872790767 	0.010196095 	-1.940827298e-07 	0.02030356614 	-5.943337337e-07 	3.870424014e-05
0.9824438922 	0.01825002017 	0.01001447321 	-1.220493062e-07 	0.01981864038 	-3.973111521e-07 	3.777983686e-05
0.9859323811 	0.01769136505 	0.009842325861 	-6.50379277e-08 	0.01928234363 	-2.28782354e-07 	3.675750621e-05
0.9890200009 	0.01683282077 	0.009439185626 	-2.010600566e-08 	0.01844697532 	-9.855903927e-08 	3.516506203e-05
0.9910256451 	0.01566144386 	0.00879565991 	1.17293092e-08 	0.01711643492 	-9.732021926e-09 	3.262868223e-05
0.9930312892 	0.01351723337 	0.007716447405 	3.494263518e-08 	0.01474798809 	5.201439959e-08 	2.81137643e-05
0.9950369333 	0.00684107334 	0.003808839705 	2.802562981e-08 	0.00743712397 	4.868394191e-08 	1.417722533e-05
0.9970425775 	0.0008479453411 	0.000336664095 	4.515603685e-09 	0.0008697869577 	9.184164389e-09 	1.658055686e-06
0.9990482216 	5.951390286e-06 	3.080120208e-07 	5.600086418e-12 	5.940292395e-06 	6.989692094e-11 	1.132384832e-08
0.9990482216 	5.951390286e-06 	3.080120208e-07 	5.600086418e-12 	5.940292395e-06 	6.989692094e-11 	1.132384832e-08
