0.2472849305 	4.628863422e-05 	-3.751729617e-06 	-1.603359936e-10 	4.149159354e-05 	1.26898736e-08 	7.909450928e-08
0.2487094669 	0.00595621128 	-0.002087377054 	1.43750406e-06 	0.003687319503 	-3.205390984e-07 	7.029055811e-06
0.2501340182 	0.02425001388 	-0.009772822917 	-9.844449244e-06 	0.01447350245 	1.857486e-05 	2.759051838e-05
0.2515582136 	0.03483096022 	-0.01428673546 	-2.464049924e-05 	0.020946261 	3.431548869e-05 	3.992939518e-05
0.2529816857 	0.03132517319 	-0.01251745227 	-2.631203759e-05 	0.01979287118 	1.707512363e-05 	3.773071361e-05
0.2544040707 	0.02848597734 	-0.01124123508 	-2.279022701e-05 	0.01922264812 	-1.831023651e-05 	3.664370998e-05
0.2565908305 	0.02593242715 	-0.009733223916 	-1.501099481e-05 	0.01991609011 	-6.075550321e-05 	3.796560315e-05
0.2590557457 	0.02360316262 	-0.008313048744 	-5.214193499e-06 	0.02208541302 	-9.282322957e-05 	4.210093553e-05
0.2618311143 	0.02177159265 	-0.00739597831 	3.308073034e-06 	0.02490440314 	-0.0001071172647 	4.74747142e-05
0.2649514479 	0.02000100111 	-0.006667207616 	8.5915654e-06 	0.02781546538 	-0.0001081709673 	5.302400792e-05
0.2685402304 	0.01809509857 	-0.006016112925 	1.085519706e-05 	0.03055234689 	-9.991779755e-05 	5.824126475e-05
0.2726074998 	0.01601757936 	-0.00531801576 	9.639253062e-06 	0.03290944627 	-8.308839685e-05 	6.27345513e-05
0.2771758575 	0.0137817379 	-0.00453374785 	5.589152742e-06 	0.03484572492 	-5.818320965e-05 	6.642563657e-05
0.2823040561 	0.01161353963 	-0.003578315915 	2.14511349e-06 	0.03615400816 	-3.26565072e-05 	6.891958803e-05
0.28818069 	0.009756793482 	-0.00241423562 	1.431453018e-06 	0.03667585289 	-1.322655174e-05 	6.991436913e-05
0.2948278042 	0.008421674753 	-0.001127655291 	2.122882657e-06 	0.03609818015 	-3.383013383e-06 	6.881316433e-05
0.3039520189 	0.00764117802 	-0.0001058172242 	4.226736377e-06 	0.03466955624 	-1.035424888e-05 	6.60898101e-05
0.3048289965 	0.00756340459 	-7.044395147e-06 	8.691336549e-08 	0.03452252947 	-4.026226552e-07 	6.580953622e-05
0.3153909723 	0.006949652455 	0.0005828473637 	3.456747252e-06 	0.03269890005 	-1.723222991e-06 	6.233319168e-05
0.3267808322 	0.0065700051 	0.0008325175368 	9.922069822e-06 	0.03132241666 	-1.084384728e-06 	5.970923176e-05
0.3390183242 	0.006319818827 	0.0009637531735 	1.685667142e-05 	0.03041801489 	2.122213251e-08 	5.798519063e-05
0.3522090375 	0.006181938194 	0.001109192153 	2.335799167e-05 	0.03002964957 	1.415201847e-06 	5.724485838e-05
0.3664845753 	0.006109694666 	0.001302191114 	2.992002581e-05 	0.02995055669 	5.338267645e-06 	5.709408539e-05
0.3818620373 	0.006160447039 	0.001557036348 	3.691975542e-05 	0.03045518119 	5.755440393e-06 	5.805603992e-05
0.3984348019 	0.006236403945 	0.001858419736 	4.253996634e-05 	0.0310558778 	5.159942733e-06 	5.920113461e-05
0.4162929946 	0.00629978499 	0.002217879065 	3.724040723e-05 	0.03156982011 	5.15205693e-06 	6.018085151e-05
0.4355739439 	0.00639905391 	0.002631787422 	3.154155302e-05 	0.0321819376 	2.853088849e-06 	6.134771756e-05
0.4563323823 	0.006499435124 	0.003070364591 	2.576859452e-05 	0.0327164532 	3.212287936e-06 	6.236665287e-05
0.4786466123 	0.006676890772 	0.003570953377 	2.007754545e-05 	0.03352174957 	1.754990474e-06 	6.390177157e-05
0.5026835755 	0.006909477893 	0.004124367965 	1.476523033e-05 	0.0344497164 	1.016003279e-06 	6.567073426e-05
0.5284859607 	0.007220047069 	0.004765442284 	1.004935573e-05 	0.03553642857 	2.408187536e-07 	6.77423097e-05
0.5561749938 	0.007629126115 	0.005540948606 	6.044647316e-06 	0.03673389821 	-2.303692358e-07 	7.002501965e-05
0.5858631148 	0.008161683046 	0.006477431365 	3.007013251e-06 	0.03797375559 	-3.931348364e-07 	7.238853242e-05
0.6176648077 	0.008834491724 	0.007574374599 	1.107993729e-06 	0.03913538762 	-2.91801216e-07 	7.460292593e-05
0.6494508416 	0.009610983938 	0.008727272839 	3.097500606e-07 	0.0400491032 	-9.085622882e-08 	7.634472177e-05
0.6791106475 	0.01044855013 	0.009808087397 	1.301073157e-07 	0.04055294176 	5.384481301e-08 	7.730517811e-05
0.7067905922 	0.01141123081 	0.01065050735 	1.702903689e-07 	0.04034308373 	2.729920522e-07 	7.690513037e-05
0.7326288344 	0.01247321517 	0.0111897774 	2.842344309e-07 	0.0394373075 	6.837591012e-07 	7.517846912e-05
0.7567541468 	0.0134829453 	0.01150160666 	3.977107211e-07 	0.03822642222 	1.14856311e-06 	7.287018523e-05
0.7792862258 	0.01435890777 	0.01165258389 	4.713285812e-07 	0.03693849056 	1.550226939e-06 	7.041502952e-05
0.8003336001 	0.01508217262 	0.01169017514 	4.801672331e-07 	0.03565172479 	1.823016178e-06 	6.796209634e-05
0.8199971472 	0.0156608589 	0.01164872699 	4.337334035e-07 	0.03438076977 	1.96511729e-06 	6.553930281e-05
0.8383693647 	0.01610969424 	0.01154726452 	3.455983602e-07 	0.03311944054 	1.984361911e-06 	6.313485874e-05
0.8555361083 	0.01644520183 	0.01139900536 	2.317404669e-07 	0.03185894125 	1.89875391e-06 	6.073199675e-05
0.8715768547 	0.01668386425 	0.01121427956 	1.072854516e-07 	0.03059265546 	1.730090451e-06 	5.831810409e-05
0.8865654396 	0.01684118615 	0.0110023935 	-1.350754458e-08 	0.02931792252 	1.501769745e-06 	5.588810882e-05
0.9005706783 	0.01693151711 	0.01077215089 	-1.172568632e-07 	0.02803506965 	1.238137088e-06 	5.344263469e-05
0.913656745 	0.01696576644 	0.0105334509 	-1.910383414e-07 	0.02675206345 	9.664887006e-07 	5.099686829e-05
0.9258835601 	0.01695621055 	0.01029380399 	-2.226121572e-07 	0.02547098885 	7.145343232e-07 	4.855478404e-05
0.9373071183 	0.01691266367 	0.01008039956 	-1.964983458e-07 	0.02421457771 	5.155046061e-07 	4.615971521e-05
0.9479797699 	0.01684246414 	0.009867510895 	-1.136851321e-07 	0.02305182823 	4.097901058e-07 	4.394319154e-05
0.9550458569 	0.01677048178 	0.009697751041 	5.00610354e-09 	0.02211388895 	3.995437298e-07 	4.215521858e-05
0.9613025204 	0.01671172643 	0.00960451182 	1.608162927e-07 	0.02137710071 	4.998408537e-07 	4.075069541e-05
0.9668422226 	0.01666487685 	0.009537529637 	3.499597139e-07 	0.02074179397 	6.958939494e-07 	3.953962419e-05
0.9717469214 	0.01663726901 	0.009503812139 	5.718343199e-07 	0.0202138534 	9.905104284e-07 	3.853322273e-05
0.9760892456 	0.01663503887 	0.009501062365 	8.251997344e-07 	0.01979055133 	1.383316191e-06 	3.772629134e-05
0.9799335525 	0.01666075034 	0.009523316201 	1.108821586e-06 	0.01946279837 	1.870838406e-06 	3.71015031e-05
0.9833368611 	0.0167003707 	0.009565966358 	1.421032777e-06 	0.01922960535 	2.447711875e-06 	3.66569724e-05
0.9863496834 	0.01672915369 	0.009591392023 	1.753334211e-06 	0.01902242532 	3.085821675e-06 	3.626202966e-05
0.9890167622 	0.01667275483 	0.009638058293 	2.095175677e-06 	0.01881525258 	3.745094759e-06 	3.586710084e-05
0.9913777266 	0.01619631873 	0.009369778398 	2.294938419e-06 	0.01817411627 	4.16447414e-06 	3.464491684e-05
0.9929115363 	0.01515928801 	0.008751143707 	2.296332124e-06 	0.01684296917 	4.180168259e-06 	3.210738051e-05
0.9944454907 	0.01257207028 	0.00727749964 	1.805976644e-06 	0.01387304177 	3.338189132e-06 	2.644587342e-05
0.9959795897 	0.005985246995 	0.003305227756 	7.432753793e-07 	0.006535910024 	1.491691115e-06 	1.245926107e-05
0.9975138333 	0.0006850439767 	0.000252333531 	7.482961937e-08 	0.0006994373239 	2.144601567e-07 	1.333321938e-06
0.9990482216 	6.067892735e-06 	3.141508083e-07 	2.331813043e-10 	6.056236726e-06 	3.807491013e-09 	1.154487044e-08
0.9990482216 	6.067892735e-06 	3.141508083e-07 	2.331813043e-10 	6.056236726e-06 	3.807491013e-09 	1.154487044e-08
