0.3673995292 	3.846972795e-05 	-2.930005833e-06 	4.167295983e-09 	3.66962846e-05 	-4.22135901e-08 	6.995331766e-08
0.3673995292 	3.846972795e-05 	-2.930005833e-06 	4.167295983e-09 	3.66962846e-05 	-4.22135901e-08 	6.995331766e-08
0.3684829761 	0.003605650854 	-0.001358665657 	2.376727608e-06 	0.002942316641 	-4.081072955e-06 	5.608873292e-06
0.3695665877 	0.02146611016 	-0.01030459685 	1.114240022e-05 	0.01730123916 	-1.418529729e-05 	3.298097048e-05
0.3706502347 	0.03877747289 	-0.01920266217 	1.383528709e-05 	0.03121036268 	-1.493270313e-05 	5.949562574e-05
0.3717337888 	0.04202102783 	-0.0207129067 	8.196661921e-06 	0.03412853248 	-5.819036995e-06 	6.505846845e-05
0.3728171224 	0.04177146581 	-0.02082060515 	3.558787222e-06 	0.03416519053 	2.608571803e-06 	6.512834887e-05
0.3744841553 	0.0394514726 	-0.01980536896 	-1.656881003e-06 	0.03227932919 	1.137765708e-05 	6.153337301e-05
0.3763660564 	0.03562082497 	-0.01801640457 	-6.490418017e-06 	0.02934053322 	1.798823134e-05 	5.593121109e-05
0.3784895005 	0.03159771802 	-0.01609916261 	-1.144765326e-05 	0.02633650137 	2.071816818e-05 	5.020469147e-05
0.3808839529 	0.02785443887 	-0.01403485985 	-1.467009143e-05 	0.02369495053 	1.733671405e-05 	4.516916138e-05
0.3836378911 	0.02470320204 	-0.01204533336 	-1.571803821e-05 	0.02184536761 	7.671245013e-06 	4.164334227e-05
0.3867652482 	0.02218432599 	-0.01017050024 	-1.596311743e-05 	0.02096423929 	-6.382673065e-06 	3.99636668e-05
0.390290462 	0.02018719862 	-0.008429836232 	-1.512518249e-05 	0.02103404747 	-2.152379165e-05 	4.009674059e-05
0.3942632783 	0.01856516206 	-0.006808995194 	-1.295590438e-05 	0.02187649647 	-3.24745679e-05 	4.170268253e-05
0.3988211095 	0.01718418555 	-0.005245849558 	-1.107647942e-05 	0.02328938173 	-3.912306611e-05 	4.439603453e-05
0.4039948728 	0.01586271904 	-0.003602852933 	-9.62579632e-06 	0.02527452652 	-4.254773372e-05 	4.818027224e-05
0.4118367251 	0.01450696842 	-0.001705396557 	-8.041023611e-06 	0.02780296722 	-4.24490761e-05 	5.300018296e-05
0.420339507 	0.01322636452 	0.0003079555989 	-6.529130229e-06 	0.03050675465 	-3.959760263e-05 	5.815435327e-05
0.429540511 	0.01207458162 	0.002271103982 	-6.171329083e-06 	0.03312925804 	-3.502662757e-05 	6.315357362e-05
0.4394675757 	0.0110868464 	0.004241506495 	-6.037403134e-06 	0.03556628474 	-2.561232637e-05 	6.779922386e-05
0.450208819 	0.01039910371 	0.006177025561 	-3.993408752e-06 	0.03761535852 	-1.225899895e-05 	7.1705328e-05
0.4618721886 	0.01014604846 	0.007914287465 	-3.709849366e-07 	0.03900425055 	-2.111605576e-06 	7.435294221e-05
0.4744877587 	0.01033441796 	0.009167323386 	1.598085077e-06 	0.03951028172 	9.141184131e-07 	7.531757827e-05
0.488139843 	0.01066499525 	0.009896905222 	1.067060691e-06 	0.03949400707 	4.311045159e-07 	7.528655426e-05
0.4975745988 	0.01081282959 	0.01015338287 	9.680029711e-07 	0.03946651524 	-1.924776992e-05 	7.52341472e-05
0.5028917562 	0.01089674695 	0.01029741955 	5.731921805e-07 	0.03944752645 	2.105952397e-07 	7.519794929e-05
0.5188499572 	0.01107032886 	0.01053970132 	2.459346862e-06 	0.03949034682 	6.788413916e-07 	7.527957681e-05
0.5361130653 	0.01124708156 	0.01075129977 	4.171409153e-06 	0.03965359866 	9.616965793e-07 	7.559078019e-05
0.5547594807 	0.01145505578 	0.01097098358 	5.511946479e-06 	0.03993476044 	1.220549365e-06 	7.612675269e-05
0.574931013 	0.01170306344 	0.01120616028 	6.596994556e-06 	0.04033032797 	1.37963993e-06 	7.688081435e-05
0.596680164 	0.01199831981 	0.01146469454 	7.401442105e-06 	0.04082296175 	1.368259344e-06 	7.781991124e-05
0.6201143357 	0.01234629996 	0.01175357287 	7.851399697e-06 	0.04138079499 	1.170388351e-06 	7.888329645e-05
0.645332846 	0.01274860788 	0.01207596113 	7.862146041e-06 	0.04195253388 	8.384215503e-07 	7.997318968e-05
0.6724342449 	0.01318747723 	0.01241532671 	7.412710931e-06 	0.04246631487 	4.193590831e-07 	8.095259903e-05
0.6995933348 	0.01362200766 	0.01273496978 	6.607461827e-06 	0.04281920807 	-1.390115129e-07 	8.162531156e-05
0.7249828856 	0.01403868713 	0.01300473996 	5.038191049e-06 	0.04288080018 	-2.839875526e-06 	8.174272324e-05
0.7487060318 	0.01456656706 	0.01311096271 	3.020960282e-06 	0.04225357252 	-6.729782487e-06 	8.0547053e-05
0.7708663551 	0.01518574742 	0.01307532866 	1.780518602e-06 	0.04102628036 	-8.006262748e-06 	7.820749304e-05
0.7915646598 	0.01573534091 	0.01300279816 	1.044242366e-06 	0.03965826591 	-7.660605431e-06 	7.559967727e-05
0.8108975394 	0.01617798008 	0.01286658764 	4.685985037e-07 	0.03823990219 	-6.961165731e-06 	7.289588181e-05
0.8289546918 	0.01650934152 	0.01266583192 	1.352740243e-07 	0.03681215334 	-6.138003395e-06 	7.017419568e-05
0.8458208373 	0.01675186834 	0.01241430359 	-4.968859736e-08 	0.03536445761 	-5.405524832e-06 	6.741448524e-05
0.861574609 	0.01692263495 	0.01212805719 	-1.434306061e-07 	0.03390111339 	-4.71807091e-06 	6.462494445e-05
0.8762895743 	0.01703509619 	0.01182189981 	-1.752321961e-07 	0.03243303906 	-4.094064734e-06 	6.182638675e-05
0.8900342399 	0.01710188173 	0.01150912556 	-1.589641639e-07 	0.03097131317 	-3.519920535e-06 	5.903993093e-05
0.9028724742 	0.01713487848 	0.0112018926 	-9.969495813e-08 	0.02952768469 	-2.980531736e-06 	5.628797381e-05
0.9148639184 	0.01714618697 	0.01091155266 	2.284443294e-09 	0.02811388893 	-2.454907971e-06 	5.359288616e-05
0.9260642485 	0.01714608048 	0.01065096721 	1.505846322e-07 	0.02674961025 	-1.918132727e-06 	5.09921918e-05
0.9365254628 	0.01715018333 	0.01043061082 	3.492404589e-07 	0.02544761025 	-1.346266928e-06 	4.851021794e-05
0.9462961394 	0.01717740438 	0.01028706217 	6.160723299e-07 	0.02424739659 	-7.023546957e-07 	4.622227712e-05
0.9554216696 	0.01723738006 	0.01018025211 	9.076698461e-07 	0.02321769442 	-1.335238464e-08 	4.425937859e-05
0.9614619036 	0.01733399744 	0.01013844149 	1.198148053e-06 	0.022470062 	6.485339382e-07 	4.283418341e-05
0.9668091954 	0.01747855239 	0.01019997707 	1.5050965e-06 	0.02198147796 	1.327324655e-06 	4.190280643e-05
0.9715429241 	0.01768554225 	0.01031211272 	1.824254583e-06 	0.02166039262 	2.060064193e-06 	4.129072853e-05
0.9757334019 	0.01796701127 	0.0104814282 	2.150355044e-06 	0.0215139983 	2.839019539e-06 	4.101166027e-05
0.9794429011 	0.01833113951 	0.01070177662 	2.470076232e-06 	0.02153616714 	3.64074996e-06 	4.105392023e-05
0.9827265717 	0.01877652394 	0.01096091555 	2.767389685e-06 	0.02170799984 	4.428100153e-06 	4.138148112e-05
0.9856332522 	0.01927312587 	0.01124453615 	3.023284708e-06 	0.02201012826 	5.150678384e-06 	4.195742186e-05
0.9882061891 	0.01976450423 	0.01149782675 	3.213491388e-06 	0.02233232621 	5.735353568e-06 	4.257162071e-05
0.9904836754 	0.02011599077 	0.0117461755 	3.327267067e-06 	0.02259643148 	6.113978168e-06 	4.307507876e-05
0.9924996163 	0.01983505344 	0.01154850939 	3.249626694e-06 	0.02218032027 	6.096495183e-06 	4.228185514e-05
0.9938092065 	0.01870331646 	0.01084515299 	2.991948718e-06 	0.02073455384 	5.654815801e-06 	3.95258225e-05
0.9951188621 	0.01550097813 	0.008990969548 	2.407216604e-06 	0.01708282724 	4.558680127e-06 	3.256461665e-05
0.9964285831 	0.007408617191 	0.004082906101 	1.098346678e-06 	0.008077595948 	2.188121057e-06 	1.539814293e-05
0.9977383696 	0.0008994271113 	0.0003330660115 	1.153720215e-07 	0.0009181778265 	3.124176455e-07 	1.750302132e-06
0.9990482216 	9.320467108e-06 	5.159679022e-07 	2.885406737e-10 	9.30234617e-06 	4.605763625e-09 	1.773285725e-08
0.9990482216 	9.320467108e-06 	5.159679022e-07 	2.885406737e-10 	9.30234617e-06 	4.605763625e-09 	1.773285725e-08
