1.218267812e-35 	1.46869715 	-9.979455045e-14 	2.064623613e-18
0.00190503019 	1.468757826 	-0.0002684639421 	2.067238375e-07
0.003810043283 	1.468953641 	-0.0005152961786 	3.913402385e-07
0.005715039211 	1.469295834 	-0.0007521569636 	5.622887069e-07
0.007620017961 	1.469779005 	-0.0009972737058 	7.338338378e-07
0.009524979574 	1.470502581 	-0.001278668304 	9.259038395e-07
0.01245757067 	1.471691019 	-0.001639383835 	1.157951968e-06
0.01577085506 	1.473486615 	-0.002068182627 	1.419484004e-06
0.01951424692 	1.476008524 	-0.002550102666 	1.69338615e-06
0.02376371923 	1.479479918 	-0.003091410791 	1.975273156e-06
0.02856971015 	1.484171145 	-0.003696777806 	2.258628674e-06
0.03399956521 	1.490409291 	-0.004370162309 	2.53396349e-06
0.04013425608 	1.498605466 	-0.005116225958 	2.789893836e-06
0.04710020392 	1.509255769 	-0.00593820022 	3.009549937e-06
0.05497248355 	1.522922878 	-0.006834687605 	3.174901948e-06
0.06388212204 	1.5420872 	-0.007899666366 	3.300458726e-06
0.07738804933 	1.569837337 	-0.009173818202 	3.216092723e-06
0.09190225286 	1.605341811 	-0.01047759118 	2.957259067e-06
0.1074900975 	1.647154998 	-0.01168231012 	2.502782356e-06
0.1242359314 	1.695560908 	-0.01274810844 	1.879475051e-06
0.1422279963 	1.750804914 	-0.01361733392 	1.131079586e-06
0.1615588878 	1.813000068 	-0.0142246934 	3.270056355e-07
0.1701363888 	1.84146025 	-0.01433871214 	2.833976993e-05
0.1823260612 	1.881958329 	-0.0145013013 	4.88538114e-07
0.2046323802 	1.956921755 	-0.01438400374 	1.196180985e-06
0.2285867053 	2.036134297 	-0.01384609989 	1.711710652e-06
0.254304522 	2.116459694 	-0.01294493816 	2.109840339e-06
0.2819095097 	2.193544979 	-0.01183168623 	2.541558934e-06
0.3115423872 	2.262974576 	-0.01067805366 	3.073425448e-06
0.3433329903 	2.3217712 	-0.009584205336 	3.638069149e-06
0.37743697 	2.368835953 	-0.008560568912 	4.126980621e-06
0.414010442 	2.404138673 	-0.007572014278 	4.460567318e-06
0.4532220137 	2.427881472 	-0.006577414611 	4.599249216e-06
0.4952525067 	2.440165152 	-0.005560752229 	4.543582456e-06
0.5373056793 	2.441848005 	-0.004565437394 	4.332133321e-06
0.5765818555 	2.435406522 	-0.003641850264 	4.04068924e-06
0.6132593029 	2.423247702 	-0.002793907149 	3.726385634e-06
0.6475070436 	2.406769546 	-0.002010036018 	3.407891277e-06
0.679484443 	2.386736235 	-0.001282039979 	3.084059987e-06
0.7093412355 	2.363586461 	-0.0006054454991 	2.744844706e-06
0.7372173963 	2.337595169 	2.030538557e-05 	2.378526711e-06
0.7632441099 	2.308958106 	0.0005918935061 	1.977008906e-06
0.7875439148 	2.27783952 	0.001102774411 	1.538825827e-06
0.8102313055 	2.244398753 	0.001544302698 	1.070063084e-06
0.8314132346 	2.208803089 	0.001906900724 	5.834711464e-07
0.8511895776 	2.171230171 	0.00218148504 	9.693098796e-08
0.8696535944 	2.131858728 	0.002359730517 	-3.679269685e-07
0.8868923629 	2.090844906 	0.002437617444 	-7.867258982e-07
0.9029871861 	2.048270635 	0.002406309884 	-1.135230899e-06
0.9180139737 	2.004069642 	0.002278089192 	-1.387910962e-06
0.9320435986 	1.961094553 	0.002079086096 	-1.516299635e-06
0.941327225 	1.923782617 	0.00184897102 	-1.534911702e-06
0.9495440518 	1.890073578 	0.001621093445 	-1.483726032e-06
0.9568166671 	1.856483796 	0.001393549845 	-1.383053133e-06
0.963253572 	1.822388069 	0.00116947038 	-1.248298028e-06
0.9689507996 	1.786966874 	0.0009590772728 	-1.091132773e-06
0.9739933478 	1.749102705 	0.000764063183 	-9.22714779e-07
0.9784564469 	1.707203086 	0.0006029177438 	-7.512519647e-07
0.9824066826 	1.658795687 	0.000411673516 	-5.849369683e-07
0.985902989 	1.599888963 	0.0002879886424 	-4.262265189e-07
0.9889975281 	1.527512881 	0.0001536422237 	-2.927700814e-07
0.9910076668 	1.44093243 	-0.0005546811851 	-2.405188915e-07
0.9930178055 	1.314690656 	0.0003192973557 	-1.549736383e-07
0.9950279442 	1.063596861 	0.002335839021 	1.29141262e-08
0.9970380829 	0.5981984803 	0.0001679534033 	2.688522359e-08
0.9990482216 	0.1739153616 	-0.00146714049 	-2.195209267e-08
0.9990482216 	0.1739153616 	-0.00146714049 	-2.195209267e-08
