6.483489025e-34 	1.834802598 	-1.246104504e-13 	-4.529260056e-20
0.001935329056 	1.834828415 	-0.0001340594013 	5.162116315e-08
0.003870646918 	1.834911328 	-0.0002570523626 	9.781501044e-08
0.005805953543 	1.835055696 	-0.0003753192731 	1.408685687e-07
0.00774124892 	1.835259535 	-0.0004977772904 	1.842508975e-07
0.009676533077 	1.835564881 	-0.0006384631832 	2.329979521e-07
0.0126558162 	1.836067118 	-0.0008189197116 	2.923676395e-07
0.0160218712 	1.836827832 	-0.001033735498 	3.598377868e-07
0.01982490545 	1.837899116 	-0.001275604988 	4.313412039e-07
0.02413483307 	1.839378591 	-0.001547857422 	5.059765144e-07
0.02900746903 	1.841388031 	-0.001853400655 	5.825363142e-07
0.03451265705 	1.844079233 	-0.00219507864 	6.591213369e-07
0.04073250544 	1.847645636 	-0.002576108238 	7.333718618e-07
0.0477826567 	1.852327401 	-0.002999242378 	8.014558062e-07
0.05574940349 	1.858411066 	-0.003465791699 	8.59471219e-07
0.06476049349 	1.867067246 	-0.004028162379 	9.132428774e-07
0.07840541888 	1.8798362 	-0.004718363373 	9.250868743e-07
0.09305181054 	1.89650054 	-0.005452890637 	8.97615628e-07
0.1087667242 	1.916502335 	-0.006167364797 	8.202445043e-07
0.1256313686 	1.940050877 	-0.006846510391 	6.958218597e-07
0.1437313485 	1.967334491 	-0.007469821438 	5.294946931e-07
0.1631570974 	1.998511242 	-0.008012894364 	3.30253792e-07
0.1840043494 	2.033690056 	-0.008447087721 	1.116547063e-07
0.1952923877 	2.053464689 	-0.008594823868 	1.426224019e-05
0.2063746485 	2.072891335 	-0.008739881826 	1.101677081e-07
0.2303758959 	2.115977653 	-0.008855669562 	3.097688285e-07
0.2561229333 	2.162522836 	-0.008758621931 	4.564995496e-07
0.2837387559 	2.211600328 	-0.008419020617 	5.25786729e-07
0.3133605011 	2.261478647 	-0.007829162782 	5.132124985e-07
0.3451213801 	2.309351488 	-0.007031151484 	4.539769696e-07
0.3791749318 	2.351533047 	-0.006124750601 	4.035694772e-07
0.4156786692 	2.384445569 	-0.005217656344 	3.845234787e-07
0.4548022144 	2.405850928 	-0.004350856002 	3.782241845e-07
0.4967273963 	2.415172551 	-0.003518186922 	3.661797538e-07
0.5386674328 	2.413710314 	-0.002743596351 	3.39256065e-07
0.5778332805 	2.404484105 	-0.002050680043 	2.940595439e-07
0.6144050965 	2.390116787 	-0.001430369398 	2.331138345e-07
0.6485527742 	2.372087248 	-0.0008745295465 	1.582917175e-07
0.6804359545 	2.351238737 	-0.0003836716397 	7.255933047e-08
0.7102043027 	2.328105252 	4.041612205e-05 	-1.930385895e-08
0.7379976686 	2.303068806 	0.0003965721168 	-1.122352247e-07
0.7639469474 	2.276433097 	0.0006845390174 	-2.016756172e-07
0.7881743872 	2.248456361 	0.0009049296156 	-2.836477629e-07
0.8107941812 	2.219360976 	0.001059349657 	-3.545959519e-07
0.8319129813 	2.189327547 	0.001150527467 	-4.113389182e-07
0.8516303754 	2.15847747 	0.001182873679 	-4.511725675e-07
0.8700393505 	2.126845016 	0.001161738085 	-4.721700601e-07
0.8872267278 	2.094340355 	0.001096326052 	-4.732389994e-07
0.903273569 	2.06069241 	0.0009868642559 	-4.552587789e-07
0.9182555581 	2.025381169 	0.0008547606251 	-4.189285149e-07
0.9322433571 	1.99014513 	0.0007224482683 	-3.705370456e-07
0.9414993065 	1.958459459 	0.0005956807296 	-3.228899748e-07
0.9496916368 	1.92870267 	0.0004892530814 	-2.778980502e-07
0.9569425705 	1.897857421 	0.0003981521411 	-2.337889997e-07
0.9633602853 	1.865294247 	0.0003154769511 	-1.926121992e-07
0.969040528 	1.83021963 	0.0002457326812 	-1.549925422e-07
0.974068043 	1.791566028 	0.0001851164839 	-1.216528804e-07
0.9785178364 	1.74781723 	0.0001491343036 	-9.256636698e-08
0.9824562955 	1.696610856 	7.014619161e-05 	-6.826812447e-08
0.9859421785 	1.634115988 	4.527089459e-05 	-4.824111795e-08
0.9890274919 	1.557892914 	-1.213598307e-05 	-3.362847914e-08
0.9910316378 	1.467846824 	-0.0006937680682 	-2.850348889e-08
0.9930357838 	1.338350329 	0.0002291468658 	-1.773868217e-08
0.9950399297 	1.083039305 	0.002349139818 	1.435230923e-09
0.9970440756 	0.6098208028 	0.0001859771004 	2.374331766e-09
0.9990482216 	0.1775421493 	-0.001483257157 	-2.805156806e-09
0.9990482216 	0.1775421493 	-0.001483257157 	-2.805156806e-09
