0.1768325896 	3.810283456e-05 	-2.602393423e-06 	2.673245553e-09 	3.126614599e-05 	-1.499873654e-07 	5.960196424e-08
0.1785907938 	0.005921829637 	-0.001516885158 	8.07035311e-07 	0.002868317306 	-1.204419212e-05 	5.467809992e-06
0.1803486209 	0.01965105232 	-0.005935432559 	5.00931884e-06 	0.01035854647 	-6.063588811e-05 	1.974626858e-05
0.1821054395 	0.02706833816 	-0.008699546439 	3.383568218e-05 	0.01800483317 	-0.0001666635966 	3.432221622e-05
0.1838606252 	0.02627750936 	-0.008924933867 	8.511771169e-05 	0.02386554186 	-0.0002670427126 	4.549435586e-05
0.1856135605 	0.02554183293 	-0.009636076673 	0.0001190994964 	0.02958726911 	-0.0003073576823 	5.640155827e-05
0.1883063411 	0.02386898509 	-0.009853012755 	0.0001136628516 	0.0345866337 	-0.0002834959628 	6.593173668e-05
0.191337819 	0.0211216411 	-0.009634520124 	8.473828849e-05 	0.03803758026 	-0.0002117601049 	7.251019998e-05
0.1947451987 	0.01804489731 	-0.009406912815 	5.74880626e-05 	0.04003095017 	-0.0001322723735 	7.631011705e-05
0.1985670993 	0.01533282644 	-0.008838898208 	4.107208683e-05 	0.040694285 	-7.181131415e-05 	7.757461761e-05
0.2029500116 	0.01305043435 	-0.007823369676 	3.162563875e-05 	0.04004183766 	-3.307577055e-05 	7.633087163e-05
0.2079040511 	0.010885672 	-0.006627866636 	2.478313526e-05 	0.03840301109 	-9.255903388e-06 	7.320681269e-05
0.2134522109 	0.00925458857 	-0.005433098819 	1.944018543e-05 	0.03590848511 	1.180422316e-06 	6.845155287e-05
0.2196601811 	0.008249852091 	-0.004554225663 	1.389273002e-05 	0.03337200461 	2.88731018e-06 	6.361631605e-05
0.2267486692 	0.007649849232 	-0.004130149103 	6.738295701e-06 	0.03143510043 	1.493300917e-06 	5.992403835e-05
0.2332577037 	0.007310416859 	-0.004008022623 	7.931921627e-07 	0.03013988906 	-2.161786148e-05 	5.745500549e-05
0.234647839 	0.007245222615 	-0.003988571145 	1.094254531e-06 	0.02982160605 	7.636892202e-09 	5.684826962e-05
0.245957996 	0.006838417342 	-0.003842937018 	1.061621381e-05 	0.02800774208 	1.261413107e-06 	5.339054076e-05
0.2581327455 	0.006348242948 	-0.003560093581 	1.957453917e-05 	0.02603488174 	6.901009008e-06 	4.962972062e-05
0.2712030149 	0.006229324209 	-0.003484805284 	2.989235575e-05 	0.02552246106 	7.510579931e-06 	4.865290437e-05
0.2851802459 	0.006017317365 	-0.00333398611 	3.943805897e-05 	0.02479994769 	1.453660374e-05 	4.727559309e-05
0.3001737618 	0.005999801345 	-0.003282534427 	5.197078169e-05 	0.02490169425 	1.52810739e-05 	4.746955032e-05
0.3163208608 	0.005898228317 	-0.003132654766 	6.488125349e-05 	0.02480526848 	1.791890161e-05 	4.728573599e-05
0.3336263772 	0.005890477069 	-0.002960228111 	5.64446887e-05 	0.0253875743 	2.255158976e-05 	4.839577273e-05
0.3521814245 	0.005966893237 	-0.002787195042 	4.850624662e-05 	0.02643843216 	1.873366118e-05 	5.039899987e-05
0.3720724044 	0.005883456595 	-0.002444091559 	3.811910533e-05 	0.02706080778 	1.757948538e-05 	5.15854208e-05
0.3934380589 	0.005911719036 	-0.00207613195 	2.867124679e-05 	0.02829587851 	1.122525854e-05 	5.393980888e-05
0.4163236383 	0.005796947002 	-0.001553746849 	1.776880181e-05 	0.02899174138 	7.409875495e-06 	5.526631691e-05
0.4408019705 	0.005799405342 	-0.0009589134946 	7.713946217e-06 	0.03028423226 	2.791915171e-06 	5.773016375e-05
0.4622799629 	0.005812095093 	-0.0003734965942 	4.113636402e-06 	0.0313494556 	-4.395135806e-06 	5.976077551e-05
0.4669995683 	0.005827618649 	-0.0002504866824 	1.381581551e-06 	0.03157188242 	1.772759631e-07 	6.018478285e-05
0.4948343623 	0.005976750092 	0.0005761531424 	7.828918303e-06 	0.03307202404 	5.54836068e-07 	6.304446971e-05
0.5246517747 	0.006198864805 	0.001699031738 	1.21577914e-05 	0.03473623075 	-1.588613115e-07 	6.621691025e-05
0.5565711163 	0.006560921924 	0.003221464951 	1.3191955e-05 	0.03649878455 	-2.065079923e-06 	6.957682766e-05
0.5907153384 	0.007326630399 	0.005089048969 	1.101857132e-05 	0.03777663069 	-6.500460276e-07 	7.201275756e-05
0.6248041875 	0.008543644693 	0.006913248577 	8.276807683e-06 	0.03818139784 	6.497522434e-06 	7.278435626e-05
0.6565865215 	0.009998472922 	0.008352050129 	6.805404031e-06 	0.03780824438 	1.381149158e-05 	7.207302205e-05
0.6862306008 	0.01148604158 	0.009368187876 	5.759473231e-06 	0.03695995967 	1.683668802e-05 	7.045595562e-05
0.7138920104 	0.01282839949 	0.01007735751 	4.556031461e-06 	0.03601541508 	1.574177593e-05 	6.865539111e-05
0.7397136074 	0.01398087643 	0.01056540497 	3.447517865e-06 	0.03507773878 	1.346705503e-05 	6.686791947e-05
0.7638267275 	0.01493799214 	0.0108916852 	2.443041582e-06 	0.03417010142 	1.090707514e-05 	6.51377104e-05
0.7863495136 	0.01571573859 	0.01109398877 	1.63388659e-06 	0.03327168964 	8.616477258e-06 	6.342508785e-05
0.8073911058 	0.01633078809 	0.01119702731 	1.015067644e-06 	0.0323638762 	6.659599368e-06 	6.169454311e-05
0.8270511595 	0.01680056343 	0.01121881102 	5.601450795e-07 	0.0314314946 	5.0494394e-06 	5.991716464e-05
0.845421889 	0.01714198987 	0.01117350938 	2.384987787e-07 	0.03046547085 	3.748920926e-06 	5.807565489e-05
0.8625884684 	0.01737207801 	0.01107299646 	2.238404542e-08 	0.02946073679 	2.716343382e-06 	5.616035251e-05
0.8786299155 	0.01750712115 	0.01092790775 	-1.115617352e-07 	0.02841660203 	1.910181965e-06 	5.416994145e-05
0.8936198082 	0.01756254848 	0.01074797647 	-1.823375465e-07 	0.0273349581 	1.293171465e-06 	5.21080275e-05
0.9076267231 	0.01755050043 	0.01054350538 	-2.050646332e-07 	0.02622394297 	8.345539058e-07 	4.999012387e-05
0.9207146719 	0.01748360991 	0.01032205396 	-1.921016711e-07 	0.02508544102 	5.069673234e-07 	4.781982272e-05
0.9329434662 	0.0173702291 	0.01010944668 	-1.523020722e-07 	0.0239398623 	2.888303255e-07 	4.563603129e-05
0.9443690234 	0.01721984427 	0.009882527432 	-9.898858023e-08 	0.02285058338 	1.648171878e-07 	4.355956291e-05
0.9519339113 	0.0170676572 	0.009688690031 	-5.153406849e-08 	0.0219462311 	1.130515522e-07 	4.183561612e-05
0.9586324528 	0.0169271863 	0.009563274933 	-5.682834322e-09 	0.02121071259 	1.044255788e-07 	4.043351341e-05
0.9645635659 	0.01678903184 	0.009457717218 	3.609458091e-08 	0.02055196157 	1.190351722e-07 	3.917775087e-05
0.9698149412 	0.01665958229 	0.009379772881 	7.282317511e-08 	0.01997705932 	1.487181224e-07 	3.808182741e-05
0.9744642952 	0.01654479177 	0.009328026745 	1.039252133e-07 	0.01948515095 	1.865695586e-07 	3.714411332e-05
0.9785804997 	0.0164480463 	0.009297319849 	1.29296474e-07 	0.01906973222 	2.269025866e-07 	3.635220977e-05
0.9822245787 	0.01635788143 	0.009283726042 	1.492509925e-07 	0.01873281921 	2.653902133e-07 	3.570995993e-05
0.9854505955 	0.01625382812 	0.009251064806 	1.641116904e-07 	0.01841324218 	2.970019109e-07 	3.510075728e-05
0.9883064419 	0.01607277682 	0.009239583287 	1.740552612e-07 	0.01809393 	3.181335952e-07 	3.449205954e-05
0.9908345383 	0.01551895809 	0.008942183531 	1.681722028e-07 	0.01739207411 	3.095248629e-07 	3.315412713e-05
0.9924769413 	0.01447939468 	0.008329607236 	1.534396437e-07 	0.01607466809 	2.797222148e-07 	3.06427851e-05
0.9941195111 	0.01205113343 	0.006962872037 	1.009622017e-07 	0.01329048269 	1.872032105e-07 	2.53353539e-05
0.9957622477 	0.005762212235 	0.003186904739 	3.154991123e-08 	0.006293876174 	6.616717988e-08 	1.199787728e-05
0.9974051512 	0.0006507348261 	0.0002409273691 	2.649544384e-09 	0.00066473322 	8.728246799e-09 	1.26716627e-06
0.9990482216 	5.377522698e-06 	2.724165701e-07 	1.065684702e-11 	5.367309571e-06 	1.777810786e-10 	1.023158381e-08
0.9990482216 	5.377522698e-06 	2.724165701e-07 	1.065684702e-11 	5.367309571e-06 	1.777810786e-10 	1.023158381e-08
